# vtk DataFile Version 2.0
Unstructured Grid Example
ASCII
DATASET UNSTRUCTURED_GRID

POINTS 25 float
0.021995 -0.316476 0.000000 
0.978005 -0.316476 0.000000 
1.000000 1.000000 0.000000 
0.000000 1.000000 0.000000 
0.500000 -0.311381 0.000000 
0.945029 0.277332 0.000000 
0.500000 1.000000 0.000000 
0.054971 0.277332 0.000000 
0.500000 0.263791 0.000000 
0.261645 -0.316860 0.000000 
0.500000 -0.043431 0.000000 
0.266396 -0.044212 0.000000 
0.738355 -0.316860 0.000000 
0.733604 -0.044212 0.000000 
0.965326 -0.037235 0.000000 
0.721607 0.268406 0.000000 
0.935359 0.611810 0.000000 
0.722472 0.621689 0.000000 
0.750000 1.000000 0.000000 
0.500000 0.623169 0.000000 
0.250000 1.000000 0.000000 
0.277528 0.621689 0.000000 
0.064641 0.611810 0.000000 
0.278393 0.268406 0.000000 
0.034674 -0.037235 0.000000 

CELLS 32 128
3  0 9 11 
3  4 10 9 
3  8 11 10 
3  9 10 11 
3  4 12 10 
3  1 13 12 
3  8 10 13 
3  12 13 10 
3  1 14 13 
3  5 15 14 
3  8 13 15 
3  14 15 13 
3  5 16 15 
3  2 17 16 
3  8 15 17 
3  16 17 15 
3  2 18 17 
3  6 19 18 
3  8 17 19 
3  18 19 17 
3  6 20 19 
3  3 21 20 
3  8 19 21 
3  20 21 19 
3  3 22 21 
3  7 23 22 
3  8 21 23 
3  22 23 21 
3  7 24 23 
3  0 11 24 
3  8 23 11 
3  24 11 23 

CELL_TYPES 32
5
5
5
5
5
5
5
5
5
5
5
5
5
5
5
5
5
5
5
5
5
5
5
5
5
5
5
5
5
5
5
5

POINT_DATA 25

SCALARS u_h float 2
LOOKUP_TABLE default
0.021995 -0.316476 
-0.021995 -0.316476 
0.000000 0.000000 
0.000000 0.000000 
-0.000000 -0.311381 
-0.054971 -0.222668 
0.000000 0.000000 
0.054971 -0.222668 
-0.000000 -0.236209 
0.011645 -0.316860 
-0.000000 -0.293431 
0.016396 -0.294212 
-0.011645 -0.316860 
-0.016396 -0.294212 
-0.034674 -0.287235 
-0.028393 -0.231594 
-0.064641 -0.138190 
-0.027528 -0.128311 
0.000000 0.000000 
-0.000000 -0.126831 
0.000000 0.000000 
0.027528 -0.128311 
0.064641 -0.138190 
0.028393 -0.231594 
0.034674 -0.287235 

CELL_DATA 32

SCALARS epsilon float 4
LOOKUP_TABLE default
-0.042062 0.086547 0.000000 0.009140
-0.047662 0.069464 0.000000 0.010200
-0.067724 0.203606 0.000000 0.001265
-0.067608 0.086465 0.000000 0.011524
-0.047662 0.069464 0.000000 -0.010200
-0.042062 0.086547 0.000000 -0.009140
-0.067724 0.203606 0.000000 -0.001265
-0.067608 0.086465 0.000000 -0.011524
-0.073213 0.111914 0.000000 -0.014633
-0.106750 0.229287 0.000000 -0.029474
-0.118194 0.221267 0.000000 -0.018714
-0.073765 0.221760 0.000000 -0.013746
-0.110222 0.285987 0.000000 -0.007092
-0.132834 0.426496 0.000000 0.119667
-0.119961 0.335148 0.000000 0.008210
-0.159023 0.335729 0.000000 -0.011698
0.002647 0.396687 0.000000 0.048722
0.000000 0.393214 0.000000 0.000000
-0.116080 0.350679 0.000000 -0.002028
-0.112263 0.397125 0.000000 0.052810
0.000000 0.393214 0.000000 0.000000
0.002647 0.396687 0.000000 -0.048722
-0.116080 0.350679 0.000000 0.002028
-0.112263 0.397125 0.000000 -0.052810
-0.132834 0.426496 0.000000 -0.119667
-0.110222 0.285987 0.000000 0.007092
-0.119961 0.335148 0.000000 -0.008210
-0.159023 0.335729 0.000000 0.011698
-0.106750 0.229287 0.000000 0.029474
-0.073213 0.111914 0.000000 0.014633
-0.118194 0.221267 0.000000 0.018714
-0.073765 0.221760 0.000000 0.013746

SCALARS sigma float 4
LOOKUP_TABLE default
-0.308446 1.762090 0.399353 0.136997
-0.619876 1.279988 0.181350 0.175879
0.009620 4.215292 1.160690 0.022311
-1.024442 1.489091 0.127651 0.178072
-0.619876 1.279988 0.181350 -0.175879
-0.308446 1.762090 0.399353 -0.136997
0.009620 4.215292 1.160690 -0.022311
-1.024442 1.489091 0.127651 -0.178072
-0.984119 2.022749 0.285338 -0.180393
-0.991538 4.311891 0.912185 -0.330810
-1.349255 4.032608 0.737185 -0.218266
-0.037282 4.535999 1.235911 -0.141881
-0.572112 5.513859 1.357623 -0.020384
-0.755438 7.875096 1.955950 1.348029
-0.460809 6.435318 1.641349 0.143505
-1.674548 5.978203 1.182323 -0.245647
3.391689 8.954059 3.391689 0.596668
3.365731 8.885530 3.365731 0.000000
-0.223068 6.797573 1.806183 -0.037954
0.142643 7.730590 2.162976 0.634135
3.365731 8.885530 3.365731 0.000000
3.391689 8.954059 3.391689 -0.596668
-0.223068 6.797573 1.806183 0.037954
0.142643 7.730590 2.162976 -0.634135
-0.755438 7.875096 1.955950 -1.348029
-0.572112 5.513859 1.357623 0.020384
-0.460809 6.435318 1.641349 -0.143505
-1.674548 5.978203 1.182323 0.245647
-0.991538 4.311891 0.912185 0.330810
-0.984119 2.022749 0.285338 0.180393
-1.349255 4.032608 0.737185 0.218266
-0.037282 4.535999 1.235911 0.141881

