# vtk DataFile Version 2.0
Unstructured Grid Example
ASCII
DATASET UNSTRUCTURED_GRID

POINTS 9 float
0.028027 -0.321604 0.000000 
0.971973 -0.321604 0.000000 
1.000000 1.000000 0.000000 
0.000000 1.000000 0.000000 
0.500000 -0.294918 0.000000 
0.950204 0.283667 0.000000 
0.500000 1.000000 0.000000 
0.049796 0.283667 0.000000 
0.500000 0.271335 0.000000 

CELLS 8 32
3  0 4 8 
3  4 1 8 
3  1 5 8 
3  5 2 8 
3  2 6 8 
3  6 3 8 
3  3 7 8 
3  7 0 8 

CELL_TYPES 8
5
5
5
5
5
5
5
5

POINT_DATA 9

SCALARS u_h float 2
LOOKUP_TABLE default
0.028027 -0.321604 
-0.028027 -0.321604 
0.000000 0.000000 
0.000000 0.000000 
-0.000000 -0.294918 
-0.049796 -0.216333 
0.000000 0.000000 
0.049796 -0.216333 
-0.000000 -0.228665 

CELL_DATA 8

SCALARS epsilon float 4
LOOKUP_TABLE default
-0.057620 0.125094 0.000000 0.023480
-0.057620 0.125094 0.000000 -0.023480
-0.102721 0.190258 0.000000 -0.013373
-0.103380 0.346054 0.000000 0.058802
0.000000 0.363053 0.000000 0.000000
0.000000 0.363053 0.000000 0.000000
-0.103380 0.346054 0.000000 -0.058802
-0.102721 0.190258 0.000000 0.013373

SCALARS sigma float 4
LOOKUP_TABLE default
-0.397678 2.495053 0.576202 0.409381
-0.397678 2.495053 0.576202 -0.409381
-1.143805 3.517889 0.652221 -0.141848
0.030739 6.810415 1.879438 0.791352
3.138136 8.284680 3.138136 0.000000
3.138136 8.284680 3.138136 0.000000
0.030739 6.810415 1.879438 -0.791352
-1.143805 3.517889 0.652221 0.141848

