# vtk DataFile Version 2.0
Unstructured Grid Example
ASCII
DATASET UNSTRUCTURED_GRID

POINTS 1089 float
0.005823 -0.304091 0.000000 
0.994177 -0.304091 0.000000 
1.000000 1.000000 0.000000 
0.000000 1.000000 0.000000 
0.500000 -0.326895 0.000000 
0.938359 0.272679 0.000000 
0.500000 1.000000 0.000000 
0.061641 0.272679 0.000000 
0.500000 0.261456 0.000000 
0.254408 -0.322353 0.000000 
0.500000 -0.054505 0.000000 
0.268076 -0.050847 0.000000 
0.745592 -0.322353 0.000000 
0.731924 -0.050847 0.000000 
0.966145 -0.033303 0.000000 
0.717968 0.262446 0.000000 
0.927071 0.608349 0.000000 
0.717517 0.617237 0.000000 
0.750000 1.000000 0.000000 
0.500000 0.618543 0.000000 
0.250000 1.000000 0.000000 
0.282483 0.617237 0.000000 
0.072929 0.608349 0.000000 
0.282032 0.262446 0.000000 
0.033855 -0.033303 0.000000 
0.130299 -0.315115 0.000000 
0.260692 -0.191745 0.000000 
0.140214 -0.184877 0.000000 
0.500000 -0.196067 0.000000 
0.380523 -0.195134 0.000000 
0.377568 -0.326060 0.000000 
0.387946 0.098594 0.000000 
0.384207 -0.053702 0.000000 
0.500000 0.098054 0.000000 
0.622432 -0.326060 0.000000 
0.619477 -0.195134 0.000000 
0.859786 -0.184877 0.000000 
0.739308 -0.191745 0.000000 
0.869701 -0.315115 0.000000 
0.615793 -0.053702 0.000000 
0.612054 0.098594 0.000000 
0.980800 -0.173395 0.000000 
0.848717 -0.044693 0.000000 
0.827499 0.264913 0.000000 
0.837484 0.105283 0.000000 
0.951480 0.115550 0.000000 
0.724407 0.100519 0.000000 
0.608945 0.261814 0.000000 
0.928721 0.436775 0.000000 
0.821179 0.434327 0.000000 
0.839368 0.804651 0.000000 
0.822763 0.614078 0.000000 
0.941238 0.789081 0.000000 
0.714686 0.434889 0.000000 
0.607645 0.435495 0.000000 
0.875000 1.000000 0.000000 
0.729573 0.807204 0.000000 
0.500000 0.807535 0.000000 
0.615538 0.807483 0.000000 
0.625000 1.000000 0.000000 
0.609521 0.618259 0.000000 
0.500000 0.435720 0.000000 
0.375000 1.000000 0.000000 
0.384462 0.807483 0.000000 
0.160632 0.804651 0.000000 
0.270427 0.807204 0.000000 
0.125000 1.000000 0.000000 
0.390479 0.618259 0.000000 
0.392355 0.435495 0.000000 
0.058762 0.789081 0.000000 
0.177237 0.614078 0.000000 
0.172501 0.264913 0.000000 
0.178821 0.434327 0.000000 
0.071279 0.436775 0.000000 
0.285314 0.434889 0.000000 
0.391055 0.261814 0.000000 
0.048520 0.115550 0.000000 
0.162516 0.105283 0.000000 
0.151283 -0.044693 0.000000 
0.019200 -0.173395 0.000000 
0.275593 0.100519 0.000000 
0.068042 -0.309965 0.000000 
0.135077 -0.251246 0.000000 
0.073687 -0.246122 0.000000 
0.257348 -0.258326 0.000000 
0.196305 -0.255291 0.000000 
0.192459 -0.319232 0.000000 
0.205070 -0.119822 0.000000 
0.200542 -0.188820 0.000000 
0.264306 -0.122594 0.000000 
0.500000 -0.262801 0.000000 
0.439472 -0.262626 0.000000 
0.438845 -0.326844 0.000000 
0.441178 -0.126440 0.000000 
0.440278 -0.195858 0.000000 
0.500000 -0.126649 0.000000 
0.316106 -0.324590 0.000000 
0.378899 -0.261877 0.000000 
0.318206 -0.260478 0.000000 
0.444814 0.178581 0.000000 
0.443984 0.098196 0.000000 
0.500000 0.178444 0.000000 
0.326208 -0.052591 0.000000 
0.386108 0.021076 0.000000 
0.329063 0.022015 0.000000 
0.500000 0.020394 0.000000 
0.443071 0.020562 0.000000 
0.442122 -0.054312 0.000000 
0.320675 -0.193802 0.000000 
0.382320 -0.125760 0.000000 
0.323378 -0.124520 0.000000 
0.561155 -0.326844 0.000000 
0.560528 -0.262626 0.000000 
0.681794 -0.260478 0.000000 
0.621101 -0.261877 0.000000 
0.683894 -0.324590 0.000000 
0.559722 -0.195858 0.000000 
0.558822 -0.126440 0.000000 
0.926313 -0.246122 0.000000 
0.864923 -0.251246 0.000000 
0.931958 -0.309965 0.000000 
0.735694 -0.122594 0.000000 
0.799458 -0.188820 0.000000 
0.794930 -0.119822 0.000000 
0.807541 -0.319232 0.000000 
0.803695 -0.255291 0.000000 
0.742652 -0.258326 0.000000 
0.556016 0.098196 0.000000 
0.555186 0.178581 0.000000 
0.557878 -0.054312 0.000000 
0.556929 0.020562 0.000000 
0.670937 0.022015 0.000000 
0.613892 0.021076 0.000000 
0.673792 -0.052591 0.000000 
0.679325 -0.193802 0.000000 
0.676622 -0.124520 0.000000 
0.617680 -0.125760 0.000000 
0.987769 -0.239966 0.000000 
0.920268 -0.179782 0.000000 
0.907378 -0.039798 0.000000 
0.913911 -0.110984 0.000000 
0.973547 -0.104482 0.000000 
0.854345 -0.116019 0.000000 
0.790227 -0.048288 0.000000 
0.882715 0.267776 0.000000 
0.888273 0.187556 0.000000 
0.944589 0.193093 0.000000 
0.776472 0.181577 0.000000 
0.832228 0.183895 0.000000 
0.772622 0.263301 0.000000 
0.958734 0.040065 0.000000 
0.894378 0.109519 0.000000 
0.900812 0.033719 0.000000 
0.610368 0.178851 0.000000 
0.554468 0.261692 0.000000 
0.728117 0.023519 0.000000 
0.668166 0.099320 0.000000 
0.663433 0.262020 0.000000 
0.665608 0.179328 0.000000 
0.720955 0.180161 0.000000 
0.843043 0.029082 0.000000 
0.780832 0.102408 0.000000 
0.785477 0.025787 0.000000 
0.932813 0.353775 0.000000 
0.877997 0.350168 0.000000 
0.873291 0.521765 0.000000 
0.874669 0.434797 0.000000 
0.926552 0.521612 0.000000 
0.823665 0.348371 0.000000 
0.769649 0.347609 0.000000 
0.910590 0.899716 0.000000 
0.891056 0.799724 0.000000 
0.959768 0.886215 0.000000 
0.770501 0.616046 0.000000 
0.828619 0.708070 0.000000 
0.776088 0.710402 0.000000 
0.931388 0.697251 0.000000 
0.879986 0.703732 0.000000 
0.874669 0.611282 0.000000 
0.607985 0.347407 0.000000 
0.553994 0.347436 0.000000 
0.715774 0.347371 0.000000 
0.661909 0.347357 0.000000 
0.661805 0.525509 0.000000 
0.661268 0.435240 0.000000 
0.715118 0.524908 0.000000 
0.820622 0.522858 0.000000 
0.768014 0.524012 0.000000 
0.767940 0.434514 0.000000 
0.937500 1.000000 0.000000 
0.855536 0.902686 0.000000 
0.739091 0.903558 0.000000 
0.797879 0.903407 0.000000 
0.812500 1.000000 0.000000 
0.785283 0.806528 0.000000 
0.722281 0.711526 0.000000 
0.500000 0.903469 0.000000 
0.560033 0.903462 0.000000 
0.562500 1.000000 0.000000 
0.556102 0.712377 0.000000 
0.557854 0.807500 0.000000 
0.500000 0.712448 0.000000 
0.687500 1.000000 0.000000 
0.619968 0.903496 0.000000 
0.679703 0.903545 0.000000 
0.553860 0.435647 0.000000 
0.500000 0.347426 0.000000 
0.663806 0.617903 0.000000 
0.608103 0.525877 0.000000 
0.500000 0.526185 0.000000 
0.554122 0.526083 0.000000 
0.554854 0.618445 0.000000 
0.672862 0.807426 0.000000 
0.612002 0.712269 0.000000 
0.667482 0.712039 0.000000 
0.437500 1.000000 0.000000 
0.439967 0.903462 0.000000 
0.320297 0.903545 0.000000 
0.380032 0.903496 0.000000 
0.312500 1.000000 0.000000 
0.442146 0.807500 0.000000 
0.443898 0.712377 0.000000 
0.089410 0.899716 0.000000 
0.144464 0.902686 0.000000 
0.062500 1.000000 0.000000 
0.277719 0.711526 0.000000 
0.214717 0.806528 0.000000 
0.223912 0.710402 0.000000 
0.187500 1.000000 0.000000 
0.202121 0.903407 0.000000 
0.260909 0.903558 0.000000 
0.446140 0.435647 0.000000 
0.446006 0.347436 0.000000 
0.445146 0.618445 0.000000 
0.445878 0.526083 0.000000 
0.338195 0.525509 0.000000 
0.391897 0.525877 0.000000 
0.336194 0.617903 0.000000 
0.327138 0.807426 0.000000 
0.332518 0.712039 0.000000 
0.387998 0.712269 0.000000 
0.040232 0.886215 0.000000 
0.108944 0.799724 0.000000 
0.125331 0.611282 0.000000 
0.120014 0.703732 0.000000 
0.068612 0.697251 0.000000 
0.171381 0.708070 0.000000 
0.229499 0.616046 0.000000 
0.117285 0.267776 0.000000 
0.122003 0.350168 0.000000 
0.067187 0.353775 0.000000 
0.230351 0.347609 0.000000 
0.176335 0.348371 0.000000 
0.227378 0.263301 0.000000 
0.073448 0.521612 0.000000 
0.125331 0.434797 0.000000 
0.126709 0.521765 0.000000 
0.392015 0.347407 0.000000 
0.445532 0.261692 0.000000 
0.284882 0.524908 0.000000 
0.338732 0.435240 0.000000 
0.336567 0.262020 0.000000 
0.338091 0.347357 0.000000 
0.284226 0.347371 0.000000 
0.179378 0.522858 0.000000 
0.232060 0.434514 0.000000 
0.231986 0.524012 0.000000 
0.055411 0.193093 0.000000 
0.111727 0.187556 0.000000 
0.099188 0.033719 0.000000 
0.105622 0.109519 0.000000 
0.041266 0.040065 0.000000 
0.167772 0.183895 0.000000 
0.223528 0.181577 0.000000 
0.079732 -0.179782 0.000000 
0.012231 -0.239966 0.000000 
0.209773 -0.048288 0.000000 
0.145655 -0.116019 0.000000 
0.026453 -0.104482 0.000000 
0.086089 -0.110984 0.000000 
0.092622 -0.039798 0.000000 
0.389632 0.178851 0.000000 
0.279045 0.180161 0.000000 
0.334392 0.179328 0.000000 
0.331834 0.099320 0.000000 
0.271883 0.023519 0.000000 
0.156957 0.029082 0.000000 
0.214523 0.025787 0.000000 
0.219168 0.102408 0.000000 
0.036928 -0.307058 0.000000 
0.070818 -0.278351 0.000000 
0.039865 -0.275431 0.000000 
0.132645 -0.283495 0.000000 
0.101746 -0.281052 0.000000 
0.099173 -0.312665 0.000000 
0.107149 -0.215961 0.000000 
0.104400 -0.248818 0.000000 
0.137602 -0.218373 0.000000 
0.255817 -0.290658 0.000000 
0.225097 -0.289238 0.000000 
0.223464 -0.320910 0.000000 
0.228702 -0.223982 0.000000 
0.226850 -0.256927 0.000000 
0.258979 -0.225355 0.000000 
0.161400 -0.317303 0.000000 
0.194326 -0.287580 0.000000 
0.163507 -0.285669 0.000000 
0.236816 -0.085826 0.000000 
0.234710 -0.121325 0.000000 
0.266179 -0.087047 0.000000 
0.170400 -0.186984 0.000000 
0.202776 -0.154637 0.000000 
0.172861 -0.152836 0.000000 
0.262473 -0.157492 0.000000 
0.232646 -0.156182 0.000000 
0.230639 -0.190400 0.000000 
0.165713 -0.253401 0.000000 
0.198381 -0.222371 0.000000 
0.168013 -0.220506 0.000000 
0.500000 -0.295175 0.000000 
0.469563 -0.295189 0.000000 
0.469430 -0.326982 0.000000 
0.469930 -0.229728 0.000000 
0.469735 -0.262779 0.000000 
0.500000 -0.229767 0.000000 
0.408226 -0.326535 0.000000 
0.439127 -0.295046 0.000000 
0.408673 -0.294745 0.000000 
0.470825 -0.090871 0.000000 
0.470590 -0.126599 0.000000 
0.500000 -0.090920 0.000000 
0.410408 -0.195565 0.000000 
0.440720 -0.161484 0.000000 
0.411070 -0.161198 0.000000 
0.500000 -0.161697 0.000000 
0.470361 -0.161647 0.000000 
0.470140 -0.196021 0.000000 
0.285288 -0.323574 0.000000 
0.317099 -0.292851 0.000000 
0.286484 -0.291857 0.000000 
0.378188 -0.294284 0.000000 
0.347666 -0.293656 0.000000 
0.346864 -0.325415 0.000000 
0.349559 -0.228231 0.000000 
0.348571 -0.261264 0.000000 
0.379683 -0.228830 0.000000 
0.439860 -0.229568 0.000000 
0.409780 -0.229272 0.000000 
[...]
POINT_DATA 1089

SCALARS u_h float 2
LOOKUP_TABLE default
0.005823 -0.304091 
-0.005823 -0.304091 
0.000000 0.000000 
0.000000 0.000000 
0.000000 -0.326895 
-0.061641 -0.227321 
0.000000 0.000000 
0.061641 -0.227321 
0.000000 -0.238544 
0.004408 -0.322353 
0.000000 -0.304505 
0.018076 -0.300847 
-0.004408 -0.322353 
-0.018076 -0.300847 
-0.033855 -0.283303 
-0.032032 -0.237554 
-0.072929 -0.141651 
-0.032483 -0.132763 
0.000000 0.000000 
0.000000 -0.131457 
0.000000 0.000000 
0.032483 -0.132763 
0.072929 -0.141651 
0.032032 -0.237554 
0.033855 -0.283303 
0.005299 -0.315115 
0.010692 -0.316745 
0.015214 -0.309877 
0.000000 -0.321067 
0.005523 -0.320134 
0.002568 -0.326060 
0.012946 -0.276406 
0.009207 -0.303702 
0.000000 -0.276946 
-0.002568 -0.326060 
-0.005523 -0.320134 
-0.015214 -0.309877 
-0.010692 -0.316745 
-0.005299 -0.315115 
-0.009207 -0.303702 
-0.012946 -0.276406 
-0.019200 -0.298395 
-0.026283 -0.294693 
-0.047501 -0.235087 
-0.037516 -0.269717 
-0.048520 -0.259450 
-0.025593 -0.274481 
-0.016055 -0.238186 
-0.071279 -0.188225 
-0.053821 -0.190673 
-0.035632 -0.070349 
-0.052237 -0.135922 
-0.058762 -0.085919 
-0.035314 -0.190111 
-0.017355 -0.189505 
0.000000 0.000000 
-0.020427 -0.067796 
0.000000 -0.067465 
-0.009462 -0.067517 
0.000000 0.000000 
-0.015479 -0.131741 
0.000000 -0.189280 
0.000000 0.000000 
0.009462 -0.067517 
0.035632 -0.070349 
0.020427 -0.067796 
0.000000 0.000000 
0.015479 -0.131741 
0.017355 -0.189505 
0.058762 -0.085919 
0.052237 -0.135922 
0.047501 -0.235087 
0.053821 -0.190673 
0.071279 -0.188225 
0.035314 -0.190111 
0.016055 -0.238186 
0.048520 -0.259450 
0.037516 -0.269717 
0.026283 -0.294693 
0.019200 -0.298395 
0.025593 -0.274481 
0.005542 -0.309965 
0.010077 -0.313746 
0.011187 -0.308622 
0.007348 -0.320826 
0.008805 -0.317791 
0.004959 -0.319232 
0.017570 -0.307322 
0.013042 -0.313820 
0.014306 -0.310094 
0.000000 -0.325301 
0.001972 -0.325126 
0.001345 -0.326844 
0.003678 -0.313940 
0.002778 -0.320858 
0.000000 -0.314149 
0.003606 -0.324590 
0.003899 -0.324377 
0.005706 -0.322978 
0.007314 -0.258919 
0.006484 -0.276804 
0.000000 -0.259056 
0.013708 -0.302591 
0.011108 -0.291424 
0.016563 -0.290485 
0.000000 -0.292106 
0.005571 -0.291938 
0.004622 -0.304312 
0.008175 -0.318802 
0.007320 -0.313260 
0.010878 -0.312020 
-0.001345 -0.326844 
-0.001972 -0.325126 
-0.005706 -0.322978 
-0.003899 -0.324377 
-0.003606 -0.324590 
-0.002778 -0.320858 
-0.003678 -0.313940 
-0.011187 -0.308622 
-0.010077 -0.313746 
-0.005542 -0.309965 
-0.014306 -0.310094 
-0.013042 -0.313820 
-0.017570 -0.307322 
-0.004959 -0.319232 
-0.008805 -0.317791 
-0.007348 -0.320826 
-0.006484 -0.276804 
-0.007314 -0.258919 
-0.004622 -0.304312 
-0.005571 -0.291938 
-0.016563 -0.290485 
-0.011108 -0.291424 
-0.013708 -0.302591 
-0.008175 -0.318802 
-0.010878 -0.312020 
-0.007320 -0.313260 
-0.012231 -0.302466 
-0.017232 -0.304782 
-0.030122 -0.289798 
-0.023589 -0.298484 
-0.026453 -0.291982 
-0.020655 -0.303519 
-0.022273 -0.298288 
-0.054785 -0.232224 
-0.049227 -0.249944 
-0.055411 -0.244407 
-0.036028 -0.255923 
-0.042772 -0.253605 
-0.039878 -0.236699 
-0.041266 -0.272435 
-0.043122 -0.265481 
-0.036688 -0.278781 
-0.014632 -0.258649 
-0.008032 -0.238308 
-0.021883 -0.288981 
-0.019334 -0.275680 
-0.024067 -0.237980 
-0.021892 -0.258172 
-0.029045 -0.257339 
-0.031957 -0.283418 
-0.031668 -0.272592 
-0.027023 -0.286713 
-0.067187 -0.208725 
-0.059503 -0.212332 
-0.064209 -0.165735 
-0.062831 -0.190203 
-0.073448 -0.165888 
-0.051335 -0.214129 
-0.042851 -0.214891 
-0.026910 -0.037784 
-0.046444 -0.075276 
-0.040232 -0.051285 
-0.041999 -0.133954 
-0.046381 -0.104430 
-0.036412 -0.102098 
-0.068612 -0.115249 
-0.057514 -0.108768 
-0.062831 -0.138718 
-0.017015 -0.215093 
-0.008506 -0.215064 
-0.034226 -0.215129 
-0.025591 -0.215143 
-0.025695 -0.161991 
-0.026232 -0.189760 
-0.034882 -0.162592 
-0.054378 -0.164642 
-0.044486 -0.163488 
-0.044560 -0.190486 
0.000000 0.000000 
-0.019464 -0.034814 
-0.010909 -0.033942 
-0.014621 -0.034093 
0.000000 0.000000 
-0.027217 -0.068472 
-0.027719 -0.100974 
0.000000 -0.034031 
-0.002467 -0.034038 
0.000000 0.000000 
-0.006398 -0.100123 
-0.004646 -0.067500 
0.000000 -0.100052 
0.000000 0.000000 
-0.005032 -0.034004 
-0.007797 -0.033955 
-0.008640 -0.189353 
0.000000 -0.215074 
-0.023694 -0.132097 
-0.016897 -0.161623 
0.000000 -0.161315 
-0.008378 -0.161417 
-0.007646 -0.131555 
-0.014638 -0.067574 
-0.012998 -0.100231 
-0.020018 -0.100461 
0.000000 0.000000 
0.002467 -0.034038 
0.007797 -0.033955 
0.005032 -0.034004 
0.000000 0.000000 
0.004646 -0.067500 
0.006398 -0.100123 
0.026910 -0.037784 
0.019464 -0.034814 
0.000000 0.000000 
0.027719 -0.100974 
0.027217 -0.068472 
0.036412 -0.102098 
0.000000 0.000000 
0.014621 -0.034093 
0.010909 -0.033942 
0.008640 -0.189353 
0.008506 -0.215064 
0.007646 -0.131555 
0.008378 -0.161417 
0.025695 -0.161991 
0.016897 -0.161623 
0.023694 -0.132097 
0.014638 -0.067574 
0.020018 -0.100461 
0.012998 -0.100231 
0.040232 -0.051285 
0.046444 -0.075276 
0.062831 -0.138718 
0.057514 -0.108768 
0.068612 -0.115249 
0.046381 -0.104430 
0.041999 -0.133954 
0.054785 -0.232224 
0.059503 -0.212332 
0.067187 -0.208725 
0.042851 -0.214891 
0.051335 -0.214129 
0.039878 -0.236699 
0.073448 -0.165888 
0.062831 -0.190203 
0.064209 -0.165735 
0.017015 -0.215093 
0.008032 -0.238308 
0.034882 -0.162592 
0.026232 -0.189760 
0.024067 -0.237980 
0.025591 -0.215143 
0.034226 -0.215129 
0.054378 -0.164642 
0.044560 -0.190486 
0.044486 -0.163488 
0.055411 -0.244407 
0.049227 -0.249944 
0.036688 -0.278781 
0.043122 -0.265481 
0.041266 -0.272435 
0.042772 -0.253605 
0.036028 -0.255923 
0.017232 -0.304782 
0.012231 -0.302466 
0.022273 -0.298288 
0.020655 -0.303519 
0.026453 -0.291982 
0.023589 -0.298484 
0.030122 -0.289798 
0.014632 -0.258649 
0.029045 -0.257339 
0.021892 -0.258172 
0.019334 -0.275680 
0.021883 -0.288981 
0.031957 -0.283418 
0.027023 -0.286713 
0.031668 -0.272592 
0.005678 -0.307058 
0.008318 -0.309601 
0.008615 -0.306681 
0.007645 -0.314745 
0.007996 -0.312302 
0.005423 -0.312665 
0.013399 -0.309711 
0.010650 -0.311318 
0.012602 -0.312123 
0.005817 -0.321908 
0.006347 -0.320488 
0.004714 -0.320910 
0.009952 -0.317732 
0.008100 -0.319427 
0.008979 -0.319105 
0.005150 -0.317303 
0.006826 -0.318830 
0.007257 -0.316919 
0.018066 -0.304576 
0.015960 -0.308825 
0.016179 -0.305797 
0.014150 -0.311984 
0.015276 -0.310887 
0.016611 -0.309086 
0.012473 -0.313742 
0.013896 -0.312432 
0.011889 -0.315400 
0.009463 -0.315901 
0.010881 -0.316121 
0.011763 -0.314256 
0.000000 -0.326425 
0.000813 -0.326439 
0.000680 -0.326982 
0.001180 -0.323478 
0.000985 -0.325279 
0.000000 -0.323517 
0.001976 -0.326535 
0.001627 -0.326296 
0.002423 -0.325995 
0.002075 -0.309621 
0.001840 -0.314099 
0.000000 -0.309670 
0.004158 -0.320565 
0.003220 -0.317734 
0.004820 -0.317448 
0.000000 -0.317947 
0.001611 -0.317897 
0.001390 -0.321021 
0.004038 -0.323574 
0.004599 -0.324101 
0.005234 -0.323107 
0.003188 -0.325534 
0.003916 -0.324906 
0.003114 -0.325415 
0.005809 -0.321981 
0.004821 -0.323764 
0.004683 -0.322580 
0.002360 -0.323318 
0.003530 -0.323022 
0.002947 -0.324828 
0.003831 -0.249035 
0.003651 -0.259004 
0.000000 -0.249115 
0.009721 -0.276640 
0.006912 -0.268204 
0.010368 -0.268064 
0.000000 -0.268338 
0.003454 -0.268296 
0.003242 -0.276906 
0.015911 -0.301809 
0.015139 -0.296874 
0.017580 -0.296144 
0.010161 -0.297904 
0.012663 -0.297455 
0.011471 -0.303216 
0.015017 -0.283894 
0.013849 -0.291015 
0.012041 -0.284258 
0.000000 -0.298651 
0.002551 -0.298605 
0.002313 -0.304457 
0.003018 -0.284829 
0.002787 -0.292063 
0.000000 -0.284870 
0.006922 -0.304063 
0.005098 -0.298469 
0.007637 -0.298238 
0.009044 -0.284528 
0.008347 -0.291727 
0.006035 -0.284716 
0.006549 -0.322003 
0.006864 -0.319550 
0.006904 -0.321213 
0.007962 -0.320260 
0.009453 -0.317873 
0.004147 -0.309467 
0.008257 -0.308819 
0.006209 -0.309203 
0.005506 -0.313663 
0.006405 -0.317029 
0.014250 -0.306810 
0.011008 -0.314838 
0.012611 -0.311152 
0.012284 -0.307639 
0.010284 -0.308302 
0.007969 -0.316464 
0.009113 -0.312717 
0.009505 -0.315739 
-0.000680 -0.326982 
-0.000813 -0.326439 
-0.002423 -0.325995 
-0.001627 -0.326296 
-0.001976 -0.326535 
-0.000985 -0.325279 
-0.001180 -0.323478 
-0.005234 -0.323107 
-0.004599 -0.324101 
-0.004038 -0.323574 
-0.004683 -0.322580 
-0.004821 -0.323764 
-0.005809 -0.321981 
-0.003114 -0.325415 
-0.003916 -0.324906 
-0.003188 -0.325534 
-0.001840 -0.314099 
-0.002075 -0.309621 
-0.001390 -0.321021 
-0.001611 -0.317897 
-0.004820 -0.317448 
-0.003220 -0.317734 
-0.004158 -0.320565 
-0.002947 -0.324828 
-0.003530 -0.323022 
-0.002360 -0.323318 
-0.008615 -0.306681 
-0.008318 -0.309601 
-0.005678 -0.307058 
-0.012602 -0.312123 
-0.010650 -0.311318 
-0.013399 -0.309711 
-0.005423 -0.312665 
-0.007996 -0.312302 
-0.007645 -0.314745 
-0.016179 -0.305797 
-0.015960 -0.308825 
-0.018066 -0.304576 
-0.011889 -0.315400 
-0.013896 -0.312432 
-0.012473 -0.313742 
-0.016611 -0.309086 
-0.015276 -0.310887 
-0.014150 -0.311984 
-0.004714 -0.320910 
-0.006347 -0.320488 
-0.005817 -0.321908 
-0.007257 -0.316919 
-0.006826 -0.318830 
-0.005150 -0.317303 
-0.008979 -0.319105 
-0.008100 -0.319427 
-0.009952 -0.317732 
-0.011763 -0.314256 
-0.010881 -0.316121 
-0.009463 -0.315901 
-0.003651 -0.259004 
-0.003831 -0.249035 
-0.003242 -0.276906 
-0.003454 -0.268296 
-0.010368 -0.268064 
-0.006912 -0.268204 
-0.009721 -0.276640 
-0.002313 -0.304457 
-0.002551 -0.298605 
-0.007637 -0.298238 
-0.005098 -0.298469 
-0.006922 -0.304063 
-0.002787 -0.292063 
-0.003018 -0.284829 
-0.017580 -0.296144 
-0.015139 -0.296874 
-0.015911 -0.301809 
-0.012041 -0.284258 
-0.013849 -0.291015 
-0.015017 -0.283894 
-0.011471 -0.303216 
-0.012663 -0.297455 
-0.010161 -0.297904 
-0.006035 -0.284716 
-0.008347 -0.291727 
-0.009044 -0.284528 
-0.006549 -0.322003 
-0.009453 -0.317873 
-0.007962 -0.320260 
-0.006904 -0.321213 
-0.006864 -0.319550 
-0.014250 -0.306810 
-0.010284 -0.308302 
-0.012284 -0.307639 
-0.012611 -0.311152 
-0.011008 -0.314838 
-0.004147 -0.309467 
-0.006405 -0.317029 
-0.005506 -0.313663 
-0.006209 -0.309203 
-0.008257 -0.308819 
-0.009505 -0.315739 
-0.009113 -0.312717 
-0.007969 -0.316464 
-0.008915 -0.303598 
-0.011700 -0.305671 
-0.018212 -0.301762 
-0.014909 -0.304026 
-0.015670 -0.300728 
-0.014162 -0.307014 
-0.016238 -0.307481 
-0.031996 -0.286771 
-0.028497 -0.291389 
-0.030144 -0.287921 
-0.025164 -0.297099 
-0.026842 -0.294436 
-0.028221 -0.292426 
-0.022800 -0.295477 
-0.025022 -0.295433 
-0.021588 -0.298894 
-0.019907 -0.303123 
-0.020198 -0.299682 
-0.017903 -0.307008 
-0.019134 -0.305562 
-0.024301 -0.296636 
-0.021703 -0.301411 
-0.023454 -0.299413 
-0.020380 -0.301935 
-0.022137 -0.301169 
-0.019156 -0.304632 
-0.058269 -0.230101 
-0.055394 -0.239022 
-0.058638 -0.236119 
-0.048695 -0.243200 
-0.052087 -0.241353 
-0.051192 -0.233851 
-0.052026 -0.252184 
-0.052347 -0.247443 
-0.049152 -0.255345 
-0.034346 -0.247285 
-0.038033 -0.246631 
-0.035976 -0.237197 
-0.040195 -0.261961 
-0.039434 -0.254901 
-0.037078 -0.263411 
-0.043725 -0.236014 
-0.041661 -0.245770 
-0.045218 -0.244647 
-0.037569 -0.278138 
-0.038991 -0.275846 
-0.035500 -0.281587 
-0.045842 -0.262718 
-0.042446 -0.269554 
-0.044925 -0.266203 
-0.037373 -0.274835 
-0.039933 -0.272414 
-0.040348 -0.267795 
-0.046037 -0.251974 
-0.043245 -0.260174 
-0.046229 -0.257989 
-0.007688 -0.248950 
-0.004018 -0.238381 
-0.013815 -0.267869 
-0.010978 -0.258802 
-0.012044 -0.238250 
-0.011540 -0.248861 
-0.015385 -0.248752 
-0.019983 -0.295243 
-0.019243 -0.289815 
-0.022483 -0.275151 
-0.020883 -0.282817 
-0.023759 -0.282061 
-0.017967 -0.283420 
-0.016153 -0.276091 
-0.028059 -0.237805 
-0.026840 -0.248141 
-0.030612 -0.247776 
-0.019220 -0.248607 
-0.023040 -0.248410 
-0.020064 -0.238101 
-0.027363 -0.266240 
-0.025485 -0.257812 
-0.024025 -0.266816 
-0.017244 -0.267607 
-0.020649 -0.267263 
-0.018272 -0.258444 
-0.033410 -0.284578 
-0.034762 -0.276870 
-0.034345 -0.281289 
-0.031287 -0.287154 
-0.029123 -0.289360 
-0.032562 -0.256721 
-0.028656 -0.273639 
-0.030656 -0.265506 
-0.033896 -0.264576 
-0.034622 -0.271299 
-0.022341 -0.294144 
-0.026912 -0.291236 
-0.024651 -0.292819 
-0.024478 -0.287958 
-0.026590 -0.281123 
-0.032094 -0.278567 
-0.029369 -0.279971 
-0.029516 -0.285212 
-0.064584 -0.218271 
-0.060998 -0.220712 
-0.065482 -0.200401 
-0.063414 -0.210812 
-0.069436 -0.198706 
-0.057290 -0.222555 
-0.053472 -0.223922 
-0.068875 -0.153441 
-0.068936 -0.166013 
-0.073584 -0.154016 
-0.058377 -0.190564 
-0.063807 -0.178271 
-0.059142 -0.178220 
-0.072645 -0.177287 
-0.068323 -0.178014 
-0.067142 -0.189471 
-0.041494 -0.226119 
-0.037384 -0.226452 
-0.049555 -0.224917 
-0.045557 -0.225626 
-0.048358 -0.202936 
-0.047121 -0.214601 
-0.052779 -0.202717 
-0.061371 -0.201551 
-0.057127 -0.202286 
-0.055470 -0.213402 
-0.017366 -0.020680 
-0.032863 -0.042311 
-0.025421 -0.029626 
-0.040713 -0.072256 
-0.037922 -0.057001 
-0.032576 -0.054180 
-0.050888 -0.069558 
-0.044237 -0.061895 
-0.052635 -0.079774 
-0.037144 -0.133276 
-0.039633 -0.118292 
-0.034902 -0.117590 
-0.049847 -0.120522 
-0.044620 -0.119250 
-0.047039 -0.134828 
-0.036762 -0.086334 
-0.041227 -0.103063 
-0.041687 -0.087676 
-0.071334 -0.128750 
-0.066182 -0.126408 
-0.068009 -0.140259 
-0.058793 -0.096321 
-0.063195 -0.111804 
-0.064526 -0.101035 
-0.057532 -0.137234 
-0.060759 -0.124142 
-0.055262 -0.122153 
-0.047071 -0.089669 
-0.051845 -0.106306 
-0.052847 -0.092511 
-0.008310 -0.227006 
-0.004171 -0.227048 
-0.016602 -0.226961 
-0.012452 -0.226981 
-0.012935 -0.202543 
-0.012754 -0.215073 
-0.017274 -0.202600 
-0.033244 -0.226669 
-0.029086 -0.226805 
-0.030473 -0.202854 
-0.029904 -0.215152 
-0.034933 -0.202940 
-0.024922 -0.226887 
-0.020759 -0.226934 
-0.029357 -0.147575 
-0.030236 -0.162258 
-0.033956 -0.147949 
-0.021769 -0.189619 
-0.026130 -0.176160 
-0.021649 -0.175977 
-0.035316 -0.176655 
-0.030684 -0.176385 
-0.030748 -0.189926 
-0.021294 -0.215120 
-0.026040 -0.202762 
-0.021641 -0.202675 
-0.063927 -0.152564 
-0.053703 -0.150626 
-0.058838 -0.151583 
-0.059332 -0.165235 
-0.054384 -0.177986 
-0.038700 -0.148428 
-0.040020 -0.176966 
-0.039635 -0.163001 
-0.043587 -0.149030 
-0.048600 -0.149764 
-0.038546 -0.215053 
-0.049203 -0.190625 
-0.043894 -0.203013 
-0.039412 -0.203002 
-0.039923 -0.190304 
-0.049412 -0.164043 
-0.044783 -0.177309 
-0.049582 -0.177662 
0.000000 0.000000 
-0.013757 -0.018425 
-0.009873 -0.017209 
-0.011514 -0.017580 
0.000000 0.000000 
-0.022686 -0.035776 
-0.028178 -0.052632 
-0.005561 -0.016960 
-0.006451 -0.016953 
0.000000 0.000000 
-0.018459 -0.051043 
-0.012667 -0.033982 
-0.015906 -0.050909 
0.000000 0.000000 
-0.007436 -0.016972 
-0.008555 -0.017041 
-0.031921 -0.101430 
-0.030415 -0.117083 
-0.031171 -0.069180 
-0.032277 -0.085452 
-0.024383 -0.084515 
-0.028172 -0.084881 
-0.023665 -0.068047 
-0.016846 -0.034333 
-0.021287 -0.051302 
-0.024481 -0.051776 
0.000000 -0.017079 
-0.000626 -0.017084 
0.000000 0.000000 
-0.001792 -0.050852 
-0.001227 -0.034041 
0.000000 -0.050835 
0.000000 0.000000 
-0.001259 -0.017080 
-0.001905 -0.017068 
-0.003531 -0.115964 
-0.003186 -0.100086 
0.000000 -0.115925 
-0.007022 -0.067508 
-0.005582 -0.083937 
-0.008432 -0.083963 
0.000000 -0.083884 
-0.002779 -0.083912 
-0.002312 -0.067487 
0.000000 0.000000 
-0.003980 -0.017004 
-0.004743 -0.016980 
-0.002570 -0.017051 
-0.003258 -0.017029 
0.000000 0.000000 
-0.009311 -0.050828 
-0.006382 -0.033980 
-0.007343 -0.050838 
-0.003602 -0.050855 
-0.005447 -0.050849 
-0.003732 -0.034025 
-0.004260 -0.215067 
0.000000 -0.227101 
-0.012982 -0.189417 
-0.008617 -0.202503 
0.000000 -0.202462 
-0.004309 -0.202478 
-0.004317 -0.189309 
-0.028005 -0.132379 
-0.024894 -0.147289 
-0.016316 -0.146911 
-0.020553 -0.147072 
-0.019526 -0.131891 
-0.021253 -0.161782 
-0.017236 -0.175834 
0.000000 -0.146602 
-0.004027 -0.146644 
-0.003811 -0.131499 
-0.004276 -0.175590 
-0.004181 -0.161356 
0.000000 -0.175554 
-0.011527 -0.131633 
-0.008075 -0.146706 
-0.012164 -0.146792 
-0.012879 -0.175725 
-0.012611 -0.161504 
-0.008564 -0.175646 
-0.009298 -0.033939 
-0.011991 -0.067535 
-0.011373 -0.050827 
-0.013560 -0.050847 
-0.017436 -0.067652 
-0.007087 -0.116012 
-0.014374 -0.116164 
-0.010693 -0.116075 
-0.009660 -0.100169 
-0.011355 -0.083998 
-0.026148 -0.116722 
-0.020853 -0.084284 
-0.023765 -0.100667 
-0.022072 -0.116468 
-0.018158 -0.116289 
-0.014378 -0.084052 
-0.016440 -0.100323 
-0.017532 -0.084140 
0.000000 0.000000 
0.000626 -0.017084 
0.001905 -0.017068 
0.001259 -0.017080 
0.000000 0.000000 
0.001227 -0.034041 
0.001792 -0.050852 
0.004743 -0.016980 
0.003980 -0.017004 
0.000000 0.000000 
0.007343 -0.050838 
0.006382 -0.033980 
0.009311 -0.050828 
0.000000 0.000000 
0.003258 -0.017029 
0.002570 -0.017051 
0.003186 -0.100086 
0.003531 -0.115964 
0.002312 -0.067487 
0.002779 -0.083912 
0.008432 -0.083963 
0.005582 -0.083937 
0.007022 -0.067508 
0.003732 -0.034025 
0.005447 -0.050849 
0.003602 -0.050855 
0.017366 -0.020680 
0.013757 -0.018425 
0.000000 0.000000 
0.028178 -0.052632 
0.022686 -0.035776 
0.032576 -0.054180 
0.000000 0.000000 
0.011514 -0.017580 
0.009873 -0.017209 
0.030415 -0.117083 
0.031921 -0.101430 
0.034902 -0.117590 
0.023665 -0.068047 
0.028172 -0.084881 
0.024383 -0.084515 
0.036762 -0.086334 
0.032277 -0.085452 
0.031171 -0.069180 
0.000000 0.000000 
0.006451 -0.016953 
0.005561 -0.016960 
0.008555 -0.017041 
0.007436 -0.016972 
0.000000 0.000000 
0.015906 -0.050909 
0.012667 -0.033982 
0.018459 -0.051043 
0.024481 -0.051776 
0.021287 -0.051302 
0.016846 -0.034333 
0.004260 -0.215067 
0.004171 -0.227048 
0.004317 -0.189309 
0.004309 -0.202478 
0.012935 -0.202543 
0.008617 -0.202503 
0.012982 -0.189417 
0.003811 -0.131499 
0.004027 -0.146644 
0.012164 -0.146792 
0.008075 -0.146706 
0.011527 -0.131633 
0.004181 -0.161356 
0.004276 -0.175590 
0.029357 -0.147575 
0.024894 -0.147289 
0.028005 -0.132379 
0.017236 -0.175834 
0.021253 -0.161782 
0.021649 -0.175977 
0.019526 -0.131891 
0.020553 -0.147072 
0.016316 -0.146911 
0.008564 -0.175646 
0.012611 -0.161504 
0.012879 -0.175725 
0.009298 -0.033939 
0.017436 -0.067652 
0.013560 -0.050847 
0.011373 -0.050827 
0.011991 -0.067535 
0.026148 -0.116722 
0.018158 -0.116289 
0.022072 -0.116468 
0.023765 -0.100667 
0.020853 -0.084284 
0.007087 -0.116012 
0.011355 -0.083998 
0.009660 -0.100169 
0.010693 -0.116075 
0.014374 -0.116164 
0.017532 -0.084140 
0.016440 -0.100323 
0.014378 -0.084052 
0.025421 -0.029626 
0.032863 -0.042311 
0.052635 -0.079774 
0.044237 -0.061895 
0.050888 -0.069558 
0.037922 -0.057001 
0.040713 -0.072256 
0.068009 -0.140259 
0.066182 -0.126408 
0.071334 -0.128750 
0.055262 -0.122153 
0.060759 -0.124142 
0.057532 -0.137234 
0.064526 -0.101035 
0.063195 -0.111804 
0.058793 -0.096321 
0.039633 -0.118292 
0.037144 -0.133276 
0.041687 -0.087676 
0.041227 -0.103063 
0.047039 -0.134828 
0.044620 -0.119250 
0.049847 -0.120522 
0.052847 -0.092511 
0.051845 -0.106306 
0.047071 -0.089669 
0.058269 -0.230101 
0.060998 -0.220712 
0.064584 -0.218271 
0.053472 -0.223922 
0.057290 -0.222555 
0.051192 -0.233851 
0.069436 -0.198706 
0.063414 -0.210812 
0.065482 -0.200401 
0.037384 -0.226452 
0.041494 -0.226119 
0.035976 -0.237197 
0.052779 -0.202717 
0.047121 -0.214601 
0.048358 -0.202936 
0.043725 -0.236014 
0.045557 -0.225626 
0.049555 -0.224917 
0.073584 -0.154016 
0.068936 -0.166013 
0.068875 -0.153441 
0.067142 -0.189471 
0.068323 -0.178014 
0.072645 -0.177287 
0.059142 -0.178220 
0.063807 -0.178271 
0.058377 -0.190564 
0.055470 -0.213402 
0.057127 -0.202286 
0.061371 -0.201551 
0.008310 -0.227006 
0.004018 -0.238381 
0.017274 -0.202600 
0.012754 -0.215073 
0.012044 -0.238250 
0.012452 -0.226981 
0.016602 -0.226961 
0.033956 -0.147949 
0.030236 -0.162258 
0.030748 -0.189926 
0.030684 -0.176385 
0.035316 -0.176655 
0.026130 -0.176160 
0.021769 -0.189619 
0.028059 -0.237805 
0.029086 -0.226805 
0.033244 -0.226669 
0.020759 -0.226934 
0.024922 -0.226887 
0.020064 -0.238101 