# vtk DataFile Version 2.0
Unstructured Grid Example
ASCII
DATASET UNSTRUCTURED_GRID

POINTS 81 float
0.013163 -0.309801 0.000000 
0.986837 -0.309801 0.000000 
1.000000 1.000000 0.000000 
0.000000 1.000000 0.000000 
0.500000 -0.320789 0.000000 
0.941032 0.274636 0.000000 
0.500000 1.000000 0.000000 
0.058968 0.274636 0.000000 
0.500000 0.261752 0.000000 
0.257499 -0.320292 0.000000 
0.500000 -0.050648 0.000000 
0.267428 -0.048386 0.000000 
0.742501 -0.320292 0.000000 
0.732572 -0.048386 0.000000 
0.965974 -0.034955 0.000000 
0.719196 0.264508 0.000000 
0.930281 0.609393 0.000000 
0.719340 0.618746 0.000000 
0.750000 1.000000 0.000000 
0.500000 0.620268 0.000000 
0.250000 1.000000 0.000000 
0.280660 0.618746 0.000000 
0.069719 0.609393 0.000000 
0.280804 0.264508 0.000000 
0.034026 -0.034955 0.000000 
0.135621 -0.315729 0.000000 
0.261581 -0.189247 0.000000 
0.141765 -0.184718 0.000000 
0.500000 -0.190916 0.000000 
0.380818 -0.191210 0.000000 
0.378883 -0.322216 0.000000 
0.386992 0.101174 0.000000 
0.383692 -0.050296 0.000000 
0.500000 0.100260 0.000000 
0.621117 -0.322216 0.000000 
0.619182 -0.191210 0.000000 
0.858235 -0.184718 0.000000 
0.738419 -0.189247 0.000000 
0.864379 -0.315729 0.000000 
0.616308 -0.050296 0.000000 
0.613008 0.101174 0.000000 
0.978377 -0.177109 0.000000 
0.849222 -0.043897 0.000000 
0.829345 0.266887 0.000000 
0.839020 0.106771 0.000000 
0.952574 0.115821 0.000000 
0.725800 0.102840 0.000000 
0.609555 0.263675 0.000000 
0.931261 0.437565 0.000000 
0.823106 0.436073 0.000000 
0.842882 0.806456 0.000000 
0.825449 0.615678 0.000000 
0.944959 0.792741 0.000000 
0.715994 0.436679 0.000000 
0.608125 0.437090 0.000000 
0.875000 1.000000 0.000000 
0.730984 0.807984 0.000000 
0.500000 0.808624 0.000000 
0.616046 0.808118 0.000000 
0.625000 1.000000 0.000000 
0.610253 0.619532 0.000000 
0.500000 0.437254 0.000000 
0.375000 1.000000 0.000000 
0.383954 0.808118 0.000000 
0.157118 0.806456 0.000000 
0.269016 0.807984 0.000000 
0.125000 1.000000 0.000000 
0.389747 0.619532 0.000000 
0.391875 0.437090 0.000000 
0.055041 0.792741 0.000000 
0.174551 0.615678 0.000000 
0.170655 0.266887 0.000000 
0.176894 0.436073 0.000000 
0.068739 0.437565 0.000000 
0.284006 0.436679 0.000000 
0.390445 0.263675 0.000000 
0.047426 0.115821 0.000000 
0.160980 0.106771 0.000000 
0.150778 -0.043897 0.000000 
0.021623 -0.177109 0.000000 
0.274200 0.102840 0.000000 

CELLS 128 512
3  0 25 27 
3  9 26 25 
3  11 27 26 
3  25 26 27 
3  4 28 30 
3  10 29 28 
3  9 30 29 
3  28 29 30 
3  8 31 33 
3  11 32 31 
3  10 33 32 
3  31 32 33 
3  9 29 26 
3  10 32 29 
3  11 26 32 
3  29 32 26 
3  4 34 28 
3  12 35 34 
3  10 28 35 
3  34 35 28 
3  1 36 38 
3  13 37 36 
3  12 38 37 
3  36 37 38 
3  8 33 40 
3  10 39 33 
3  13 40 39 
3  33 39 40 
3  12 37 35 
3  13 39 37 
3  10 35 39 
3  37 39 35 
3  1 41 36 
3  14 42 41 
3  13 36 42 
3  41 42 36 
3  5 43 45 
3  15 44 43 
3  14 45 44 
3  43 44 45 
3  8 40 47 
3  13 46 40 
3  15 47 46 
3  40 46 47 
3  14 44 42 
3  15 46 44 
3  13 42 46 
3  44 46 42 
3  5 48 43 
3  16 49 48 
3  15 43 49 
3  48 49 43 
3  2 50 52 
3  17 51 50 
3  16 52 51 
3  50 51 52 
3  8 47 54 
3  15 53 47 
3  17 54 53 
3  47 53 54 
3  16 51 49 
3  17 53 51 
3  15 49 53 
3  51 53 49 
3  2 55 50 
3  18 56 55 
3  17 50 56 
3  55 56 50 
3  6 57 59 
3  19 58 57 
3  18 59 58 
3  57 58 59 
3  8 54 61 
3  17 60 54 
3  19 61 60 
3  54 60 61 
3  18 58 56 
3  19 60 58 
3  17 56 60 
3  58 60 56 
3  6 62 57 
3  20 63 62 
3  19 57 63 
3  62 63 57 
3  3 64 66 
3  21 65 64 
3  20 66 65 
3  64 65 66 
3  8 61 68 
3  19 67 61 
3  21 68 67 
3  61 67 68 
3  20 65 63 
3  21 67 65 
3  19 63 67 
3  65 67 63 
3  3 69 64 
3  22 70 69 
3  21 64 70 
3  69 70 64 
3  7 71 73 
3  23 72 71 
3  22 73 72 
3  71 72 73 
3  8 68 75 
3  21 74 68 
3  23 75 74 
3  68 74 75 
3  22 72 70 
3  23 74 72 
3  21 70 74 
3  72 74 70 
3  7 76 71 
3  24 77 76 
3  23 71 77 
3  76 77 71 
3  0 27 79 
3  11 78 27 
3  24 79 78 
3  27 78 79 
3  8 75 31 
3  23 80 75 
3  11 31 80 
3  75 80 31 
3  24 78 77 
3  11 80 78 
3  23 77 80 
3  78 80 77 

CELL_TYPES 128
5
5
5
5
5
5
5
5
5
5
5
5
5
5
5
5
5
5
5
5
5
5
5
5
5
5
5
5
5
5
5
5
5
5
5
5
5
5
5
5
5
5
5
5
5
5
5
5
5
5
5
5
5
5
5
5
5
5
5
5
5
5
5
5
5
5
5
5
5
5
5
5
5
5
5
5
5
5
5
5
5
5
5
5
5
5
5
5
5
5
5
5
5
5
5
5
5
5
5
5
5
5
5
5
5
5
5
5
5
5
5
5
5
5
5
5
5
5
5
5
5
5
5
5
5
5
5
5

POINT_DATA 81

SCALARS u_h float 2
LOOKUP_TABLE default
0.013163 -0.309801 
-0.013163 -0.309801 
0.000000 0.000000 
0.000000 0.000000 
-0.000000 -0.320789 
-0.058968 -0.225364 
0.000000 0.000000 
0.058968 -0.225364 
-0.000000 -0.238248 
0.007499 -0.320292 
-0.000000 -0.300648 
0.017428 -0.298386 
-0.007499 -0.320292 
-0.017428 -0.298386 
-0.034026 -0.284955 
-0.030804 -0.235492 
-0.069719 -0.140607 
-0.030660 -0.131254 
0.000000 0.000000 
-0.000000 -0.129732 
0.000000 0.000000 
0.030660 -0.131254 
0.069719 -0.140607 
0.030804 -0.235492 
0.034026 -0.284955 
0.010621 -0.315729 
0.011581 -0.314247 
0.016765 -0.309718 
-0.000000 -0.315916 
0.005818 -0.316210 
0.003883 -0.322216 
0.011992 -0.273826 
0.008692 -0.300296 
-0.000000 -0.274740 
-0.003883 -0.322216 
-0.005818 -0.316210 
-0.016765 -0.309718 
-0.011581 -0.314247 
-0.010621 -0.315729 
-0.008692 -0.300296 
-0.011992 -0.273826 
-0.021623 -0.302109 
-0.025778 -0.293897 
-0.045655 -0.233113 
-0.035980 -0.268229 
-0.047426 -0.259179 
-0.024200 -0.272160 
-0.015445 -0.236325 
-0.068739 -0.187435 
-0.051894 -0.188927 
-0.032118 -0.068544 
-0.049551 -0.134322 
-0.055041 -0.082259 
-0.034006 -0.188321 
-0.016875 -0.187910 
0.000000 0.000000 
-0.019016 -0.067016 
-0.000000 -0.066376 
-0.008954 -0.066882 
0.000000 0.000000 
-0.014747 -0.130468 
-0.000000 -0.187746 
0.000000 0.000000 
0.008954 -0.066882 
0.032118 -0.068544 
0.019016 -0.067016 
0.000000 0.000000 
0.014747 -0.130468 
0.016875 -0.187910 
0.055041 -0.082259 
0.049551 -0.134322 
0.045655 -0.233113 
0.051894 -0.188927 
0.068739 -0.187435 
0.034006 -0.188321 
0.015445 -0.236325 
0.047426 -0.259179 
0.035980 -0.268229 
0.025778 -0.293897 
0.021623 -0.302109 
0.024200 -0.272160 

CELL_DATA 128

SCALARS epsilon float 4
LOOKUP_TABLE default
-0.017128 0.050253 0.000000 0.002409
-0.023617 0.048992 0.000000 -0.000695
-0.039831 0.121048 0.000000 0.008035
-0.039371 0.049344 0.000000 0.008323
-0.031546 0.038291 0.000000 0.005486
-0.047625 0.114772 0.000000 0.001045
-0.028997 0.047244 0.000000 0.000620
-0.047541 0.046862 0.000000 0.009220
-0.100485 0.251523 0.000000 -0.002798
-0.071682 0.190461 0.000000 0.007487
-0.071941 0.186421 0.000000 -0.001161
-0.100021 0.190215 0.000000 0.011169
-0.046117 0.047827 0.000000 0.009608
-0.071640 0.119373 0.000000 0.010955
-0.070640 0.119719 0.000000 0.018081
-0.046597 0.119746 0.000000 0.004950
-0.031546 0.038291 0.000000 -0.005486
-0.028997 0.047244 0.000000 -0.000620
-0.047625 0.114772 0.000000 -0.001045
-0.047541 0.046862 0.000000 -0.009220
-0.017128 0.050253 0.000000 -0.002409
-0.039831 0.121048 0.000000 -0.008035
-0.023617 0.048992 0.000000 0.000695
-0.039371 0.049344 0.000000 -0.008323
-0.100485 0.251523 0.000000 0.002798
-0.071941 0.186421 0.000000 0.001161
-0.071682 0.190461 0.000000 -0.007487
-0.100021 0.190215 0.000000 -0.011169
-0.046117 0.047827 0.000000 -0.009608
-0.070640 0.119719 0.000000 -0.018081
-0.071640 0.119373 0.000000 -0.010955
-0.046597 0.119746 0.000000 -0.004950
-0.033416 0.065432 0.000000 -0.006442
-0.057215 0.136743 0.000000 -0.020943
-0.064235 0.121674 0.000000 -0.022263
-0.033385 0.124225 0.000000 -0.010024
-0.103857 0.241867 0.000000 -0.025157
-0.122112 0.244749 0.000000 -0.034490
-0.084008 0.194565 0.000000 -0.027406
-0.088769 0.249852 0.000000 -0.012479
-0.130387 0.257849 0.000000 -0.009121
-0.100491 0.189175 0.000000 -0.023667
-0.128879 0.252845 0.000000 -0.026039
-0.101787 0.257767 0.000000 -0.009426
-0.060401 0.191884 0.000000 -0.012810
-0.096217 0.254237 0.000000 -0.015621
-0.066163 0.190634 0.000000 -0.013368
-0.093529 0.187560 0.000000 -0.030803
-0.105764 0.265218 0.000000 -0.017836
-0.143515 0.309788 0.000000 0.000038
-0.124081 0.296143 0.000000 -0.019478
-0.142210 0.295800 0.000000 -0.022569
-0.116445 0.507955 0.000000 0.190587
-0.153869 0.406728 0.000000 0.064487
-0.164754 0.373998 0.000000 0.046230
-0.181612 0.418726 0.000000 0.040399
-0.130860 0.318372 0.000000 -0.000581
-0.129904 0.311657 0.000000 -0.011135
-0.145909 0.362628 0.000000 0.012888
-0.146189 0.318133 0.000000 -0.007264
-0.173009 0.351825 0.000000 -0.006716
-0.161440 0.363237 0.000000 0.006056
-0.152926 0.311423 0.000000 -0.015538
-0.152871 0.350321 0.000000 0.008286
0.013770 0.416864 0.000000 0.112360
0.004904 0.409916 0.000000 0.066797
-0.107055 0.397856 0.000000 0.042031
-0.090902 0.418882 0.000000 0.121472
0.000000 0.406981 0.000000 0.000000
-0.074185 0.392937 0.000000 -0.001337
0.001089 0.409306 0.000000 0.031466
-0.072719 0.409489 0.000000 0.032577
-0.143890 0.329159 0.000000 -0.000456
-0.135062 0.364506 0.000000 0.006678
-0.124809 0.367246 0.000000 -0.001975
-0.143782 0.364434 0.000000 0.008427
-0.077793 0.410017 0.000000 0.072295
-0.124001 0.394203 0.000000 0.021364
-0.132316 0.397476 0.000000 0.045176
-0.083112 0.394043 0.000000 0.021982
0.000000 0.406981 0.000000 0.000000
0.001089 0.409306 0.000000 -0.031466
-0.074185 0.392937 0.000000 0.001337
-0.072719 0.409489 0.000000 -0.032577
0.013770 0.416864 0.000000 -0.112360
-0.107055 0.397856 0.000000 -0.042031
0.004904 0.409916 0.000000 -0.066797
-0.090902 0.418882 0.000000 -0.121472
-0.143890 0.329159 0.000000 0.000456
-0.124809 0.367246 0.000000 0.001975
-0.135062 0.364506 0.000000 -0.006678
-0.143782 0.364434 0.000000 -0.008427
-0.077793 0.410017 0.000000 -0.072295
-0.132316 0.397476 0.000000 -0.045176
-0.124001 0.394203 0.000000 -0.021364
-0.083112 0.394043 0.000000 -0.021982
-0.116445 0.507955 0.000000 -0.190587
-0.164754 0.373998 0.000000 -0.046230
-0.153869 0.406728 0.000000 -0.064487
-0.181612 0.418726 0.000000 -0.040399
-0.105764 0.265218 0.000000 0.017836
-0.124081 0.296143 0.000000 0.019478
-0.143515 0.309788 0.000000 -0.000038
-0.142210 0.295800 0.000000 0.022569
-0.130860 0.318372 0.000000 0.000581
-0.145909 0.362628 0.000000 -0.012888
-0.129904 0.311657 0.000000 0.011135
-0.146189 0.318133 0.000000 0.007264
-0.173009 0.351825 0.000000 0.006716
-0.152926 0.311423 0.000000 0.015538
-0.161440 0.363237 0.000000 -0.006056
-0.152871 0.350321 0.000000 -0.008286
-0.103857 0.241867 0.000000 0.025157
-0.084008 0.194565 0.000000 0.027406
-0.122112 0.244749 0.000000 0.034490
-0.088769 0.249852 0.000000 0.012479
-0.033416 0.065432 0.000000 0.006442
-0.064235 0.121674 0.000000 0.022263
-0.057215 0.136743 0.000000 0.020943
-0.033385 0.124225 0.000000 0.010024
-0.130387 0.257849 0.000000 0.009121
-0.128879 0.252845 0.000000 0.026039
-0.100491 0.189175 0.000000 0.023667
-0.101787 0.257767 0.000000 0.009426
-0.060401 0.191884 0.000000 0.012810
-0.066163 0.190634 0.000000 0.013368
-0.096217 0.254237 0.000000 0.015621
-0.093529 0.187560 0.000000 0.030803

SCALARS sigma float 4
LOOKUP_TABLE default
-0.006400 1.083808 0.295991 0.013726
-0.172408 1.002895 0.228156 -0.030906
0.040800 2.593026 0.723578 0.079919
-0.617873 0.841502 0.061436 0.105217
-0.471146 0.670003 0.054631 0.092957
-0.200298 2.385369 0.600294 0.018012
-0.319429 0.920705 0.165186 0.000755
-0.831664 0.720843 -0.030445 0.146326
-0.541729 4.904496 1.198562 -0.051341
-0.222913 3.873776 1.002984 0.080870
-0.256169 3.785027 0.969467 -0.020571
-1.047315 3.558115 0.689780 0.142829
-0.795508 0.752797 -0.011734 0.138940
-0.841358 2.236164 0.383188 0.157707
-0.832157 2.244598 0.388033 0.246250
-0.134286 2.509486 0.652528 0.055598
-0.471146 0.670003 0.054631 -0.092957
-0.319429 0.920705 0.165186 -0.000755
-0.200298 2.385369 0.600294 -0.018012
-0.831664 0.720843 -0.030445 -0.146326
-0.006400 1.083808 0.295991 -0.013726
0.040800 2.593026 0.723578 -0.079919
-0.172408 1.002895 0.228156 0.030906
-0.617873 0.841502 0.061436 -0.105217
-0.541729 4.904496 1.198562 0.051341
-0.256169 3.785027 0.969467 0.020571
-0.222913 3.873776 1.002984 -0.080870
-1.047315 3.558115 0.689780 -0.142829
-0.795508 0.752797 -0.011734 -0.138940
-0.832157 2.244598 0.388033 -0.246250
-0.841358 2.236164 0.383188 -0.157707
-0.134286 2.509486 0.652528 -0.055598
-0.339587 1.267867 0.255022 -0.054512
-0.412372 2.704324 0.629657 -0.212352
-0.675021 2.334164 0.455809 -0.281580
0.202610 2.698319 0.796958 -0.084705
-0.829842 4.589632 1.032909 -0.218046
-1.317040 4.483328 0.869859 -0.423498
-0.688818 3.736590 0.837300 -0.258574
-0.291208 4.933500 1.275355 -0.035075
-1.400127 4.694473 0.905040 -0.088102
-1.098301 3.517767 0.664688 -0.306635
-1.418196 4.596929 0.873278 -0.333638
-0.537965 5.020022 1.231334 -0.099942
0.027160 3.959199 1.095154 -0.073060
-0.426464 4.991924 1.254247 -0.149482
-0.092765 3.918457 1.051014 -0.132387
-0.955427 3.534230 0.708462 -0.375896
-0.664667 5.084055 1.214118 -0.113380
-1.383314 5.639770 1.169356 0.028181
-0.917998 5.571173 1.278345 -0.212179
-1.480610 5.353262 1.063915 -0.265806
-0.637949 9.202752 2.352968 1.933200
-1.153110 7.398617 1.715799 0.725425
-1.713797 6.620446 1.347980 0.445442
-2.009016 7.215064 1.430233 0.193277
-0.924731 5.965064 1.384707 0.026615
-0.952980 5.836595 1.341652 -0.128645
-1.055711 6.688716 1.547529 0.153205
-1.402052 5.781391 1.203115 -0.100842
-2.008751 6.126158 1.131156 -0.214430
-1.545635 6.510298 1.363918 0.014776
-1.673131 5.559763 1.067756 -0.211708
-1.365833 6.358549 1.371625 0.092543
3.541524 9.349625 3.541524 1.360783
3.490117 9.213909 3.490117 0.812058
0.333502 7.814702 2.238518 0.489242
0.531452 8.242473 2.410419 1.444516
3.468342 9.156423 3.468342 0.000000
1.326565 8.108369 2.592015 -0.023762
3.485591 9.201960 3.485591 0.382657
1.455646 8.436043 2.717497 0.388778
-1.242643 6.036084 1.316879 -0.008855
-0.699400 6.855846 1.691331 0.069101
-0.361165 7.031085 1.832396 -0.037385
-0.971028 6.751928 1.588159 0.102059
1.183201 8.341768 2.616750 0.876846
-0.151906 7.569654 2.037843 0.249225
-0.440133 7.515738 1.943848 0.538873
1.061993 8.026926 2.496956 0.267597
3.468342 9.156423 3.468342 0.000000
3.485591 9.201960 3.485591 -0.382657
1.326565 8.108369 2.592015 0.023762
1.455646 8.436043 2.717497 -0.388778
3.541524 9.349625 3.541524 -1.360783
0.333502 7.814702 2.238518 -0.489242
3.490117 9.213909 3.490117 -0.812058
0.531452 8.242473 2.410419 -1.444516
-1.242643 6.036084 1.316879 0.008855
-0.361165 7.031085 1.832396 0.037385
-0.699400 6.855846 1.691331 -0.069101
-0.971028 6.751928 1.588159 -0.102059
1.183201 8.341768 2.616750 -0.876846
-0.440133 7.515738 1.943848 -0.538873
-0.151906 7.569654 2.037843 -0.249225
1.061993 8.026926 2.496956 -0.267597
-0.637949 9.202752 2.352968 -1.933200
-1.713797 6.620446 1.347980 -0.445442
-1.153110 7.398617 1.715799 -0.725425
-2.009016 7.215064 1.430233 -0.193277
-0.664667 5.084055 1.214118 0.113380
-0.917998 5.571173 1.278345 0.212179
-1.383314 5.639770 1.169356 -0.028181
-1.480610 5.353262 1.063915 0.265806
-0.924731 5.965064 1.384707 -0.026615
-1.055711 6.688716 1.547529 -0.153205
-0.952980 5.836595 1.341652 0.128645
-1.402052 5.781391 1.203115 0.100842
-2.008751 6.126158 1.131156 0.214430
-1.673131 5.559763 1.067756 0.211708
-1.545635 6.510298 1.363918 -0.014776
-1.365833 6.358549 1.371625 -0.092543
-0.829842 4.589632 1.032909 0.218046
-0.688818 3.736590 0.837300 0.258574
-1.317040 4.483328 0.869859 0.423498
-0.291208 4.933500 1.275355 0.035075
-0.339587 1.267867 0.255022 0.054512
-0.675021 2.334164 0.455809 0.281580
-0.412372 2.704324 0.629657 0.212352
0.202610 2.698319 0.796958 0.084705
-1.400127 4.694473 0.905040 0.088102
-1.418196 4.596929 0.873278 0.333638
-1.098301 3.517767 0.664688 0.306635
-0.537965 5.020022 1.231334 0.099942
0.027160 3.959199 1.095154 0.073060
-0.092765 3.918457 1.051014 0.132387
-0.426464 4.991924 1.254247 0.149482
-0.955427 3.534230 0.708462 0.375896

