# vtk DataFile Version 2.0
Unstructured Grid Example
ASCII
DATASET UNSTRUCTURED_GRID

POINTS 4225 float
0.005113 -0.303553 0.000000 
0.994887 -0.303553 0.000000 
1.000000 1.000000 0.000000 
0.000000 1.000000 0.000000 
0.500000 -0.327434 0.000000 
0.938142 0.272414 0.000000 
0.500000 1.000000 0.000000 
0.061858 0.272414 0.000000 
0.500000 0.261436 0.000000 
0.254211 -0.322568 0.000000 
0.500000 -0.054820 0.000000 
0.268122 -0.051080 0.000000 
0.745789 -0.322568 0.000000 
0.731878 -0.051080 0.000000 
0.966138 -0.033264 0.000000 
0.717884 0.262248 0.000000 
0.926765 0.608326 0.000000 
0.717334 0.617077 0.000000 
0.750000 1.000000 0.000000 
0.500000 0.618375 0.000000 
0.250000 1.000000 0.000000 
0.282666 0.617077 0.000000 
0.073235 0.608326 0.000000 
0.282116 0.262248 0.000000 
0.033862 -0.033264 0.000000 
0.129915 -0.315169 0.000000 
0.260628 -0.191984 0.000000 
0.140119 -0.184963 0.000000 
0.500000 -0.196467 0.000000 
0.380502 -0.195461 0.000000 
0.377473 -0.326375 0.000000 
0.388009 0.098355 0.000000 
0.384242 -0.053995 0.000000 
0.500000 0.097843 0.000000 
0.622527 -0.326375 0.000000 
0.619498 -0.195461 0.000000 
0.859881 -0.184963 0.000000 
0.739372 -0.191984 0.000000 
0.870085 -0.315169 0.000000 
0.615758 -0.053995 0.000000 
0.611991 0.098355 0.000000 
0.980935 -0.173189 0.000000 
0.848673 -0.044808 0.000000 
0.827373 0.264734 0.000000 
0.837370 0.105123 0.000000 
0.951395 0.115474 0.000000 
0.724310 0.100299 0.000000 
0.608907 0.261618 0.000000 
0.928546 0.436697 0.000000 
0.821034 0.434143 0.000000 
0.838951 0.804474 0.000000 
0.822499 0.613881 0.000000 
0.940661 0.788811 0.000000 
0.714570 0.434705 0.000000 
0.607593 0.435328 0.000000 
0.875000 1.000000 0.000000 
0.729393 0.807121 0.000000 
0.500000 0.807442 0.000000 
0.615469 0.807424 0.000000 
0.625000 1.000000 0.000000 
0.609436 0.618130 0.000000 
0.500000 0.435543 0.000000 
0.375000 1.000000 0.000000 
0.384531 0.807424 0.000000 
0.161049 0.804474 0.000000 
0.270607 0.807121 0.000000 
0.125000 1.000000 0.000000 
0.390564 0.618130 0.000000 
0.392407 0.435328 0.000000 
0.059339 0.788811 0.000000 
0.177501 0.613881 0.000000 
0.172627 0.264734 0.000000 
0.178966 0.434143 0.000000 
0.071454 0.436697 0.000000 
0.285430 0.434705 0.000000 
0.391093 0.261618 0.000000 
0.048605 0.115474 0.000000 
0.162630 0.105123 0.000000 
0.151327 -0.044808 0.000000 
0.019065 -0.173189 0.000000 
0.275690 0.100299 0.000000 
0.067500 -0.309842 0.000000 
0.134854 -0.251327 0.000000 
0.073431 -0.246043 0.000000 
0.257211 -0.258558 0.000000 
0.196124 -0.255464 0.000000 
0.192185 -0.319383 0.000000 
0.205063 -0.120001 0.000000 
0.200459 -0.188998 0.000000 
0.264305 -0.122832 0.000000 
0.500000 -0.263255 0.000000 
0.439452 -0.263010 0.000000 
0.438792 -0.327227 0.000000 
0.441187 -0.126782 0.000000 
0.440274 -0.196226 0.000000 
0.500000 -0.127007 0.000000 
0.315966 -0.324856 0.000000 
0.378844 -0.262204 0.000000 
0.318111 -0.260758 0.000000 
0.444855 0.178393 0.000000 
0.444022 0.097967 0.000000 
0.500000 0.178308 0.000000 
0.326250 -0.052860 0.000000 
0.386161 0.020809 0.000000 
0.329131 0.021762 0.000000 
0.500000 0.020127 0.000000 
0.443102 0.020292 0.000000 
0.442143 -0.054621 0.000000 
0.320634 -0.194088 0.000000 
0.382330 -0.126074 0.000000 
0.323384 -0.124801 0.000000 
0.561208 -0.327227 0.000000 
0.560548 -0.263010 0.000000 
0.681889 -0.260758 0.000000 
0.621156 -0.262204 0.000000 
0.684034 -0.324856 0.000000 
0.559726 -0.196226 0.000000 
0.558813 -0.126782 0.000000 
0.926569 -0.246043 0.000000 
0.865146 -0.251327 0.000000 
0.932500 -0.309842 0.000000 
0.735695 -0.122832 0.000000 
0.799541 -0.188998 0.000000 
0.794937 -0.120001 0.000000 
0.807815 -0.319383 0.000000 
0.803876 -0.255464 0.000000 
0.742789 -0.258558 0.000000 
0.555978 0.097967 0.000000 
0.555145 0.178393 0.000000 
0.557857 -0.054621 0.000000 
0.556898 0.020292 0.000000 
0.670869 0.021762 0.000000 
0.613839 0.020809 0.000000 
0.673750 -0.052860 0.000000 
0.679366 -0.194088 0.000000 
0.676616 -0.124801 0.000000 
0.617670 -0.126074 0.000000 
0.988068 -0.239612 0.000000 
0.920372 -0.179734 0.000000 
0.907347 -0.039835 0.000000 
0.913933 -0.110977 0.000000 
0.973595 -0.104373 0.000000 
0.854356 -0.116116 0.000000 
0.790179 -0.048470 0.000000 
0.882557 0.267598 0.000000 
0.888131 0.187395 0.000000 
0.944459 0.192944 0.000000 
0.776354 0.181382 0.000000 
0.832095 0.183719 0.000000 
0.772518 0.263112 0.000000 
0.958686 0.040046 0.000000 
0.894271 0.109396 0.000000 
0.900741 0.033639 0.000000 
0.610308 0.178636 0.000000 
0.554453 0.261528 0.000000 
0.728038 0.023292 0.000000 
0.668084 0.099084 0.000000 
0.663371 0.261817 0.000000 
0.665529 0.179108 0.000000 
0.720856 0.179951 0.000000 
0.842959 0.028944 0.000000 
0.780723 0.102215 0.000000 
0.785392 0.025599 0.000000 
0.932659 0.353626 0.000000 
0.877865 0.350002 0.000000 
0.873088 0.521606 0.000000 
0.874517 0.434639 0.000000 
0.926326 0.521577 0.000000 
0.823541 0.348192 0.000000 
0.769536 0.347422 0.000000 
0.909965 0.899452 0.000000 
0.890515 0.799473 0.000000 
0.959127 0.885233 0.000000 
0.770272 0.615863 0.000000 
0.828269 0.707872 0.000000 
0.775810 0.710237 0.000000 
0.930966 0.697185 0.000000 
0.879589 0.703517 0.000000 
0.874386 0.611105 0.000000 
0.607946 0.347225 0.000000 
0.553989 0.347276 0.000000 
0.715679 0.347180 0.000000 
0.661838 0.347167 0.000000 
0.661694 0.525347 0.000000 
0.661180 0.435063 0.000000 
0.714970 0.524732 0.000000 
0.820429 0.522668 0.000000 
0.767838 0.523825 0.000000 
0.767804 0.434327 0.000000 
0.937500 1.000000 0.000000 
0.855227 0.902602 0.000000 
0.738988 0.903528 0.000000 
0.797708 0.903363 0.000000 
0.812500 1.000000 0.000000 
0.785005 0.806409 0.000000 
0.722078 0.711394 0.000000 
0.500000 0.903423 0.000000 
0.560013 0.903432 0.000000 
0.562500 1.000000 0.000000 
0.556061 0.712274 0.000000 
0.557820 0.807434 0.000000 
0.500000 0.712312 0.000000 
0.687500 1.000000 0.000000 
0.619929 0.903471 0.000000 
0.679639 0.903520 0.000000 
0.553840 0.435485 0.000000 
0.500000 0.347292 0.000000 
0.663673 0.617763 0.000000 
0.608032 0.525725 0.000000 
0.500000 0.526002 0.000000 
0.554089 0.525928 0.000000 
0.554814 0.618310 0.000000 
0.672748 0.807361 0.000000 
0.611917 0.712172 0.000000 
0.667345 0.711932 0.000000 
0.437500 1.000000 0.000000 
0.439987 0.903432 0.000000 
0.320361 0.903520 0.000000 
0.380071 0.903471 0.000000 
0.312500 1.000000 0.000000 
0.442180 0.807434 0.000000 
0.443939 0.712274 0.000000 
0.090035 0.899452 0.000000 
0.144773 0.902602 0.000000 
0.062500 1.000000 0.000000 
0.277922 0.711394 0.000000 
0.214995 0.806409 0.000000 
0.224190 0.710237 0.000000 
0.187500 1.000000 0.000000 
0.202292 0.903363 0.000000 
0.261012 0.903528 0.000000 
0.446160 0.435485 0.000000 
0.446011 0.347276 0.000000 
0.445186 0.618310 0.000000 
0.445911 0.525928 0.000000 
0.338306 0.525347 0.000000 
0.391968 0.525725 0.000000 
0.336327 0.617763 0.000000 
0.327252 0.807361 0.000000 
0.332655 0.711932 0.000000 
0.388083 0.712172 0.000000 
0.040873 0.885233 0.000000 
0.109485 0.799473 0.000000 
0.125614 0.611105 0.000000 
0.120411 0.703517 0.000000 
0.069034 0.697185 0.000000 
0.171731 0.707872 0.000000 
0.229728 0.615863 0.000000 
0.117443 0.267598 0.000000 
0.122135 0.350002 0.000000 
0.067341 0.353626 0.000000 
0.230464 0.347422 0.000000 
0.176459 0.348192 0.000000 
0.227482 0.263112 0.000000 
0.073674 0.521577 0.000000 
0.125483 0.434639 0.000000 
0.126912 0.521606 0.000000 
0.392054 0.347225 0.000000 
0.445547 0.261528 0.000000 
0.285030 0.524732 0.000000 
0.338820 0.435063 0.000000 
0.336629 0.261817 0.000000 
0.338162 0.347167 0.000000 
0.284321 0.347180 0.000000 
0.179571 0.522668 0.000000 
0.232196 0.434327 0.000000 
0.232162 0.523825 0.000000 
0.055541 0.192944 0.000000 
0.111869 0.187395 0.000000 
0.099259 0.033639 0.000000 
0.105729 0.109396 0.000000 
0.041314 0.040046 0.000000 
0.167905 0.183719 0.000000 
0.223646 0.181382 0.000000 
0.079628 -0.179734 0.000000 
0.011932 -0.239612 0.000000 
0.209821 -0.048470 0.000000 
0.145644 -0.116116 0.000000 
0.026405 -0.104373 0.000000 
0.086067 -0.110977 0.000000 
0.092653 -0.039835 0.000000 
0.389692 0.178636 0.000000 
0.279144 0.179951 0.000000 
0.334471 0.179108 0.000000 
0.331916 0.099084 0.000000 
0.271962 0.023292 0.000000 
0.157041 0.028944 0.000000 
0.214608 0.025599 0.000000 
0.219277 0.102215 0.000000 
0.036293 -0.306778 0.000000 
0.070439 -0.278258 0.000000 
0.039451 -0.275192 0.000000 
0.132342 -0.283568 0.000000 
0.101405 -0.281056 0.000000 
0.098716 -0.312645 0.000000 
0.106988 -0.215979 0.000000 
0.104159 -0.248831 0.000000 
0.137449 -0.218457 0.000000 
0.255647 -0.290883 0.000000 
0.224898 -0.289435 0.000000 
0.223232 -0.321096 0.000000 
0.228587 -0.224191 0.000000 
0.226691 -0.257133 0.000000 
0.258879 -0.225593 0.000000 
0.161076 -0.317412 0.000000 
0.194095 -0.287745 0.000000 
0.163241 -0.285794 0.000000 
0.236840 -0.086035 0.000000 
0.234706 -0.121535 0.000000 
0.266203 -0.087282 0.000000 
0.170310 -0.187121 0.000000 
0.202735 -0.154815 0.000000 
0.172816 -0.152974 0.000000 
0.262442 -0.157732 0.000000 
0.232610 -0.156394 0.000000 
0.230565 -0.190612 0.000000 
0.165511 -0.253534 0.000000 
0.198251 -0.222547 0.000000 
0.167871 -0.220642 0.000000 
0.500000 -0.295667 0.000000 
0.469550 -0.295621 0.000000 
0.469406 -0.327419 0.000000 
0.469927 -0.230132 0.000000 
0.469728 -0.263198 0.000000 
0.500000 -0.230191 0.000000 
0.408151 -0.326880 0.000000 
0.439095 -0.295432 0.000000 
0.408619 -0.295096 0.000000 
0.470834 -0.091204 0.000000 
0.470596 -0.126952 0.000000 
0.500000 -0.091257 0.000000 
0.410398 -0.195913 0.000000 
0.440723 -0.161841 0.000000 
0.411071 -0.161538 0.000000 
0.500000 -0.162075 0.000000 
0.470364 -0.162018 0.000000 
0.470140 -0.196408 0.000000 
0.285122 -0.323816 0.000000 
0.316980 -0.293125 0.000000 
0.286340 -0.292107 0.000000 
0.378113 -0.294606 0.000000 
0.347569 -0.293953 0.000000 
0.346747 -0.325704 0.000000 
0.349507 -0.228538 0.000000 
0.348496 -0.261567 0.000000 
0.379646 -0.229159 0.000000 
0.439848 -0.229946 0.000000 
0.409757 -0.229625 0.000000 
[...]
POINT_DATA 4225

SCALARS u_h float 2
LOOKUP_TABLE default
0.005113 -0.303553 
-0.005113 -0.303553 
0.000000 0.000000 
0.000000 0.000000 
0.000000 -0.327434 
-0.061858 -0.227586 
0.000000 0.000000 
0.061858 -0.227586 
0.000000 -0.238564 
0.004211 -0.322568 
0.000000 -0.304820 
0.018122 -0.301080 
-0.004211 -0.322568 
-0.018122 -0.301080 
-0.033862 -0.283264 
-0.032116 -0.237752 
-0.073235 -0.141674 
-0.032666 -0.132923 
0.000000 0.000000 
0.000000 -0.131625 
0.000000 0.000000 
0.032666 -0.132923 
0.073235 -0.141674 
0.032116 -0.237752 
0.033862 -0.283264 
0.004915 -0.315169 
0.010628 -0.316984 
0.015119 -0.309963 
0.000000 -0.321467 
0.005502 -0.320461 
0.002473 -0.326375 
0.013009 -0.276645 
0.009242 -0.303995 
0.000000 -0.277157 
-0.002473 -0.326375 
-0.005502 -0.320461 
-0.015119 -0.309963 
-0.010628 -0.316984 
-0.004915 -0.315169 
-0.009242 -0.303995 
-0.013009 -0.276645 
-0.019065 -0.298189 
-0.026327 -0.294808 
-0.047627 -0.235266 
-0.037630 -0.269877 
-0.048605 -0.259526 
-0.025690 -0.274701 
-0.016093 -0.238382 
-0.071454 -0.188303 
-0.053966 -0.190857 
-0.036049 -0.070526 
-0.052501 -0.136119 
-0.059339 -0.086189 
-0.035430 -0.190295 
-0.017407 -0.189672 
0.000000 0.000000 
-0.020607 -0.067879 
0.000000 -0.067558 
-0.009531 -0.067576 
0.000000 0.000000 
-0.015564 -0.131870 
0.000000 -0.189457 
0.000000 0.000000 
0.009531 -0.067576 
0.036049 -0.070526 
0.020607 -0.067879 
0.000000 0.000000 
0.015564 -0.131870 
0.017407 -0.189672 
0.059339 -0.086189 
0.052501 -0.136119 
0.047627 -0.235266 
0.053966 -0.190857 
0.071454 -0.188303 
0.035430 -0.190295 
0.016093 -0.238382 
0.048605 -0.259526 
0.037630 -0.269877 
0.026327 -0.294808 
0.019065 -0.298189 
0.025690 -0.274701 
0.005000 -0.309842 
0.009854 -0.313827 
0.010931 -0.308543 
0.007211 -0.321058 
0.008624 -0.317964 
0.004685 -0.319383 
0.017563 -0.307501 
0.012959 -0.313998 
0.014305 -0.310332 
0.000000 -0.325755 
0.001952 -0.325510 
0.001292 -0.327227 
0.003687 -0.314282 
0.002774 -0.321226 
0.000000 -0.314507 
0.003466 -0.324856 
0.003844 -0.324704 
0.005611 -0.323258 
0.007355 -0.259107 
0.006522 -0.277033 
0.000000 -0.259192 
0.013750 -0.302860 
0.011161 -0.291691 
0.016631 -0.290738 
0.000000 -0.292373 
0.005602 -0.292208 
0.004643 -0.304621 
0.008134 -0.319088 
0.007330 -0.313574 
0.010884 -0.312301 
-0.001292 -0.327227 
-0.001952 -0.325510 
-0.005611 -0.323258 
-0.003844 -0.324704 
-0.003466 -0.324856 
-0.002774 -0.321226 
-0.003687 -0.314282 
-0.010931 -0.308543 
-0.009854 -0.313827 
-0.005000 -0.309842 
-0.014305 -0.310332 
-0.012959 -0.313998 
-0.017563 -0.307501 
-0.004685 -0.319383 
-0.008624 -0.317964 
-0.007211 -0.321058 
-0.006522 -0.277033 
-0.007355 -0.259107 
-0.004643 -0.304621 
-0.005602 -0.292208 
-0.016631 -0.290738 
-0.011161 -0.291691 
-0.013750 -0.302860 
-0.008134 -0.319088 
-0.010884 -0.312301 
-0.007330 -0.313574 
-0.011932 -0.302112 
-0.017128 -0.304734 
-0.030153 -0.289835 
-0.023567 -0.298477 
-0.026405 -0.291873 
-0.020644 -0.303616 
-0.022321 -0.298470 
-0.054943 -0.232402 
-0.049369 -0.250105 
-0.055541 -0.244556 
-0.036146 -0.256118 
-0.042905 -0.253781 
-0.039982 -0.236888 
-0.041314 -0.272454 
-0.043229 -0.265604 
-0.036759 -0.278861 
-0.014692 -0.258864 
-0.008047 -0.238472 
-0.021962 -0.289208 
-0.019416 -0.275916 
-0.024129 -0.238183 
-0.021971 -0.258392 
-0.029144 -0.257549 
-0.032041 -0.283556 
-0.031777 -0.272785 
-0.027108 -0.286901 
-0.067341 -0.208874 
-0.059635 -0.212498 
-0.064412 -0.165894 
-0.062983 -0.190361 
-0.073674 -0.165923 
-0.051459 -0.214308 
-0.042964 -0.215078 
-0.027535 -0.038048 
-0.046985 -0.075527 
-0.040873 -0.052267 
-0.042228 -0.134137 
-0.046731 -0.104628 
-0.036690 -0.102263 
-0.069034 -0.115315 
-0.057911 -0.108983 
-0.063114 -0.138895 
-0.017054 -0.215275 
-0.008511 -0.215224 
-0.034321 -0.215320 
-0.025662 -0.215333 
-0.025806 -0.162153 
-0.026320 -0.189937 
-0.035030 -0.162768 
-0.054571 -0.164832 
-0.044662 -0.163675 
-0.044696 -0.190673 
0.000000 0.000000 
-0.019773 -0.034898 
-0.011012 -0.033972 
-0.014792 -0.034137 
0.000000 0.000000 
-0.027495 -0.068591 
-0.027922 -0.101106 
0.000000 -0.034077 
-0.002487 -0.034068 
0.000000 0.000000 
-0.006439 -0.100226 
-0.004680 -0.067566 
0.000000 -0.100188 
0.000000 0.000000 
-0.005071 -0.034029 
-0.007861 -0.033980 
-0.008660 -0.189515 
0.000000 -0.215208 
-0.023827 -0.132237 
-0.016968 -0.161775 
0.000000 -0.161498 
-0.008411 -0.161572 
-0.007686 -0.131690 
-0.014752 -0.067639 
-0.013083 -0.100328 
-0.020155 -0.100568 
0.000000 0.000000 
0.002487 -0.034068 
0.007861 -0.033980 
0.005071 -0.034029 
0.000000 0.000000 
0.004680 -0.067566 
0.006439 -0.100226 
0.027535 -0.038048 
0.019773 -0.034898 
0.000000 0.000000 
0.027922 -0.101106 
0.027495 -0.068591 
0.036690 -0.102263 
0.000000 0.000000 
0.014792 -0.034137 
0.011012 -0.033972 
0.008660 -0.189515 
0.008511 -0.215224 
0.007686 -0.131690 
0.008411 -0.161572 
0.025806 -0.162153 
0.016968 -0.161775 
0.023827 -0.132237 
0.014752 -0.067639 
0.020155 -0.100568 
0.013083 -0.100328 
0.040873 -0.052267 
0.046985 -0.075527 
0.063114 -0.138895 
0.057911 -0.108983 
0.069034 -0.115315 
0.046731 -0.104628 
0.042228 -0.134137 
0.054943 -0.232402 
0.059635 -0.212498 
0.067341 -0.208874 
0.042964 -0.215078 
0.051459 -0.214308 
0.039982 -0.236888 
0.073674 -0.165923 
0.062983 -0.190361 
0.064412 -0.165894 
0.017054 -0.215275 
0.008047 -0.238472 
0.035030 -0.162768 
0.026320 -0.189937 
0.024129 -0.238183 
0.025662 -0.215333 
0.034321 -0.215320 
0.054571 -0.164832 
0.044696 -0.190673 
0.044662 -0.163675 
0.055541 -0.244556 
0.049369 -0.250105 
0.036759 -0.278861 
0.043229 -0.265604 
0.041314 -0.272454 
0.042905 -0.253781 
0.036146 -0.256118 
0.017128 -0.304734 
0.011932 -0.302112 
0.022321 -0.298470 
0.020644 -0.303616 
0.026405 -0.291873 
0.023567 -0.298477 
0.030153 -0.289835 
0.014692 -0.258864 
0.029144 -0.257549 
0.021971 -0.258392 
0.019416 -0.275916 
0.021962 -0.289208 
0.032041 -0.283556 
0.027108 -0.286901 
0.031777 -0.272785 
0.005043 -0.306778 
0.007939 -0.309508 
0.008201 -0.306442 
0.007342 -0.314818 
0.007655 -0.312306 
0.004966 -0.312645 
0.013238 -0.309729 
0.010409 -0.311331 
0.012449 -0.312207 
0.005647 -0.322133 
0.006148 -0.320685 
0.004482 -0.321096 
0.009837 -0.317941 
0.007941 -0.319633 
0.008879 -0.319343 
0.004826 -0.317412 
0.006595 -0.318995 
0.006991 -0.317044 
0.018090 -0.304785 
0.015956 -0.309035 
0.016203 -0.306032 
0.014060 -0.312121 
0.015235 -0.311065 
0.016566 -0.309224 
0.012442 -0.313982 
0.013860 -0.312644 
0.011815 -0.315612 
0.009261 -0.316034 
0.010751 -0.316297 
0.011621 -0.314392 
0.000000 -0.326917 
0.000800 -0.326871 
0.000656 -0.327419 
0.001177 -0.323882 
0.000978 -0.325698 
0.000000 -0.323941 
0.001901 -0.326880 
0.001595 -0.326682 
0.002369 -0.326346 
0.002084 -0.309954 
0.001846 -0.314452 
0.000000 -0.310007 
0.004148 -0.320913 
0.003223 -0.318091 
0.004821 -0.317788 
0.000000 -0.318325 
0.001614 -0.318268 
0.001390 -0.321408 
0.003872 -0.323816 
0.004480 -0.324375 
0.005090 -0.323357 
0.003113 -0.325856 
0.003819 -0.325203 
0.002997 -0.325704 
0.005757 -0.322288 
0.004746 -0.324067 
0.004646 -0.322909 
0.002348 -0.323696 
0.003507 -0.323375 
0.002910 -0.325182 
0.003858 -0.249171 
0.003677 -0.259168 
0.000000 -0.249200 
0.009772 -0.276875 
0.006952 -0.268412 
0.010421 -0.268283 
0.000000 -0.268515 
0.003477 -0.268488 
0.003263 -0.277125 
0.015956 -0.302061 
0.015195 -0.297136 
0.017641 -0.296392 
0.010205 -0.298185 
0.012715 -0.297727 
0.011510 -0.303499 
0.015085 -0.284144 
0.013910 -0.291276 
0.012099 -0.284511 
0.000000 -0.298942 
0.002565 -0.298897 
0.002324 -0.304770 
0.003037 -0.285074 
0.002803 -0.292332 
0.000000 -0.285110 
0.006951 -0.304365 
0.005125 -0.298760 
0.007673 -0.298525 
0.009092 -0.284781 
0.008390 -0.291997 
0.006070 -0.284966 
0.006434 -0.322261 
0.006833 -0.319857 
0.006836 -0.321497 
0.007878 -0.320521 
0.009400 -0.318136 
0.004162 -0.309794 
0.008281 -0.309124 
0.006230 -0.309520 
0.005517 -0.313993 
0.006401 -0.317352 
0.014275 -0.307067 
0.010983 -0.315101 
0.012613 -0.311413 
0.012309 -0.307914 
0.010309 -0.308594 
0.007959 -0.316768 
0.009121 -0.313015 
0.009488 -0.316024 
-0.000656 -0.327419 
-0.000800 -0.326871 
-0.002369 -0.326346 
-0.001595 -0.326682 
-0.001901 -0.326880 
-0.000978 -0.325698 
-0.001177 -0.323882 
-0.005090 -0.323357 
-0.004480 -0.324375 
-0.003872 -0.323816 
-0.004646 -0.322909 
-0.004746 -0.324067 
-0.005757 -0.322288 
-0.002997 -0.325704 
-0.003819 -0.325203 
-0.003113 -0.325856 
-0.001846 -0.314452 
-0.002084 -0.309954 
-0.001390 -0.321408 
-0.001614 -0.318268 
-0.004821 -0.317788 
-0.003223 -0.318091 
-0.004148 -0.320913 
-0.002910 -0.325182 
-0.003507 -0.323375 
-0.002348 -0.323696 
-0.008201 -0.306442 
-0.007939 -0.309508 
-0.005043 -0.306778 
-0.012449 -0.312207 
-0.010409 -0.311331 
-0.013238 -0.309729 
-0.004966 -0.312645 
-0.007655 -0.312306 
-0.007342 -0.314818 
-0.016203 -0.306032 
-0.015956 -0.309035 
-0.018090 -0.304785 
-0.011815 -0.315612 
-0.013860 -0.312644 
-0.012442 -0.313982 
-0.016566 -0.309224 
-0.015235 -0.311065 
-0.014060 -0.312121 
-0.004482 -0.321096 
-0.006148 -0.320685 
-0.005647 -0.322133 
-0.006991 -0.317044 
-0.006595 -0.318995 
-0.004826 -0.317412 
-0.008879 -0.319343 
-0.007941 -0.319633 
-0.009837 -0.317941 
-0.011621 -0.314392 
-0.010751 -0.316297 
-0.009261 -0.316034 
-0.003677 -0.259168 
-0.003858 -0.249171 
-0.003263 -0.277125 
-0.003477 -0.268488 
-0.010421 -0.268283 
-0.006952 -0.268412 
-0.009772 -0.276875 
-0.002324 -0.304770 
-0.002565 -0.298897 
-0.007673 -0.298525 
-0.005125 -0.298760 
-0.006951 -0.304365 
-0.002803 -0.292332 
-0.003037 -0.285074 
-0.017641 -0.296392 
-0.015195 -0.297136 
-0.015956 -0.302061 
-0.012099 -0.284511 
-0.013910 -0.291276 
-0.015085 -0.284144 
-0.011510 -0.303499 
-0.012715 -0.297727 
-0.010205 -0.298185 
-0.006070 -0.284966 
-0.008390 -0.291997 
-0.009092 -0.284781 
-0.006434 -0.322261 
-0.009400 -0.318136 
-0.007878 -0.320521 
-0.006836 -0.321497 
-0.006833 -0.319857 
-0.014275 -0.307067 
-0.010309 -0.308594 
-0.012309 -0.307914 
-0.012613 -0.311413 
-0.010983 -0.315101 
-0.004162 -0.309794 
-0.006401 -0.317352 
-0.005517 -0.313993 
-0.006230 -0.309520 
-0.008281 -0.309124 
-0.009488 -0.316024 
-0.009121 -0.313015 
-0.007959 -0.316768 
-0.008462 -0.303147 
-0.011431 -0.305468 
-0.018098 -0.301633 
-0.014732 -0.303860 
-0.015469 -0.300456 
-0.013995 -0.306949 
-0.016140 -0.307506 
-0.032016 -0.286768 
-0.028493 -0.291358 
-0.030125 -0.287849 
-0.025179 -0.297160 
-0.026849 -0.294451 
-0.028260 -0.292503 
-0.022714 -0.295323 
-0.024990 -0.295372 
-0.021521 -0.298800 
-0.019930 -0.303303 
-0.020245 -0.299892 
-0.017855 -0.307099 
-0.019126 -0.305703 
-0.024349 -0.296786 
-0.021725 -0.301556 
-0.023473 -0.299519 
-0.020323 -0.301907 
-0.022123 -0.301216 
-0.019105 -0.304667 
-0.058454 -0.230299 
-0.055558 -0.239204 
-0.058798 -0.236323 
-0.048840 -0.243374 
-0.052242 -0.241527 
-0.051332 -0.234027 
-0.052132 -0.252292 
-0.052487 -0.247600 
-0.049271 -0.255475 
-0.034450 -0.247484 
-0.038147 -0.246824 
-0.036070 -0.237391 
-0.040320 -0.262131 
-0.039560 -0.255087 
-0.037199 -0.263593 
-0.043839 -0.236198 
-0.041785 -0.245956 
-0.045353 -0.244826 
-0.037597 -0.278129 
-0.039052 -0.275896 
-0.035542 -0.281612 
-0.045941 -0.262820 
-0.042526 -0.269630 
-0.044991 -0.266250 
-0.037470 -0.274962 
-0.040022 -0.272516 
-0.040461 -0.267937 
-0.046175 -0.252142 
-0.043372 -0.260330 
-0.046354 -0.258132 
-0.007722 -0.249124 
-0.004024 -0.238503 
-0.013878 -0.268095 
-0.011028 -0.259008 
-0.012070 -0.238436 
-0.011582 -0.249056 
-0.015436 -0.248957 
-0.020047 -0.295472 
-0.019317 -0.290056 
-0.022573 -0.275381 
-0.020966 -0.283053 
-0.023849 -0.282285 
-0.018043 -0.283665 
-0.016226 -0.276331 
-0.028132 -0.238006 
-0.026923 -0.248350 
-0.030705 -0.247981 
-0.019281 -0.248817 
-0.023112 -0.248621 
-0.020114 -0.238302 
-0.027463 -0.266456 
-0.025575 -0.258028 
-0.024116 -0.267039 
-0.017317 -0.267837 
-0.020732 -0.267491 
-0.018341 -0.258664 
-0.033463 -0.284637 
-0.034862 -0.277019 
-0.034425 -0.281399 
-0.031348 -0.287248 
-0.029189 -0.289487 
-0.032671 -0.256924 
-0.028760 -0.273847 
-0.030764 -0.265712 
-0.034012 -0.264771 
-0.034735 -0.271477 
-0.022408 -0.294353 
-0.026980 -0.291393 
-0.024720 -0.293003 
-0.024560 -0.288166 
-0.026685 -0.281332 
-0.032194 -0.278738 
-0.029468 -0.280162 
-0.029602 -0.285377 
-0.064751 -0.218471 
-0.061146 -0.220889 
-0.065626 -0.200542 
-0.063554 -0.210971 
-0.069596 -0.198815 
-0.057428 -0.222727 
-0.053602 -0.224096 
-0.069121 -0.153558 
-0.069147 -0.166127 
-0.073846 -0.154042 
-0.058525 -0.190738 
-0.063981 -0.178428 
-0.059312 -0.178397 
-0.072842 -0.177340 
-0.068505 -0.178133 
-0.067302 -0.189600 
-0.041601 -0.226306 
-0.037483 -0.226643 
-0.049678 -0.225095 
-0.045672 -0.225809 
-0.048485 -0.203121 
-0.047240 -0.214785 
-0.052910 -0.202898 
-0.061508 -0.201713 
-0.057261 -0.202460 
-0.055598 -0.213575 
-0.018119 -0.021227 
-0.033574 -0.042733 
-0.025983 -0.031178 
-0.041199 -0.072467 
-0.038526 -0.057258 
-0.033086 -0.054376 
-0.051530 -0.070085 
-0.044898 -0.062266 
-0.053210 -0.080079 
-0.037351 -0.133448 
-0.039890 -0.118469 
-0.035129 -0.117752 
-0.050153 -0.120721 
-0.044903 -0.119439 
-0.047287 -0.135020 
-0.037103 -0.086504 
-0.041543 -0.103246 
-0.042078 -0.087868 
-0.071693 -0.128784 
-0.066525 -0.126560 
-0.068299 -0.140387 
-0.059280 -0.096560 
-0.063603 -0.111992 
-0.065022 -0.101169 
-0.057807 -0.137429 
-0.061095 -0.124337 
-0.055585 -0.122356 
-0.047506 -0.089883 
-0.052223 -0.106517 
-0.053315 -0.092746 
-0.008314 -0.227167 
-0.004160 -0.227177 
-0.016639 -0.227150 
-0.012473 -0.227160 
-0.012963 -0.202711 
-0.012776 -0.215246 
-0.017318 -0.202775 
-0.033333 -0.226863 
-0.029164 -0.227002 
-0.030565 -0.203040 
-0.029988 -0.215343 
-0.035037 -0.203128 
-0.024987 -0.227083 
-0.020811 -0.227128 
-0.029502 -0.147735 
-0.030366 -0.162426 
-0.034122 -0.148118 
-0.021839 -0.189791 
-0.026229 -0.176330 
-0.021730 -0.176142 
-0.035447 -0.176835 
-0.030800 -0.176561 
-0.030851 -0.190107 
-0.021350 -0.215307 
-0.026118 -0.202945 
-0.021703 -0.202854 
-0.064166 -0.152730 
-0.053928 -0.150819 
-0.059071 -0.151770 
-0.059530 -0.165416 
-0.054549 -0.178173 
-0.038885 -0.148606 
-0.040163 -0.177151 
-0.039798 -0.163184 
-0.043788 -0.149216 
-0.048814 -0.149956 
-0.038651 -0.215242 
-0.049344 -0.190812 
-0.044015 -0.203200 
-0.039526 -0.203190 
-0.040050 -0.190491 
-0.049598 -0.164234 
-0.044936 -0.177497 
-0.049743 -0.177851 
0.000000 0.000000 
-0.014114 -0.018565 
-0.010029 -0.017235 
-0.011735 -0.017631 
0.000000 0.000000 
-0.023123 -0.035916 
-0.028577 -0.052775 
-0.005615 -0.016971 
-0.006519 -0.016965 
0.000000 0.000000 
-0.018645 -0.051110 
-0.012799 -0.034018 
-0.016052 -0.050965 
0.000000 0.000000 
-0.007525 -0.016986 
-0.008671 -0.017059 
-0.032160 -0.101578 
-0.030611 -0.117231 
-0.031514 -0.069326 
-0.032566 -0.085599 
-0.024581 -0.084625 
-0.028412 -0.085008 
-0.023889 -0.068146 
-0.017072 -0.034391 
-0.021525 -0.051384 
-0.024788 -0.051883 
0.000000 -0.017101 
-0.000632 -0.017100 
0.000000 0.000000 
-0.001806 -0.050908 
-0.001238 -0.034077 
0.000000 -0.050906 
0.000000 0.000000 
-0.001271 -0.017093 
-0.001921 -0.017080 
-0.003552 -0.116096 
-0.003207 -0.100202 
0.000000 -0.116079 
-0.007073 -0.067568 
-0.005620 -0.084022 
-0.008490 -0.084042 
0.000000 -0.084000 
-0.002798 -0.084009 
-0.002329 -0.067564 
0.000000 0.000000 
-0.004013 -0.017014 
-0.004785 -0.016990 
-0.002590 -0.017061 
-0.003284 -0.017039 
0.000000 0.000000 
-0.009382 -0.050869 
-0.006432 -0.034004 
-0.007398 -0.050879 
-0.003630 -0.050902 
-0.005488 -0.050891 
-0.003761 -0.034051 
-0.004255 -0.215213 
0.000000 -0.227189 
-0.013017 -0.189580 
-0.008630 -0.202665 
0.000000 -0.202623 
-0.004312 -0.202636 
-0.004324 -0.189474 
-0.028163 -0.132529 
-0.025017 -0.147440 
-0.016395 -0.147052 
-0.020654 -0.147217 
-0.019635 -0.132023 
-0.021344 -0.161938 
-0.017298 -0.175995 
0.000000 -0.146780 
-0.004045 -0.146802 
-0.003831 -0.131646 
-0.004288 -0.175758 
-0.004196 -0.161521 
0.000000 -0.175737 
-0.011589 -0.131762 
-0.008112 -0.146852 
-0.012222 -0.146933 
-0.012922 -0.175884 
-0.012662 -0.161655 
-0.008590 -0.175806 
-0.009378 -0.033966 
-0.012081 -0.067595 
-0.011465 -0.050871 
-0.013675 -0.050896 
-0.017579 -0.067725 
-0.007129 -0.116132 
-0.014461 -0.116277 
-0.010756 -0.116189 
-0.009722 -0.100266 
-0.011434 -0.084076 
-0.026315 -0.116858 
-0.021015 -0.084381 
-0.023933 -0.100784 
-0.022211 -0.116593 
-0.018269 -0.116407 
-0.014481 -0.084132 
-0.016550 -0.100423 
-0.017662 -0.084227 
0.000000 0.000000 
0.000632 -0.017100 
0.001921 -0.017080 
0.001271 -0.017093 
0.000000 0.000000 
0.001238 -0.034077 
0.001806 -0.050908 
0.004785 -0.016990 
0.004013 -0.017014 
0.000000 0.000000 
0.007398 -0.050879 
0.006432 -0.034004 
0.009382 -0.050869 
0.000000 0.000000 
0.003284 -0.017039 
0.002590 -0.017061 
0.003207 -0.100202 
0.003552 -0.116096 
0.002329 -0.067564 
0.002798 -0.084009 
0.008490 -0.084042 
0.005620 -0.084022 
0.007073 -0.067568 
0.003761 -0.034051 
0.005488 -0.050891 
0.003630 -0.050902 
0.018119 -0.021227 
0.014114 -0.018565 
0.000000 0.000000 
0.028577 -0.052775 
0.023123 -0.035916 
0.033086 -0.054376 
0.000000 0.000000 
0.011735 -0.017631 
0.010029 -0.017235 
0.030611 -0.117231 
0.032160 -0.101578 
0.035129 -0.117752 
0.023889 -0.068146 
0.028412 -0.085008 
0.024581 -0.084625 
0.037103 -0.086504 
0.032566 -0.085599 
0.031514 -0.069326 
0.000000 0.000000 
0.006519 -0.016965 
0.005615 -0.016971 
0.008671 -0.017059 
0.007525 -0.016986 
0.000000 0.000000 
0.016052 -0.050965 
0.012799 -0.034018 
0.018645 -0.051110 
0.024788 -0.051883 
0.021525 -0.051384 
0.017072 -0.034391 
0.004255 -0.215213 
0.004160 -0.227177 
0.004324 -0.189474 
0.004312 -0.202636 
0.012963 -0.202711 
0.008630 -0.202665 
0.013017 -0.189580 
0.003831 -0.131646 
0.004045 -0.146802 
0.012222 -0.146933 
0.008112 -0.146852 
0.011589 -0.131762 
0.004196 -0.161521 
0.004288 -0.175758 
0.029502 -0.147735 
0.025017 -0.147440 
0.028163 -0.132529 
0.017298 -0.175995 
0.021344 -0.161938 
0.021730 -0.176142 
0.019635 -0.132023 
0.020654 -0.147217 
0.016395 -0.147052 
0.008590 -0.175806 
0.012662 -0.161655 
0.012922 -0.175884 
0.009378 -0.033966 
0.017579 -0.067725 
0.013675 -0.050896 
0.011465 -0.050871 
0.012081 -0.067595 
0.026315 -0.116858 
0.018269 -0.116407 
0.022211 -0.116593 
0.023933 -0.100784 
0.021015 -0.084381 
0.007129 -0.116132 
0.011434 -0.084076 
0.009722 -0.100266 
0.010756 -0.116189 
0.014461 -0.116277 
0.017662 -0.084227 
0.016550 -0.100423 
0.014481 -0.084132 
0.025983 -0.031178 
0.033574 -0.042733 
0.053210 -0.080079 
0.044898 -0.062266 
0.051530 -0.070085 
0.038526 -0.057258 
0.041199 -0.072467 
0.068299 -0.140387 
0.066525 -0.126560 
0.071693 -0.128784 
0.055585 -0.122356 
0.061095 -0.124337 
0.057807 -0.137429 
0.065022 -0.101169 
0.063603 -0.111992 
0.059280 -0.096560 
0.039890 -0.118469 
0.037351 -0.133448 
0.042078 -0.087868 
0.041543 -0.103246 
0.047287 -0.135020 
0.044903 -0.119439 
0.050153 -0.120721 
0.053315 -0.092746 
0.052223 -0.106517 
0.047506 -0.089883 
0.058454 -0.230299 
0.061146 -0.220889 
0.064751 -0.218471 
0.053602 -0.224096 
0.057428 -0.222727 
0.051332 -0.234027 
0.069596 -0.198815 
0.063554 -0.210971 
0.065626 -0.200542 
0.037483 -0.226643 
0.041601 -0.226306 
0.036070 -0.237391 
0.052910 -0.202898 
0.047240 -0.214785 
0.048485 -0.203121 
0.043839 -0.236198 
0.045672 -0.225809 
0.049678 -0.225095 
0.073846 -0.154042 
0.069147 -0.166127 
0.069121 -0.153558 
0.067302 -0.189600 
0.068505 -0.178133 
0.072842 -0.177340 
0.059312 -0.178397 
0.063981 -0.178428 
0.058525 -0.190738 
0.055598 -0.213575 
0.057261 -0.202460 
0.061508 -0.201713 
0.008314 -0.227167 
0.004024 -0.238503 
0.017318 -0.202775 
0.012776 -0.215246 
0.012070 -0.238436 
0.012473 -0.227160 
0.016639 -0.227150 
0.034122 -0.148118 
0.030366 -0.162426 
0.030851 -0.190107 
0.030800 -0.176561 
0.035447 -0.176835 
0.026229 -0.176330 
0.021839 -0.189791 
0.028132 -0.238006 
0.029164 -0.227002 
0.033333 -0.226863 
0.020811 -0.227128 
0.024987 -0.227083 
0.020114 -0.238302 