# vtk DataFile Version 2.0
Unstructured Grid Example
ASCII
DATASET UNSTRUCTURED_GRID

POINTS 16641 float
0.004889 -0.303394 0.000000 
0.995111 -0.303394 0.000000 
1.000000 1.000000 0.000000 
0.000000 1.000000 0.000000 
0.500000 -0.327607 0.000000 
0.938074 0.272314 0.000000 
0.500000 1.000000 0.000000 
0.061926 0.272314 0.000000 
0.500000 0.261421 0.000000 
0.254161 -0.322645 0.000000 
0.500000 -0.054923 0.000000 
0.268135 -0.051162 0.000000 
0.745839 -0.322645 0.000000 
0.731865 -0.051162 0.000000 
0.966135 -0.033274 0.000000 
0.717858 0.262175 0.000000 
0.926667 0.608304 0.000000 
0.717270 0.617016 0.000000 
0.750000 1.000000 0.000000 
0.500000 0.618319 0.000000 
0.250000 1.000000 0.000000 
0.282730 0.617016 0.000000 
0.073333 0.608304 0.000000 
0.282142 0.262175 0.000000 
0.033865 -0.033274 0.000000 
0.129817 -0.315206 0.000000 
0.260611 -0.192068 0.000000 
0.140095 -0.185007 0.000000 
0.500000 -0.196593 0.000000 
0.380497 -0.195567 0.000000 
0.377447 -0.326478 0.000000 
0.388026 0.098271 0.000000 
0.384251 -0.054093 0.000000 
0.500000 0.097766 0.000000 
0.622553 -0.326478 0.000000 
0.619503 -0.195567 0.000000 
0.859905 -0.185007 0.000000 
0.739389 -0.192068 0.000000 
0.870183 -0.315206 0.000000 
0.615749 -0.054093 0.000000 
0.611974 0.098271 0.000000 
0.980967 -0.173157 0.000000 
0.848660 -0.044858 0.000000 
0.827335 0.264668 0.000000 
0.837338 0.105061 0.000000 
0.951370 0.115437 0.000000 
0.724283 0.100220 0.000000 
0.608894 0.261545 0.000000 
0.928491 0.436660 0.000000 
0.820986 0.434074 0.000000 
0.838798 0.804400 0.000000 
0.822410 0.613805 0.000000 
0.940457 0.788750 0.000000 
0.714530 0.434636 0.000000 
0.607573 0.435265 0.000000 
0.875000 1.000000 0.000000 
0.729326 0.807087 0.000000 
0.500000 0.807412 0.000000 
0.615443 0.807403 0.000000 
0.625000 1.000000 0.000000 
0.609406 0.618083 0.000000 
0.500000 0.435479 0.000000 
0.375000 1.000000 0.000000 
0.384557 0.807403 0.000000 
0.161202 0.804400 0.000000 
0.270674 0.807087 0.000000 
0.125000 1.000000 0.000000 
0.390594 0.618083 0.000000 
0.392427 0.435265 0.000000 
0.059543 0.788750 0.000000 
0.177590 0.613805 0.000000 
0.172665 0.264668 0.000000 
0.179014 0.434074 0.000000 
0.071509 0.436660 0.000000 
0.285470 0.434636 0.000000 
0.391106 0.261545 0.000000 
0.048630 0.115437 0.000000 
0.162662 0.105061 0.000000 
0.151340 -0.044858 0.000000 
0.019033 -0.173157 0.000000 
0.275717 0.100220 0.000000 
0.067356 -0.309834 0.000000 
0.134796 -0.251371 0.000000 
0.073367 -0.246044 0.000000 
0.257176 -0.258640 0.000000 
0.196077 -0.255530 0.000000 
0.192115 -0.319444 0.000000 
0.205062 -0.120068 0.000000 
0.200438 -0.189065 0.000000 
0.264305 -0.122915 0.000000 
0.500000 -0.263394 0.000000 
0.439447 -0.263132 0.000000 
0.438776 -0.327348 0.000000 
0.441190 -0.126893 0.000000 
0.440274 -0.196344 0.000000 
0.500000 -0.127122 0.000000 
0.315930 -0.324946 0.000000 
0.378829 -0.262310 0.000000 
0.318087 -0.260851 0.000000 
0.444866 0.178323 0.000000 
0.444032 0.097886 0.000000 
0.500000 0.178249 0.000000 
0.326262 -0.052952 0.000000 
0.386176 0.020718 0.000000 
0.329150 0.021675 0.000000 
0.500000 0.020036 0.000000 
0.443110 0.020200 0.000000 
0.442149 -0.054723 0.000000 
0.320623 -0.194183 0.000000 
0.382333 -0.126178 0.000000 
0.323385 -0.124895 0.000000 
0.561224 -0.327348 0.000000 
0.560553 -0.263132 0.000000 
0.681913 -0.260851 0.000000 
0.621171 -0.262310 0.000000 
0.684070 -0.324946 0.000000 
0.559726 -0.196344 0.000000 
0.558810 -0.126893 0.000000 
0.926633 -0.246044 0.000000 
0.865204 -0.251371 0.000000 
0.932644 -0.309834 0.000000 
0.735695 -0.122915 0.000000 
0.799562 -0.189065 0.000000 
0.794938 -0.120068 0.000000 
0.807885 -0.319444 0.000000 
0.803923 -0.255530 0.000000 
0.742824 -0.258640 0.000000 
0.555968 0.097886 0.000000 
0.555134 0.178323 0.000000 
0.557851 -0.054723 0.000000 
0.556890 0.020200 0.000000 
0.670850 0.021675 0.000000 
0.613824 0.020718 0.000000 
0.673738 -0.052952 0.000000 
0.679377 -0.194183 0.000000 
0.676615 -0.124895 0.000000 
0.617667 -0.126178 0.000000 
0.988142 -0.239537 0.000000 
0.920397 -0.179742 0.000000 
0.907338 -0.039864 0.000000 
0.913937 -0.110995 0.000000 
0.973607 -0.104365 0.000000 
0.854358 -0.116162 0.000000 
0.790165 -0.048539 0.000000 
0.882510 0.267534 0.000000 
0.888090 0.187333 0.000000 
0.944421 0.192890 0.000000 
0.776320 0.181311 0.000000 
0.832056 0.183653 0.000000 
0.772486 0.263042 0.000000 
0.958673 0.040022 0.000000 
0.894241 0.109344 0.000000 
0.900721 0.033598 0.000000 
0.610291 0.178558 0.000000 
0.554447 0.261463 0.000000 
0.728017 0.023212 0.000000 
0.668062 0.099001 0.000000 
0.663351 0.261744 0.000000 
0.665506 0.179029 0.000000 
0.720827 0.179875 0.000000 
0.842936 0.028887 0.000000 
0.780692 0.102143 0.000000 
0.785368 0.025529 0.000000 
0.932613 0.353570 0.000000 
0.877824 0.349939 0.000000 
0.873022 0.521544 0.000000 
0.874468 0.434578 0.000000 
0.926254 0.521550 0.000000 
0.823502 0.348125 0.000000 
0.769499 0.347352 0.000000 
0.909705 0.899353 0.000000 
0.890319 0.799370 0.000000 
0.958795 0.884979 0.000000 
0.770193 0.615793 0.000000 
0.828147 0.707792 0.000000 
0.775711 0.710172 0.000000 
0.930829 0.697157 0.000000 
0.879455 0.703433 0.000000 
0.874293 0.611036 0.000000 
0.607931 0.347158 0.000000 
0.553985 0.347214 0.000000 
0.715647 0.347109 0.000000 
0.661814 0.347097 0.000000 
0.661654 0.525287 0.000000 
0.661150 0.434997 0.000000 
0.714919 0.524666 0.000000 
0.820364 0.522596 0.000000 
0.767778 0.523754 0.000000 
0.767759 0.434256 0.000000 
0.937500 1.000000 0.000000 
0.855099 0.902565 0.000000 
0.738947 0.903515 0.000000 
0.797638 0.903343 0.000000 
0.812500 1.000000 0.000000 
0.784901 0.806360 0.000000 
0.722005 0.711343 0.000000 
0.500000 0.903409 0.000000 
0.560005 0.903423 0.000000 
0.562500 1.000000 0.000000 
0.556046 0.712238 0.000000 
0.557808 0.807412 0.000000 
0.500000 0.712268 0.000000 
0.687500 1.000000 0.000000 
0.619914 0.903463 0.000000 
0.679615 0.903510 0.000000 
0.553832 0.435425 0.000000 
0.500000 0.347235 0.000000 
0.663626 0.617711 0.000000 
0.608007 0.525669 0.000000 
0.500000 0.525938 0.000000 
0.554077 0.525872 0.000000 
0.554799 0.618263 0.000000 
0.672705 0.807336 0.000000 
0.611886 0.712137 0.000000 
0.667294 0.711892 0.000000 
0.437500 1.000000 0.000000 
0.439995 0.903423 0.000000 
0.320385 0.903510 0.000000 
0.380086 0.903463 0.000000 
0.312500 1.000000 0.000000 
0.442192 0.807412 0.000000 
0.443954 0.712238 0.000000 
0.090295 0.899353 0.000000 
0.144901 0.902565 0.000000 
0.062500 1.000000 0.000000 
0.277995 0.711343 0.000000 
0.215099 0.806360 0.000000 
0.224289 0.710172 0.000000 
0.187500 1.000000 0.000000 
0.202362 0.903343 0.000000 
0.261053 0.903515 0.000000 
0.446168 0.435425 0.000000 
0.446015 0.347214 0.000000 
0.445201 0.618263 0.000000 
0.445923 0.525872 0.000000 
0.338346 0.525287 0.000000 
0.391993 0.525669 0.000000 
0.336374 0.617711 0.000000 
0.327295 0.807336 0.000000 
0.332706 0.711892 0.000000 
0.388114 0.712137 0.000000 
0.041205 0.884979 0.000000 
0.109681 0.799370 0.000000 
0.125707 0.611036 0.000000 
0.120545 0.703433 0.000000 
0.069171 0.697157 0.000000 
0.171853 0.707792 0.000000 
0.229807 0.615793 0.000000 
0.117490 0.267534 0.000000 
0.122176 0.349939 0.000000 
0.067387 0.353570 0.000000 
0.230501 0.347352 0.000000 
0.176498 0.348125 0.000000 
0.227514 0.263042 0.000000 
0.073746 0.521550 0.000000 
0.125532 0.434578 0.000000 
0.126978 0.521544 0.000000 
0.392069 0.347158 0.000000 
0.445553 0.261463 0.000000 
0.285081 0.524666 0.000000 
0.338850 0.434997 0.000000 
0.336649 0.261744 0.000000 
0.338186 0.347097 0.000000 
0.284353 0.347109 0.000000 
0.179636 0.522596 0.000000 
0.232241 0.434256 0.000000 
0.232222 0.523754 0.000000 
0.055579 0.192890 0.000000 
0.111910 0.187333 0.000000 
0.099279 0.033598 0.000000 
0.105759 0.109344 0.000000 
0.041327 0.040022 0.000000 
0.167944 0.183653 0.000000 
0.223680 0.181311 0.000000 
0.079603 -0.179742 0.000000 
0.011858 -0.239537 0.000000 
0.209835 -0.048539 0.000000 
0.145642 -0.116162 0.000000 
0.026393 -0.104365 0.000000 
0.086063 -0.110995 0.000000 
0.092662 -0.039864 0.000000 
0.389709 0.178558 0.000000 
0.279173 0.179875 0.000000 
0.334494 0.179029 0.000000 
0.331938 0.099001 0.000000 
0.271983 0.023212 0.000000 
0.157064 0.028887 0.000000 
0.214632 0.025529 0.000000 
0.219308 0.102143 0.000000 
0.036111 -0.306725 0.000000 
0.070339 -0.278259 0.000000 
0.039344 -0.275150 0.000000 
0.132263 -0.283610 0.000000 
0.101315 -0.281081 0.000000 
0.098599 -0.312665 0.000000 
0.106948 -0.216006 0.000000 
0.104097 -0.248857 0.000000 
0.137410 -0.218501 0.000000 
0.255603 -0.290963 0.000000 
0.224847 -0.289508 0.000000 
0.223172 -0.321166 0.000000 
0.228557 -0.224267 0.000000 
0.226650 -0.257207 0.000000 
0.258853 -0.225675 0.000000 
0.160993 -0.317462 0.000000 
0.194035 -0.287809 0.000000 
0.163172 -0.285848 0.000000 
0.236846 -0.086111 0.000000 
0.234705 -0.121611 0.000000 
0.266210 -0.087365 0.000000 
0.170287 -0.187178 0.000000 
0.202724 -0.154883 0.000000 
0.172805 -0.153031 0.000000 
0.262434 -0.157815 0.000000 
0.232600 -0.156470 0.000000 
0.230546 -0.190688 0.000000 
0.165458 -0.253591 0.000000 
0.198217 -0.222615 0.000000 
0.167834 -0.220699 0.000000 
0.500000 -0.295819 0.000000 
0.469548 -0.295756 0.000000 
0.469396 -0.327556 0.000000 
0.469926 -0.230259 0.000000 
0.469727 -0.263330 0.000000 
0.500000 -0.230322 0.000000 
0.408130 -0.326990 0.000000 
0.439086 -0.295554 0.000000 
0.408605 -0.295208 0.000000 
0.470836 -0.091313 0.000000 
0.470598 -0.127065 0.000000 
0.500000 -0.091366 0.000000 
0.410395 -0.196026 0.000000 
0.440724 -0.161955 0.000000 
0.411071 -0.161649 0.000000 
0.500000 -0.162195 0.000000 
0.470365 -0.162136 0.000000 
0.470140 -0.196531 0.000000 
0.285080 -0.323900 0.000000 
0.316949 -0.293217 0.000000 
0.286303 -0.292193 0.000000 
0.378093 -0.294710 0.000000 
0.347544 -0.294051 0.000000 
0.346717 -0.325801 0.000000 
0.349494 -0.228638 0.000000 
0.348477 -0.261667 0.000000 
0.379636 -0.229266 0.000000 
0.439846 -0.230066 0.000000 
0.409751 -0.229738 0.000000 
[...]
POINT_DATA 16641

SCALARS u_h float 2
LOOKUP_TABLE default
0.004889 -0.303394 
-0.004889 -0.303394 
0.000000 0.000000 
0.000000 0.000000 
0.000000 -0.327607 
-0.061926 -0.227686 
0.000000 0.000000 
0.061926 -0.227686 
0.000000 -0.238579 
0.004161 -0.322645 
0.000000 -0.304923 
0.018135 -0.301162 
-0.004161 -0.322645 
-0.018135 -0.301162 
-0.033865 -0.283274 
-0.032142 -0.237825 
-0.073333 -0.141696 
-0.032730 -0.132984 
0.000000 0.000000 
0.000000 -0.131681 
0.000000 0.000000 
0.032730 -0.132984 
0.073333 -0.141696 
0.032142 -0.237825 
0.033865 -0.283274 
0.004817 -0.315206 
0.010611 -0.317068 
0.015095 -0.310007 
0.000000 -0.321593 
0.005497 -0.320567 
0.002447 -0.326478 
0.013026 -0.276729 
0.009251 -0.304093 
0.000000 -0.277234 
-0.002447 -0.326478 
-0.005497 -0.320567 
-0.015095 -0.310007 
-0.010611 -0.317068 
-0.004817 -0.315206 
-0.009251 -0.304093 
-0.013026 -0.276729 
-0.019033 -0.298157 
-0.026340 -0.294858 
-0.047665 -0.235332 
-0.037662 -0.269939 
-0.048630 -0.259563 
-0.025717 -0.274780 
-0.016106 -0.238455 
-0.071509 -0.188340 
-0.054014 -0.190926 
-0.036202 -0.070600 
-0.052590 -0.136195 
-0.059543 -0.086250 
-0.035470 -0.190364 
-0.017427 -0.189735 
0.000000 0.000000 
-0.020674 -0.067913 
0.000000 -0.067588 
-0.009557 -0.067597 
0.000000 0.000000 
-0.015594 -0.131917 
0.000000 -0.189521 
0.000000 0.000000 
0.009557 -0.067597 
0.036202 -0.070600 
0.020674 -0.067913 
0.000000 0.000000 
0.015594 -0.131917 
0.017427 -0.189735 
0.059543 -0.086250 
0.052590 -0.136195 
0.047665 -0.235332 
0.054014 -0.190926 
0.071509 -0.188340 
0.035470 -0.190364 
0.016106 -0.238455 
0.048630 -0.259563 
0.037662 -0.269939 
0.026340 -0.294858 
0.019033 -0.298157 
0.025717 -0.274780 
0.004856 -0.309834 
0.009796 -0.313871 
0.010867 -0.308544 
0.007176 -0.321140 
0.008577 -0.318030 
0.004615 -0.319444 
0.017562 -0.307568 
0.012938 -0.314065 
0.014305 -0.310415 
0.000000 -0.325894 
0.001947 -0.325632 
0.001276 -0.327348 
0.003690 -0.314393 
0.002774 -0.321344 
0.000000 -0.314622 
0.003430 -0.324946 
0.003829 -0.324810 
0.005587 -0.323351 
0.007366 -0.259177 
0.006532 -0.277114 
0.000000 -0.259251 
0.013762 -0.302952 
0.011176 -0.291782 
0.016650 -0.290825 
0.000000 -0.292464 
0.005610 -0.292300 
0.004649 -0.304723 
0.008123 -0.319183 
0.007333 -0.313678 
0.010885 -0.312395 
-0.001276 -0.327348 
-0.001947 -0.325632 
-0.005587 -0.323351 
-0.003829 -0.324810 
-0.003430 -0.324946 
-0.002774 -0.321344 
-0.003690 -0.314393 
-0.010867 -0.308544 
-0.009796 -0.313871 
-0.004856 -0.309834 
-0.014305 -0.310415 
-0.012938 -0.314065 
-0.017562 -0.307568 
-0.004615 -0.319444 
-0.008577 -0.318030 
-0.007176 -0.321140 
-0.006532 -0.277114 
-0.007366 -0.259177 
-0.004649 -0.304723 
-0.005610 -0.292300 
-0.016650 -0.290825 
-0.011176 -0.291782 
-0.013762 -0.302952 
-0.008123 -0.319183 
-0.010885 -0.312395 
-0.007333 -0.313678 
-0.011858 -0.302037 
-0.017103 -0.304742 
-0.030162 -0.289864 
-0.023563 -0.298495 
-0.026393 -0.291865 
-0.020642 -0.303662 
-0.022335 -0.298539 
-0.054990 -0.232466 
-0.049410 -0.250167 
-0.055579 -0.244610 
-0.036180 -0.256189 
-0.042944 -0.253847 
-0.040014 -0.236958 
-0.041327 -0.272478 
-0.043259 -0.265656 
-0.036779 -0.278902 
-0.014709 -0.258942 
-0.008053 -0.238537 
-0.021983 -0.289288 
-0.019438 -0.275999 
-0.024149 -0.238256 
-0.021994 -0.258471 
-0.029173 -0.257625 
-0.032064 -0.283613 
-0.031808 -0.272857 
-0.027132 -0.286971 
-0.067387 -0.208930 
-0.059676 -0.212561 
-0.064478 -0.165956 
-0.063032 -0.190422 
-0.073746 -0.165950 
-0.051498 -0.214375 
-0.043001 -0.215148 
-0.027795 -0.038147 
-0.047181 -0.075630 
-0.041205 -0.052521 
-0.042307 -0.134207 
-0.046853 -0.104708 
-0.036789 -0.102328 
-0.069171 -0.115343 
-0.058045 -0.109067 
-0.063207 -0.138964 
-0.017069 -0.215342 
-0.008515 -0.215286 
-0.034353 -0.215391 
-0.025686 -0.215403 
-0.025846 -0.162213 
-0.026350 -0.190003 
-0.035081 -0.162834 
-0.054636 -0.164904 
-0.044722 -0.163746 
-0.044741 -0.190744 
0.000000 0.000000 
-0.019901 -0.034935 
-0.011053 -0.033985 
-0.014862 -0.034157 
0.000000 0.000000 
-0.027599 -0.068640 
-0.027995 -0.101157 
0.000000 -0.034091 
-0.002495 -0.034077 
0.000000 0.000000 
-0.006454 -0.100262 
-0.004692 -0.067588 
0.000000 -0.100232 
0.000000 0.000000 
-0.005086 -0.034037 
-0.007885 -0.033990 
-0.008668 -0.189575 
0.000000 -0.215265 
-0.023874 -0.132289 
-0.016993 -0.161831 
0.000000 -0.161562 
-0.008423 -0.161628 
-0.007701 -0.131737 
-0.014795 -0.067664 
-0.013114 -0.100363 
-0.020206 -0.100608 
0.000000 0.000000 
0.002495 -0.034077 
0.007885 -0.033990 
0.005086 -0.034037 
0.000000 0.000000 
0.004692 -0.067588 
0.006454 -0.100262 
0.027795 -0.038147 
0.019901 -0.034935 
0.000000 0.000000 
0.027995 -0.101157 
0.027599 -0.068640 
0.036789 -0.102328 
0.000000 0.000000 
0.014862 -0.034157 
0.011053 -0.033985 
0.008668 -0.189575 
0.008515 -0.215286 
0.007701 -0.131737 
0.008423 -0.161628 
0.025846 -0.162213 
0.016993 -0.161831 
0.023874 -0.132289 
0.014795 -0.067664 
0.020206 -0.100608 
0.013114 -0.100363 
0.041205 -0.052521 
0.047181 -0.075630 
0.063207 -0.138964 
0.058045 -0.109067 
0.069171 -0.115343 
0.046853 -0.104708 
0.042307 -0.134207 
0.054990 -0.232466 
0.059676 -0.212561 
0.067387 -0.208930 
0.043001 -0.215148 
0.051498 -0.214375 
0.040014 -0.236958 
0.073746 -0.165950 
0.063032 -0.190422 
0.064478 -0.165956 
0.017069 -0.215342 
0.008053 -0.238537 
0.035081 -0.162834 
0.026350 -0.190003 
0.024149 -0.238256 
0.025686 -0.215403 
0.034353 -0.215391 
0.054636 -0.164904 
0.044741 -0.190744 
0.044722 -0.163746 
0.055579 -0.244610 
0.049410 -0.250167 
0.036779 -0.278902 
0.043259 -0.265656 
0.041327 -0.272478 
0.042944 -0.253847 
0.036180 -0.256189 
0.017103 -0.304742 
0.011858 -0.302037 
0.022335 -0.298539 
0.020642 -0.303662 
0.026393 -0.291865 
0.023563 -0.298495 
0.030162 -0.289864 
0.014709 -0.258942 
0.029173 -0.257625 
0.021994 -0.258471 
0.019438 -0.275999 
0.021983 -0.289288 
0.032064 -0.283613 
0.027132 -0.286971 
0.031808 -0.272857 
0.004861 -0.306725 
0.007839 -0.309509 
0.008094 -0.306400 
0.007263 -0.314860 
0.007565 -0.312331 
0.004849 -0.312665 
0.013198 -0.309756 
0.010347 -0.311357 
0.012410 -0.312251 
0.005603 -0.322213 
0.006097 -0.320758 
0.004422 -0.321166 
0.009807 -0.318017 
0.007900 -0.319707 
0.008853 -0.319425 
0.004743 -0.317462 
0.006535 -0.319059 
0.006922 -0.317098 
0.018096 -0.304861 
0.015955 -0.309111 
0.016210 -0.306115 
0.014037 -0.312178 
0.015224 -0.311133 
0.016555 -0.309281 
0.012434 -0.314065 
0.013850 -0.312720 
0.011796 -0.315688 
0.009208 -0.316091 
0.010717 -0.316365 
0.011584 -0.314449 
0.000000 -0.327069 
0.000798 -0.327006 
0.000646 -0.327556 
0.001176 -0.324009 
0.000977 -0.325830 
0.000000 -0.324072 
0.001880 -0.326990 
0.001586 -0.326804 
0.002355 -0.326458 
0.002086 -0.310063 
0.001848 -0.314565 
0.000000 -0.310116 
0.004145 -0.321026 
0.003224 -0.318205 
0.004821 -0.317899 
0.000000 -0.318445 
0.001615 -0.318386 
0.001390 -0.321531 
0.003830 -0.323900 
0.004449 -0.324467 
0.005053 -0.323443 
0.003093 -0.325960 
0.003794 -0.325301 
0.002967 -0.325801 
0.005744 -0.322388 
0.004727 -0.324167 
0.004636 -0.323016 
0.002346 -0.323816 
0.003501 -0.323488 
0.002900 -0.325295 
0.003866 -0.249228 
0.003684 -0.259232 
0.000000 -0.249243 
0.009787 -0.276958 
0.006963 -0.268487 
0.010436 -0.268362 
0.000000 -0.268584 
0.003483 -0.268560 
0.003268 -0.277204 
0.015968 -0.302148 
0.015211 -0.297225 
0.017658 -0.296477 
0.010217 -0.298280 
0.012729 -0.297820 
0.011521 -0.303594 
0.015104 -0.284231 
0.013927 -0.291366 
0.012116 -0.284599 
0.000000 -0.299040 
0.002569 -0.298995 
0.002327 -0.304874 
0.003042 -0.285160 
0.002808 -0.292424 
0.000000 -0.285195 
0.006959 -0.304466 
0.005132 -0.298857 
0.007683 -0.298622 
0.009105 -0.284868 
0.008401 -0.292089 
0.006079 -0.285052 
0.006404 -0.322348 
0.006825 -0.319958 
0.006818 -0.321592 
0.007856 -0.320611 
0.009386 -0.318226 
0.004167 -0.309900 
0.008287 -0.309225 
0.006235 -0.309624 
0.005520 -0.314100 
0.006400 -0.317457 
0.014282 -0.307155 
0.010977 -0.315191 
0.012614 -0.311502 
0.012316 -0.308007 
0.010316 -0.308691 
0.007956 -0.316869 
0.009124 -0.313115 
0.009483 -0.316119 
-0.000646 -0.327556 
-0.000798 -0.327006 
-0.002355 -0.326458 
-0.001586 -0.326804 
-0.001880 -0.326990 
-0.000977 -0.325830 
-0.001176 -0.324009 
-0.005053 -0.323443 
-0.004449 -0.324467 
-0.003830 -0.323900 
-0.004636 -0.323016 
-0.004727 -0.324167 
-0.005744 -0.322388 
-0.002967 -0.325801 
-0.003794 -0.325301 
-0.003093 -0.325960 
-0.001848 -0.314565 
-0.002086 -0.310063 
-0.001390 -0.321531 
-0.001615 -0.318386 
-0.004821 -0.317899 
-0.003224 -0.318205 
-0.004145 -0.321026 
-0.002900 -0.325295 
-0.003501 -0.323488 
-0.002346 -0.323816 
-0.008094 -0.306400 
-0.007839 -0.309509 
-0.004861 -0.306725 
-0.012410 -0.312251 
-0.010347 -0.311357 
-0.013198 -0.309756 
-0.004849 -0.312665 
-0.007565 -0.312331 
-0.007263 -0.314860 
-0.016210 -0.306115 
-0.015955 -0.309111 
-0.018096 -0.304861 
-0.011796 -0.315688 
-0.013850 -0.312720 
-0.012434 -0.314065 
-0.016555 -0.309281 
-0.015224 -0.311133 
-0.014037 -0.312178 
-0.004422 -0.321166 
-0.006097 -0.320758 
-0.005603 -0.322213 
-0.006922 -0.317098 
-0.006535 -0.319059 
-0.004743 -0.317462 
-0.008853 -0.319425 
-0.007900 -0.319707 
-0.009807 -0.318017 
-0.011584 -0.314449 
-0.010717 -0.316365 
-0.009208 -0.316091 
-0.003684 -0.259232 
-0.003866 -0.249228 
-0.003268 -0.277204 
-0.003483 -0.268560 
-0.010436 -0.268362 
-0.006963 -0.268487 
-0.009787 -0.276958 
-0.002327 -0.304874 
-0.002569 -0.298995 
-0.007683 -0.298622 
-0.005132 -0.298857 
-0.006959 -0.304466 
-0.002808 -0.292424 
-0.003042 -0.285160 
-0.017658 -0.296477 
-0.015211 -0.297225 
-0.015968 -0.302148 
-0.012116 -0.284599 
-0.013927 -0.291366 
-0.015104 -0.284231 
-0.011521 -0.303594 
-0.012729 -0.297820 
-0.010217 -0.298280 
-0.006079 -0.285052 
-0.008401 -0.292089 
-0.009105 -0.284868 
-0.006404 -0.322348 
-0.009386 -0.318226 
-0.007856 -0.320611 
-0.006818 -0.321592 
-0.006825 -0.319958 
-0.014282 -0.307155 
-0.010316 -0.308691 
-0.012316 -0.308007 
-0.012614 -0.311502 
-0.010977 -0.315191 
-0.004167 -0.309900 
-0.006400 -0.317457 
-0.005520 -0.314100 
-0.006235 -0.309624 
-0.008287 -0.309225 
-0.009483 -0.316119 
-0.009124 -0.313115 
-0.007956 -0.316869 
-0.008344 -0.303034 
-0.011365 -0.305434 
-0.018071 -0.301620 
-0.014690 -0.303837 
-0.015420 -0.300406 
-0.013954 -0.306952 
-0.016115 -0.307533 
-0.032022 -0.286788 
-0.028493 -0.291370 
-0.030122 -0.287851 
-0.025184 -0.297196 
-0.026852 -0.294474 
-0.028271 -0.292543 
-0.022693 -0.295305 
-0.024983 -0.295376 
-0.021504 -0.298796 
-0.019937 -0.303370 
-0.020258 -0.299967 
-0.017843 -0.307143 
-0.019124 -0.305760 
-0.024362 -0.296846 
-0.021731 -0.301615 
-0.023479 -0.299567 
-0.020309 -0.301920 
-0.022120 -0.301249 
-0.019093 -0.304696 
-0.058508 -0.230368 
-0.055608 -0.239271 
-0.058847 -0.236394 
-0.048883 -0.243439 
-0.052289 -0.241591 
-0.051373 -0.234091 
-0.052162 -0.252336 
-0.052529 -0.247660 
-0.049305 -0.255527 
-0.034481 -0.247557 
-0.038181 -0.246895 
-0.036099 -0.237463 
-0.040356 -0.262195 
-0.039596 -0.255155 
-0.037234 -0.263661 
-0.043874 -0.236266 
-0.041822 -0.246024 
-0.045392 -0.244893 
-0.037606 -0.278147 
-0.039069 -0.275928 
-0.035553 -0.281637 
-0.045968 -0.262865 
-0.042548 -0.269668 
-0.045010 -0.266280 
-0.037497 -0.275014 
-0.040047 -0.272562 
-0.040492 -0.267995 
-0.046216 -0.252205 
-0.043408 -0.260391 
-0.046390 -0.258189 
-0.007732 -0.249190 
-0.004026 -0.238556 
-0.013895 -0.268176 
-0.011042 -0.259083 
-0.012079 -0.238505 
-0.011594 -0.249128 
-0.015452 -0.249032 
-0.020065 -0.295554 
-0.019337 -0.290141 
-0.022598 -0.275462 
-0.020989 -0.283136 
-0.023874 -0.282364 
-0.018064 -0.283750 
-0.016246 -0.276415 
-0.028155 -0.238080 
-0.026948 -0.248426 
-0.030733 -0.248055 
-0.019300 -0.248893 
-0.023134 -0.248697 
-0.020130 -0.238376 
-0.027491 -0.266533 
-0.025601 -0.258106 
-0.024142 -0.267119 
-0.017337 -0.267918 
-0.020755 -0.267572 
-0.018361 -0.258743 
-0.033477 -0.284671 
-0.034890 -0.277079 
-0.034447 -0.281448 
-0.031365 -0.287292 
-0.029207 -0.289540 
-0.032702 -0.256998 
-0.028789 -0.273922 
-0.030795 -0.265786 
-0.034045 -0.264843 
-0.034767 -0.271544 
-0.022426 -0.294428 
-0.026999 -0.291454 
-0.024739 -0.293072 
-0.024583 -0.288242 
-0.026711 -0.281407 
-0.032222 -0.278803 
-0.029495 -0.280232 
-0.029626 -0.285440 
-0.064799 -0.218543 
-0.061190 -0.220954 
-0.065671 -0.200598 
-0.063595 -0.211031 
-0.069645 -0.198860 
-0.057469 -0.222790 
-0.053641 -0.224160 
-0.069201 -0.153607 
-0.069215 -0.166176 
-0.073929 -0.154065 
-0.058574 -0.190805 
-0.064038 -0.178489 
-0.059368 -0.178464 
-0.072905 -0.177372 
-0.068564 -0.178182 
-0.067353 -0.189651 
-0.041636 -0.226376 
-0.037515 -0.226714 
-0.049716 -0.225161 
-0.045709 -0.225877 
-0.048527 -0.203190 
-0.047278 -0.214854 
-0.052953 -0.202966 
-0.061552 -0.201774 
-0.057304 -0.202525 
-0.055638 -0.213640 
-0.018479 -0.021395 
-0.033901 -0.042898 
-0.026333 -0.031856 
-0.041377 -0.072556 
-0.038761 -0.057367 
-0.033282 -0.054459 
-0.051790 -0.070198 
-0.045156 -0.062408 
-0.053413 -0.080190 
-0.037424 -0.133514 
-0.039979 -0.118538 
-0.035209 -0.117815 
-0.050257 -0.120800 
-0.045001 -0.119513 
-0.047373 -0.135094 
-0.037226 -0.086573 
-0.041655 -0.103318 
-0.042217 -0.087947 
-0.071808 -0.128808 
-0.066637 -0.126619 
-0.068393 -0.140440 
-0.059443 -0.096648 
-0.063737 -0.112062 
-0.065187 -0.101209 
-0.057899 -0.137504 
-0.061206 -0.124412 
-0.055694 -0.122436 
-0.047659 -0.089971 
-0.052352 -0.106601 
-0.053476 -0.092839 
-0.008317 -0.227230 
-0.004158 -0.227231 
-0.016652 -0.227220 
-0.012481 -0.227228 
-0.012974 -0.202774 
-0.012785 -0.215311 
-0.017335 -0.202840 
-0.033361 -0.226935 
-0.029189 -0.227074 
-0.030596 -0.203109 
-0.030016 -0.215414 
-0.035072 -0.203197 
-0.025009 -0.227155 
-0.020829 -0.227199 
-0.029553 -0.147796 
-0.030412 -0.162490 
-0.034180 -0.148182 
-0.021865 -0.189855 
-0.026263 -0.176393 
-0.021759 -0.176203 
-0.035492 -0.176903 
-0.030841 -0.176626 
-0.030886 -0.190174 
-0.021369 -0.215376 
-0.026145 -0.203013 
-0.021725 -0.202921 
-0.064245 -0.152794 
-0.054004 -0.150893 
-0.059149 -0.151842 
-0.059596 -0.165485 
-0.054605 -0.178243 
-0.038949 -0.148674 
-0.040212 -0.177221 
-0.039855 -0.163253 
-0.043858 -0.149287 
-0.048888 -0.150029 
-0.038686 -0.215313 
-0.049391 -0.190882 
-0.044056 -0.203271 
-0.039564 -0.203260 
-0.040093 -0.190560 
-0.049661 -0.164306 
-0.044988 -0.177568 
-0.049797 -0.177923 
0.000000 0.000000 
-0.014298 -0.018611 
-0.010102 -0.017247 
-0.011844 -0.017651 
0.000000 0.000000 
-0.023306 -0.035975 
-0.028732 -0.052835 
-0.005636 -0.016975 
-0.006548 -0.016970 
0.000000 0.000000 
-0.018718 -0.051137 
-0.012852 -0.034033 
-0.016109 -0.050988 
0.000000 0.000000 
-0.007563 -0.016992 
-0.008723 -0.017067 
-0.032246 -0.101635 
-0.030681 -0.117288 
-0.031641 -0.069386 
-0.032671 -0.085658 
-0.024654 -0.084668 
-0.028500 -0.085058 
-0.023973 -0.068185 
-0.017166 -0.034417 
-0.021617 -0.051419 
-0.024908 -0.051928 
0.000000 -0.017108 
-0.000634 -0.017106 
0.000000 0.000000 
-0.001812 -0.050925 
-0.001242 -0.034088 
0.000000 -0.050927 
0.000000 0.000000 
-0.001275 -0.017097 
-0.001927 -0.017083 
-0.003559 -0.116141 
-0.003214 -0.100240 
0.000000 -0.116129 
-0.007091 -0.067590 
-0.005634 -0.084051 
-0.008512 -0.084070 
0.000000 -0.084037 
-0.002805 -0.084041 
-0.002336 -0.067589 
0.000000 0.000000 
-0.004025 -0.017018 
-0.004802 -0.016994 
-0.002598 -0.017065 
-0.003294 -0.017042 
0.000000 0.000000 
-0.009410 -0.050884 
-0.006451 -0.034012 
-0.007419 -0.050893 
-0.003640 -0.050918 
-0.005503 -0.050906 
-0.003772 -0.034060 
-0.004255 -0.215270 
0.000000 -0.227233 
-0.013031 -0.189641 
-0.008636 -0.202726 
0.000000 -0.202686 
-0.004314 -0.202696 
-0.004328 -0.189536 
-0.028219 -0.132585 
-0.025060 -0.147497 
-0.016424 -0.147104 
-0.020690 -0.147271 
-0.019673 -0.132073 
-0.021377 -0.161996 
-0.017321 -0.176054 
0.000000 -0.146841 
-0.004052 -0.146857 
-0.003839 -0.131696 
-0.004293 -0.175818 
-0.004202 -0.161579 
0.000000 -0.175802 
-0.011611 -0.131809 
-0.008126 -0.146904 
-0.012243 -0.146984 
-0.012939 -0.175942 
-0.012681 -0.161710 
-0.008601 -0.175864 
-0.009410 -0.033977 
-0.012115 -0.067618 
-0.011500 -0.050887 
-0.013720 -0.050915 
-0.017633 -0.067753 
-0.007144 -0.116174 
-0.014492 -0.116319 
-0.010780 -0.116230 
-0.009745 -0.100300 
-0.011464 -0.084104 
-0.026374 -0.116909 
-0.021074 -0.084418 
-0.023994 -0.100829 
-0.022260 -0.116640 
-0.018310 -0.116450 
-0.014519 -0.084162 
-0.016590 -0.100460 
-0.017710 -0.084260 
0.000000 0.000000 
0.000634 -0.017106 
0.001927 -0.017083 
0.001275 -0.017097 
0.000000 0.000000 
0.001242 -0.034088 
0.001812 -0.050925 
0.004802 -0.016994 
0.004025 -0.017018 
0.000000 0.000000 
0.007419 -0.050893 
0.006451 -0.034012 
0.009410 -0.050884 
0.000000 0.000000 
0.003294 -0.017042 
0.002598 -0.017065 
0.003214 -0.100240 
0.003559 -0.116141 
0.002336 -0.067589 
0.002805 -0.084041 
0.008512 -0.084070 
0.005634 -0.084051 
0.007091 -0.067590 
0.003772 -0.034060 
0.005503 -0.050906 
0.003640 -0.050918 
0.018479 -0.021395 
0.014298 -0.018611 
0.000000 0.000000 
0.028732 -0.052835 
0.023306 -0.035975 
0.033282 -0.054459 
0.000000 0.000000 
0.011844 -0.017651 
0.010102 -0.017247 
0.030681 -0.117288 
0.032246 -0.101635 
0.035209 -0.117815 
0.023973 -0.068185 
0.028500 -0.085058 
0.024654 -0.084668 
0.037226 -0.086573 
0.032671 -0.085658 
0.031641 -0.069386 
0.000000 0.000000 
0.006548 -0.016970 
0.005636 -0.016975 
0.008723 -0.017067 
0.007563 -0.016992 
0.000000 0.000000 
0.016109 -0.050988 
0.012852 -0.034033 
0.018718 -0.051137 
0.024908 -0.051928 
0.021617 -0.051419 
0.017166 -0.034417 
0.004255 -0.215270 
0.004158 -0.227231 
0.004328 -0.189536 
0.004314 -0.202696 
0.012974 -0.202774 
0.008636 -0.202726 
0.013031 -0.189641 
0.003839 -0.131696 
0.004052 -0.146857 
0.012243 -0.146984 
0.008126 -0.146904 
0.011611 -0.131809 
0.004202 -0.161579 
0.004293 -0.175818 
0.029553 -0.147796 
0.025060 -0.147497 
0.028219 -0.132585 
0.017321 -0.176054 
0.021377 -0.161996 
0.021759 -0.176203 
0.019673 -0.132073 
0.020690 -0.147271 
0.016424 -0.147104 
0.008601 -0.175864 
0.012681 -0.161710 
0.012939 -0.175942 
0.009410 -0.033977 
0.017633 -0.067753 
0.013720 -0.050915 
0.011500 -0.050887 
0.012115 -0.067618 
0.026374 -0.116909 
0.018310 -0.116450 
0.022260 -0.116640 
0.023994 -0.100829 
0.021074 -0.084418 
0.007144 -0.116174 
0.011464 -0.084104 
0.009745 -0.100300 
0.010780 -0.116230 
0.014492 -0.116319 
0.017710 -0.084260 
0.016590 -0.100460 
0.014519 -0.084162 
0.026333 -0.031856 
0.033901 -0.042898 
0.053413 -0.080190 
0.045156 -0.062408 
0.051790 -0.070198 
0.038761 -0.057367 
0.041377 -0.072556 
0.068393 -0.140440 
0.066637 -0.126619 
0.071808 -0.128808 
0.055694 -0.122436 
0.061206 -0.124412 
0.057899 -0.137504 
0.065187 -0.101209 
0.063737 -0.112062 
0.059443 -0.096648 
0.039979 -0.118538 
0.037424 -0.133514 
0.042217 -0.087947 
0.041655 -0.103318 
0.047373 -0.135094 
0.045001 -0.119513 
0.050257 -0.120800 
0.053476 -0.092839 
0.052352 -0.106601 
0.047659 -0.089971 
0.058508 -0.230368 
0.061190 -0.220954 
0.064799 -0.218543 
0.053641 -0.224160 
0.057469 -0.222790 
0.051373 -0.234091 
0.069645 -0.198860 
0.063595 -0.211031 
0.065671 -0.200598 
0.037515 -0.226714 
0.041636 -0.226376 
0.036099 -0.237463 
0.052953 -0.202966 
0.047278 -0.214854 
0.048527 -0.203190 
0.043874 -0.236266 
0.045709 -0.225877 
0.049716 -0.225161 
0.073929 -0.154065 
0.069215 -0.166176 
0.069201 -0.153607 
0.067353 -0.189651 
0.068564 -0.178182 
0.072905 -0.177372 
0.059368 -0.178464 
0.064038 -0.178489 
0.058574 -0.190805 
0.055638 -0.213640 
0.057304 -0.202525 
0.061552 -0.201774 
0.008317 -0.227230 
0.004026 -0.238556 
0.017335 -0.202840 
0.012785 -0.215311 
0.012079 -0.238505 
0.012481 -0.227228 
0.016652 -0.227220 
0.034180 -0.148182 
0.030412 -0.162490 
0.030886 -0.190174 
0.030841 -0.176626 
0.035492 -0.176903 
0.026263 -0.176393 
0.021865 -0.189855 
0.028155 -0.238080 
0.029189 -0.227074 
0.033361 -0.226935 
0.020829 -0.227199 
0.025009 -0.227155 
0.020130 -0.238376 