# vtk DataFile Version 2.0
Unstructured Grid Example
ASCII
DATASET UNSTRUCTURED_GRID

POINTS 256 float
0.000000 0.000000 0.000000 
0.007812 0.000000 0.000000 
0.007812 0.000000 0.000000 
0.015625 0.000000 0.000000 
0.015625 0.000000 0.000000 
0.023438 0.000000 0.000000 
0.023438 0.000000 0.000000 
0.031250 0.000000 0.000000 
0.046875 0.000000 0.000000 
0.054688 0.000000 0.000000 
0.054688 0.000000 0.000000 
0.062500 0.000000 0.000000 
0.031250 0.000000 0.000000 
0.039062 0.000000 0.000000 
0.039062 0.000000 0.000000 
0.046875 0.000000 0.000000 
0.109375 0.000000 0.000000 
0.117188 0.000000 0.000000 
0.117188 0.000000 0.000000 
0.125000 0.000000 0.000000 
0.093750 0.000000 0.000000 
0.101562 0.000000 0.000000 
0.101562 0.000000 0.000000 
0.109375 0.000000 0.000000 
0.062500 0.000000 0.000000 
0.070312 0.000000 0.000000 
0.070312 0.000000 0.000000 
0.078125 0.000000 0.000000 
0.078125 0.000000 0.000000 
0.085938 0.000000 0.000000 
0.085938 0.000000 0.000000 
0.093750 0.000000 0.000000 
0.234375 83.533593 0.000000 
0.242188 -167.067186 0.000000 
0.242188 -167.067186 0.000000 
0.250000 83.533593 0.000000 
0.218750 0.000000 0.000000 
0.226562 0.000000 0.000000 
0.226562 0.000000 0.000000 
0.234375 0.000000 0.000000 
0.187500 0.000000 0.000000 
0.195312 0.000000 0.000000 
0.195312 0.000000 0.000000 
0.203125 0.000000 0.000000 
0.203125 0.000000 0.000000 
0.210938 0.000000 0.000000 
0.210938 0.000000 0.000000 
0.218750 0.000000 0.000000 
0.125000 0.000000 0.000000 
0.132812 0.000000 0.000000 
0.132812 0.000000 0.000000 
0.140625 0.000000 0.000000 
0.140625 0.000000 0.000000 
0.148438 0.000000 0.000000 
0.148438 0.000000 0.000000 
0.156250 0.000000 0.000000 
0.171875 0.000000 0.000000 
0.179688 0.000000 0.000000 
0.179688 0.000000 0.000000 
0.187500 0.000000 0.000000 
0.156250 0.000000 0.000000 
0.164062 0.000000 0.000000 
0.164062 0.000000 0.000000 
0.171875 0.000000 0.000000 
0.484375 -2.859491 0.000000 
0.492188 -2.860574 0.000000 
0.492188 -2.873134 0.000000 
0.500000 -2.834372 0.000000 
0.468750 -2.857416 0.000000 
0.476562 -2.860131 0.000000 
0.476562 -2.858599 0.000000 
0.484375 -2.860479 0.000000 
0.437500 -2.848443 0.000000 
0.445312 -2.856047 0.000000 
0.445312 -2.851501 0.000000 
0.453125 -2.857536 0.000000 
0.453125 -2.853944 0.000000 
0.460938 -2.858684 0.000000 
0.460938 -2.855887 0.000000 
0.468750 -2.859538 0.000000 
0.375000 -2.770310 0.000000 
0.382812 -2.818471 0.000000 
0.382812 -2.789874 0.000000 
0.390625 -2.827503 0.000000 
0.390625 -2.805088 0.000000 
0.398438 -2.834704 0.000000 
0.398438 -2.817015 0.000000 
0.406250 -2.840466 0.000000 
0.421875 -2.839862 0.000000 
0.429688 -2.851772 0.000000 
0.429688 -2.844626 0.000000 
0.437500 -2.854154 0.000000 
0.406250 -2.826430 0.000000 
0.414062 -2.845086 0.000000 
0.414062 -2.833903 0.000000 
0.421875 -2.848796 0.000000 
0.250000 0.000000 0.000000 
0.257812 0.000000 0.000000 
0.257812 0.000000 0.000000 
0.265625 0.000000 0.000000 
0.265625 0.000000 0.000000 
0.273438 0.000000 0.000000 
0.273438 0.000000 0.000000 
0.281250 0.000000 0.000000 
0.296875 0.727626 0.000000 
0.304688 -3.004315 0.000000 
0.304688 -1.372186 0.000000 
0.312500 -2.536630 0.000000 
0.281250 0.000000 0.000000 
0.289062 0.000000 0.000000 
0.289062 0.516354 0.000000 
0.296875 -1.032708 0.000000 
0.359375 -2.711527 0.000000 
0.367188 -2.792686 0.000000 
0.367188 -2.744903 0.000000 
0.375000 -2.807094 0.000000 
0.343750 -2.606831 0.000000 
0.351562 -2.750822 0.000000 
0.351562 -2.667069 0.000000 
0.359375 -2.774336 0.000000 
0.312500 -1.935592 0.000000 
0.320312 -2.574264 0.000000 
0.320312 -2.226037 0.000000 
0.328125 -2.632046 0.000000 
0.328125 -2.404302 0.000000 
0.335938 -2.681523 0.000000 
0.335938 -2.523405 0.000000 
0.343750 -2.720539 0.000000 
0.500000 -2.834372 0.000000 
0.507812 -2.873134 0.000000 
0.507812 -2.860574 0.000000 
0.515625 -2.859491 0.000000 
0.515625 -2.860479 0.000000 
0.523438 -2.858599 0.000000 
0.523438 -2.860131 0.000000 
0.531250 -2.857416 0.000000 
0.546875 -2.857536 0.000000 
0.554688 -2.851501 0.000000 
0.554688 -2.856047 0.000000 
0.562500 -2.848443 0.000000 
0.531250 -2.859538 0.000000 
0.539062 -2.855887 0.000000 
0.539062 -2.858684 0.000000 
0.546875 -2.853944 0.000000 
0.609375 -2.827503 0.000000 
0.617188 -2.789874 0.000000 
0.617188 -2.818471 0.000000 
0.625000 -2.770310 0.000000 
0.593750 -2.840466 0.000000 
0.601562 -2.817015 0.000000 
0.601562 -2.834704 0.000000 
0.609375 -2.805088 0.000000 
0.562500 -2.854154 0.000000 
0.570312 -2.844626 0.000000 
0.570312 -2.851772 0.000000 
0.578125 -2.839862 0.000000 
0.578125 -2.848796 0.000000 
0.585938 -2.833903 0.000000 
0.585938 -2.845086 0.000000 
0.593750 -2.826430 0.000000 
0.734375 0.000000 0.000000 
0.742188 0.000000 0.000000 
0.742188 0.000000 0.000000 
0.750000 0.000000 0.000000 
0.718750 0.000000 0.000000 
0.726562 0.000000 0.000000 
0.726562 0.000000 0.000000 
0.734375 0.000000 0.000000 
0.687500 -2.536630 0.000000 
0.695312 -1.372186 0.000000 
0.695312 -3.004315 0.000000 
0.703125 0.727626 0.000000 
0.703125 -1.032708 0.000000 
0.710938 0.516354 0.000000 
0.710938 0.000000 0.000000 
0.718750 0.000000 0.000000 
0.625000 -2.807094 0.000000 
0.632812 -2.744903 0.000000 
0.632812 -2.792686 0.000000 
0.640625 -2.711527 0.000000 
0.640625 -2.774336 0.000000 
0.648438 -2.667069 0.000000 
0.648438 -2.750822 0.000000 
0.656250 -2.606831 0.000000 
0.671875 -2.632046 0.000000 
0.679688 -2.226037 0.000000 
0.679688 -2.574264 0.000000 
0.687500 -1.935592 0.000000 
0.656250 -2.720539 0.000000 
0.664062 -2.523405 0.000000 
0.664062 -2.681523 0.000000 
0.671875 -2.404302 0.000000 
0.984375 0.000000 0.000000 
0.992188 0.000000 0.000000 
0.992188 0.000000 0.000000 
1.000000 0.000000 0.000000 
0.968750 0.000000 0.000000 
0.976562 0.000000 0.000000 
0.976562 0.000000 0.000000 
0.984375 0.000000 0.000000 
0.937500 0.000000 0.000000 
0.945312 0.000000 0.000000 
0.945312 0.000000 0.000000 
0.953125 0.000000 0.000000 
0.953125 0.000000 0.000000 
0.960938 0.000000 0.000000 
0.960938 0.000000 0.000000 
0.968750 0.000000 0.000000 
0.875000 0.000000 0.000000 
0.882812 0.000000 0.000000 
0.882812 0.000000 0.000000 
0.890625 0.000000 0.000000 
0.890625 0.000000 0.000000 
0.898438 0.000000 0.000000 
0.898438 0.000000 0.000000 
0.906250 0.000000 0.000000 
0.921875 0.000000 0.000000 
0.929688 0.000000 0.000000 
0.929688 0.000000 0.000000 
0.937500 0.000000 0.000000 
0.906250 0.000000 0.000000 
0.914062 0.000000 0.000000 
0.914062 0.000000 0.000000 
0.921875 0.000000 0.000000 
0.750000 83.533593 0.000000 
0.757812 -167.067186 0.000000 
0.757812 -167.067186 0.000000 
0.765625 83.533593 0.000000 
0.765625 0.000000 0.000000 
0.773438 0.000000 0.000000 
0.773438 0.000000 0.000000 
0.781250 0.000000 0.000000 
0.796875 0.000000 0.000000 
0.804688 0.000000 0.000000 
0.804688 0.000000 0.000000 
0.812500 0.000000 0.000000 
0.781250 0.000000 0.000000 
0.789062 0.000000 0.000000 
0.789062 0.000000 0.000000 
0.796875 0.000000 0.000000 
0.859375 0.000000 0.000000 
0.867188 0.000000 0.000000 
0.867188 0.000000 0.000000 
0.875000 0.000000 0.000000 
0.843750 0.000000 0.000000 
0.851562 0.000000 0.000000 
0.851562 0.000000 0.000000 
0.859375 0.000000 0.000000 
0.812500 0.000000 0.000000 
0.820312 0.000000 0.000000 
0.820312 0.000000 0.000000 
0.828125 0.000000 0.000000 
0.828125 0.000000 0.000000 
0.835938 0.000000 0.000000 
0.835938 0.000000 0.000000 
0.843750 0.000000 0.000000 

CELLS 128 384
2  0 1 
2  2 3 
2  4 5 
2  6 7 
2  8 9 
2  10 11 
2  12 13 
2  14 15 
2  16 17 
2  18 19 
2  20 21 
2  22 23 
2  24 25 
2  26 27 
2  28 29 
2  30 31 
2  32 33 
2  34 35 
2  36 37 
2  38 39 
2  40 41 
2  42 43 
2  44 45 
2  46 47 
2  48 49 
2  50 51 
2  52 53 
2  54 55 
2  56 57 
2  58 59 
2  60 61 
2  62 63 
2  64 65 
2  66 67 
2  68 69 
2  70 71 
2  72 73 
2  74 75 
2  76 77 
2  78 79 
2  80 81 
2  82 83 
2  84 85 
2  86 87 
2  88 89 
2  90 91 
2  92 93 
2  94 95 
2  96 97 
2  98 99 
2  100 101 
2  102 103 
2  104 105 
2  106 107 
2  108 109 
2  110 111 
2  112 113 
2  114 115 
2  116 117 
2  118 119 
2  120 121 
2  122 123 
2  124 125 
2  126 127 
2  128 129 
2  130 131 
2  132 133 
2  134 135 
2  136 137 
2  138 139 
2  140 141 
2  142 143 
2  144 145 
2  146 147 
2  148 149 
2  150 151 
2  152 153 
2  154 155 
2  156 157 
2  158 159 
2  160 161 
2  162 163 
2  164 165 
2  166 167 
2  168 169 
2  170 171 
2  172 173 
2  174 175 
2  176 177 
2  178 179 
2  180 181 
2  182 183 
2  184 185 
2  186 187 
2  188 189 
2  190 191 
2  192 193 
2  194 195 
2  196 197 
2  198 199 
2  200 201 
2  202 203 
2  204 205 
2  206 207 
2  208 209 
2  210 211 
2  212 213 
2  214 215 
2  216 217 
2  218 219 
2  220 221 
2  222 223 
2  224 225 
2  226 227 
2  228 229 
2  230 231 
2  232 233 
2  234 235 
2  236 237 
2  238 239 
2  240 241 
2  242 243 
2  244 245 
2  246 247 
2  248 249 
2  250 251 
2  252 253 
2  254 255 

CELL_TYPES 128
3
3
3
3
3
3
3
3
3
3
3
3
3
3
3
3
3
3
3
3
3
3
3
3
3
3
3
3
3
3
3
3
3
3
3
3
3
3
3
3
3
3
3
3
3
3
3
3
3
3
3
3
3
3
3
3
3
3
3
3
3
3
3
3
3
3
3
3
3
3
3
3
3
3
3
3
3
3
3
3
3
3
3
3
3
3
3
3
3
3
3
3
3
3
3
3
3
3
3
3
3
3
3
3
3
3
3
3
3
3
3
3
3
3
3
3
3
3
3
3
3
3
3
3
3
3
3
3

POINT_DATA 256

SCALARS lambda_h float 1
LOOKUP_TABLE default
0.000000 
0.000000 
0.000000 
0.000000 
0.000000 
0.000000 
0.000000 
0.000000 
0.000000 
0.000000 
0.000000 
0.000000 
0.000000 
0.000000 
0.000000 
0.000000 
0.000000 
0.000000 
0.000000 
0.000000 
0.000000 
0.000000 
0.000000 
0.000000 
0.000000 
0.000000 
0.000000 
0.000000 
0.000000 
0.000000 
0.000000 
0.000000 
83.533593 
-167.067186 
-167.067186 
83.533593 
0.000000 
0.000000 
0.000000 
0.000000 
0.000000 
0.000000 
0.000000 
0.000000 
0.000000 
0.000000 
0.000000 
0.000000 
0.000000 
0.000000 
0.000000 
0.000000 
0.000000 
0.000000 
0.000000 
0.000000 
0.000000 
0.000000 
0.000000 
0.000000 
0.000000 
0.000000 
0.000000 
0.000000 
-2.859491 
-2.860574 
-2.873134 
-2.834372 
-2.857416 
-2.860131 
-2.858599 
-2.860479 
-2.848443 
-2.856047 
-2.851501 
-2.857536 
-2.853944 
-2.858684 
-2.855887 
-2.859538 
-2.770310 
-2.818471 
-2.789874 
-2.827503 
-2.805088 
-2.834704 
-2.817015 
-2.840466 
-2.839862 
-2.851772 
-2.844626 
-2.854154 
-2.826430 
-2.845086 
-2.833903 
-2.848796 
0.000000 
0.000000 
0.000000 
0.000000 
0.000000 
0.000000 
0.000000 
0.000000 
0.727626 
-3.004315 
-1.372186 
-2.536630 
0.000000 
0.000000 
0.516354 
-1.032708 
-2.711527 
-2.792686 
-2.744903 
-2.807094 
-2.606831 
-2.750822 
-2.667069 
-2.774336 
-1.935592 
-2.574264 
-2.226037 
-2.632046 
-2.404302 
-2.681523 
-2.523405 
-2.720539 
-2.834372 
-2.873134 
-2.860574 
-2.859491 
-2.860479 
-2.858599 
-2.860131 
-2.857416 
-2.857536 
-2.851501 
-2.856047 
-2.848443 
-2.859538 
-2.855887 
-2.858684 
-2.853944 
-2.827503 
-2.789874 
-2.818471 
-2.770310 
-2.840466 
-2.817015 
-2.834704 
-2.805088 
-2.854154 
-2.844626 
-2.851772 
-2.839862 
-2.848796 
-2.833903 
-2.845086 
-2.826430 
0.000000 
0.000000 
0.000000 
0.000000 
0.000000 
0.000000 
0.000000 
0.000000 
-2.536630 
-1.372186 
-3.004315 
0.727626 
-1.032708 
0.516354 
0.000000 
0.000000 
-2.807094 
-2.744903 
-2.792686 
-2.711527 
-2.774336 
-2.667069 
-2.750822 
-2.606831 
-2.632046 
-2.226037 
-2.574264 
-1.935592 
-2.720539 
-2.523405 
-2.681523 
-2.404302 
0.000000 
0.000000 
0.000000 
0.000000 
0.000000 
0.000000 
0.000000 
0.000000 
0.000000 
0.000000 
0.000000 
0.000000 
0.000000 
0.000000 
0.000000 
0.000000 
0.000000 
0.000000 
0.000000 
0.000000 
0.000000 
0.000000 
0.000000 
0.000000 
0.000000 
0.000000 
0.000000 
0.000000 
0.000000 
0.000000 
0.000000 
0.000000 
83.533593 
-167.067186 
-167.067186 
83.533593 
0.000000 
0.000000 
0.000000 
0.000000 
0.000000 
0.000000 
0.000000 
0.000000 
0.000000 
0.000000 
0.000000 
0.000000 
0.000000 
0.000000 
0.000000 
0.000000 
0.000000 
0.000000 
0.000000 
0.000000 
0.000000 
0.000000 
0.000000 
0.000000 
0.000000 
0.000000 
0.000000 
0.000000 

