# vtk DataFile Version 2.0
Unstructured Grid Example
ASCII
DATASET UNSTRUCTURED_GRID

POINTS 81 float
0.011085 -0.164935 0.000000 
0.988915 -0.164935 0.000000 
1.000000 1.000000 0.000000 
0.000000 1.000000 0.000000 
0.500000 -0.100000 0.000000 
0.978179 0.383451 0.000000 
0.500000 1.000000 0.000000 
0.021821 0.383451 0.000000 
0.500000 0.386365 0.000000 
0.259698 -0.142099 0.000000 
0.500000 0.128717 0.000000 
0.249085 0.110314 0.000000 
0.740302 -0.142099 0.000000 
0.750915 0.110314 0.000000 
0.992854 0.101076 0.000000 
0.741583 0.382495 0.000000 
0.967926 0.676532 0.000000 
0.737217 0.680968 0.000000 
0.750000 1.000000 0.000000 
0.500000 0.683153 0.000000 
0.250000 1.000000 0.000000 
0.262783 0.680968 0.000000 
0.032074 0.676532 0.000000 
0.258417 0.382495 0.000000 
0.007146 0.101076 0.000000 
0.135417 -0.157815 0.000000 
0.249495 -0.017524 0.000000 
0.127533 -0.030129 0.000000 
0.500000 0.013318 0.000000 
0.373014 0.006052 0.000000 
0.385129 -0.100000 0.000000 
0.375125 0.250520 0.000000 
0.372744 0.123655 0.000000 
0.500000 0.252993 0.000000 
0.614871 -0.100000 0.000000 
0.626986 0.006052 0.000000 
0.872467 -0.030129 0.000000 
0.750505 -0.017524 0.000000 
0.864583 -0.157815 0.000000 
0.627256 0.123655 0.000000 
0.624875 0.250520 0.000000 
0.994564 -0.034652 0.000000 
0.872373 0.101910 0.000000 
0.860019 0.379983 0.000000 
0.867245 0.238502 0.000000 
0.986329 0.240610 0.000000 
0.747034 0.243228 0.000000 
0.621747 0.386396 0.000000 
0.971212 0.527697 0.000000 
0.854532 0.526355 0.000000 
0.859830 0.838059 0.000000 
0.853104 0.678774 0.000000 
0.972926 0.831704 0.000000 
0.737666 0.528402 0.000000 
0.619219 0.530690 0.000000 
0.875000 1.000000 0.000000 
0.741479 0.838974 0.000000 
0.500000 0.839809 0.000000 
0.621154 0.839377 0.000000 
0.625000 1.000000 0.000000 
0.619113 0.682349 0.000000 
0.500000 0.531509 0.000000 
0.375000 1.000000 0.000000 
0.378846 0.839377 0.000000 
0.140170 0.838059 0.000000 
0.258521 0.838974 0.000000 
0.125000 1.000000 0.000000 
0.380887 0.682349 0.000000 
0.380781 0.530690 0.000000 
0.027074 0.831704 0.000000 
0.146896 0.678774 0.000000 
0.139981 0.379983 0.000000 
0.145468 0.526355 0.000000 
0.028788 0.527697 0.000000 
0.262334 0.528402 0.000000 
0.378253 0.386396 0.000000 
0.013671 0.240610 0.000000 
0.132755 0.238502 0.000000 
0.127627 0.101910 0.000000 
0.005436 -0.034652 0.000000 
0.252966 0.243228 0.000000 

CELLS 128 512
3  0 25 27 
3  9 26 25 
3  11 27 26 
3  25 26 27 
3  4 28 30 
3  10 29 28 
3  9 30 29 
3  28 29 30 
3  8 31 33 
3  11 32 31 
3  10 33 32 
3  31 32 33 
3  9 29 26 
3  10 32 29 
3  11 26 32 
3  29 32 26 
3  4 34 28 
3  12 35 34 
3  10 28 35 
3  34 35 28 
3  1 36 38 
3  13 37 36 
3  12 38 37 
3  36 37 38 
3  8 33 40 
3  10 39 33 
3  13 40 39 
3  33 39 40 
3  12 37 35 
3  13 39 37 
3  10 35 39 
3  37 39 35 
3  1 41 36 
3  14 42 41 
3  13 36 42 
3  41 42 36 
3  5 43 45 
3  15 44 43 
3  14 45 44 
3  43 44 45 
3  8 40 47 
3  13 46 40 
3  15 47 46 
3  40 46 47 
3  14 44 42 
3  15 46 44 
3  13 42 46 
3  44 46 42 
3  5 48 43 
3  16 49 48 
3  15 43 49 
3  48 49 43 
3  2 50 52 
3  17 51 50 
3  16 52 51 
3  50 51 52 
3  8 47 54 
3  15 53 47 
3  17 54 53 
3  47 53 54 
3  16 51 49 
3  17 53 51 
3  15 49 53 
3  51 53 49 
3  2 55 50 
3  18 56 55 
3  17 50 56 
3  55 56 50 
3  6 57 59 
3  19 58 57 
3  18 59 58 
3  57 58 59 
3  8 54 61 
3  17 60 54 
3  19 61 60 
3  54 60 61 
3  18 58 56 
3  19 60 58 
3  17 56 60 
3  58 60 56 
3  6 62 57 
3  20 63 62 
3  19 57 63 
3  62 63 57 
3  3 64 66 
3  21 65 64 
3  20 66 65 
3  64 65 66 
3  8 61 68 
3  19 67 61 
3  21 68 67 
3  61 67 68 
3  20 65 63 
3  21 67 65 
3  19 63 67 
3  65 67 63 
3  3 69 64 
3  22 70 69 
3  21 64 70 
3  69 70 64 
3  7 71 73 
3  23 72 71 
3  22 73 72 
3  71 72 73 
3  8 68 75 
3  21 74 68 
3  23 75 74 
3  68 74 75 
3  22 72 70 
3  23 74 72 
3  21 70 74 
3  72 74 70 
3  7 76 71 
3  24 77 76 
3  23 71 77 
3  76 77 71 
3  0 27 79 
3  11 78 27 
3  24 79 78 
3  27 78 79 
3  8 75 31 
3  23 80 75 
3  11 31 80 
3  75 80 31 
3  24 78 77 
3  11 80 78 
3  23 77 80 
3  78 80 77 

CELL_TYPES 128
5
5
5
5
5
5
5
5
5
5
5
5
5
5
5
5
5
5
5
5
5
5
5
5
5
5
5
5
5
5
5
5
5
5
5
5
5
5
5
5
5
5
5
5
5
5
5
5
5
5
5
5
5
5
5
5
5
5
5
5
5
5
5
5
5
5
5
5
5
5
5
5
5
5
5
5
5
5
5
5
5
5
5
5
5
5
5
5
5
5
5
5
5
5
5
5
5
5
5
5
5
5
5
5
5
5
5
5
5
5
5
5
5
5
5
5
5
5
5
5
5
5
5
5
5
5
5
5

POINT_DATA 81

SCALARS u_h float 2
LOOKUP_TABLE default
0.011085 -0.164935 
-0.011085 -0.164935 
0.000000 0.000000 
0.000000 0.000000 
0.000000 -0.100000 
-0.021821 -0.116549 
0.000000 0.000000 
0.021821 -0.116549 
0.000000 -0.113635 
0.009698 -0.142099 
0.000000 -0.121283 
-0.000915 -0.139686 
-0.009698 -0.142099 
0.000915 -0.139686 
-0.007146 -0.148924 
-0.008417 -0.117505 
-0.032074 -0.073468 
-0.012783 -0.069032 
0.000000 0.000000 
0.000000 -0.066847 
0.000000 0.000000 
0.012783 -0.069032 
0.032074 -0.073468 
0.008417 -0.117505 
0.007146 -0.148924 
0.010417 -0.157815 
-0.000505 -0.142524 
0.002533 -0.155129 
0.000000 -0.111682 
-0.001986 -0.118948 
0.010129 -0.100000 
0.000125 -0.124480 
-0.002256 -0.126345 
0.000000 -0.122007 
-0.010129 -0.100000 
0.001986 -0.118948 
-0.002533 -0.155129 
0.000505 -0.142524 
-0.010417 -0.157815 
0.002256 -0.126345 
-0.000125 -0.124480 
-0.005436 -0.159652 
-0.002627 -0.148090 
-0.014981 -0.120017 
-0.007755 -0.136498 
-0.013671 -0.134390 
-0.002966 -0.131772 
-0.003253 -0.113604 
-0.028788 -0.097303 
-0.020468 -0.098645 
-0.015170 -0.036941 
-0.021896 -0.071226 
-0.027074 -0.043296 
-0.012334 -0.096598 
-0.005781 -0.094310 
0.000000 0.000000 
-0.008521 -0.036026 
0.000000 -0.035191 
-0.003846 -0.035623 
0.000000 0.000000 
-0.005887 -0.067651 
0.000000 -0.093491 
0.000000 0.000000 
0.003846 -0.035623 
0.015170 -0.036941 
0.008521 -0.036026 
0.000000 0.000000 
0.005887 -0.067651 
0.005781 -0.094310 
0.027074 -0.043296 
0.021896 -0.071226 
0.014981 -0.120017 
0.020468 -0.098645 
0.028788 -0.097303 
0.012334 -0.096598 
0.003253 -0.113604 
0.013671 -0.134390 
0.007755 -0.136498 
0.002627 -0.148090 
0.005436 -0.159652 
0.002966 -0.131772 

CELL_DATA 128

SCALARS epsilon float 4
LOOKUP_TABLE default
0.000083 0.026348 0.000000 -0.003805
0.007859 0.014787 0.000000 0.022033
-0.024267 0.027881 0.000000 0.047596
-0.016268 0.032672 0.000000 0.017048
-0.084287 -0.097774 0.000000 0.000000
0.015758 -0.077817 0.000000 0.031474
0.047052 -0.053433 0.000000 0.150752
0.028510 -0.154142 0.000000 -0.012065
-0.001000 0.064915 0.000000 0.009271
-0.012634 0.018456 0.000000 0.062193
0.017884 -0.005009 0.000000 0.020361
-0.001195 0.014629 0.000000 0.019278
0.006931 0.029887 0.000000 0.053329
0.017978 -0.059939 0.000000 0.020458
-0.010438 0.028352 0.000000 0.050518
-0.011469 -0.039926 0.000000 0.099132
-0.084287 -0.097774 0.000000 0.000000
0.047052 -0.053433 0.000000 -0.150752
0.015758 -0.077817 0.000000 -0.031474
0.028510 -0.154142 0.000000 0.012065
0.000083 0.026348 0.000000 0.003805
-0.024267 0.027881 0.000000 -0.047596
0.007859 0.014787 0.000000 -0.022033
-0.016268 0.032672 0.000000 -0.017048
-0.001000 0.064915 0.000000 -0.009271
0.017884 -0.005009 0.000000 -0.020361
-0.012634 0.018456 0.000000 -0.062193
-0.001195 0.014629 0.000000 -0.019278
0.006931 0.029887 0.000000 -0.053329
-0.010438 0.028352 0.000000 -0.050518
0.017978 -0.059939 0.000000 -0.020458
-0.011469 -0.039926 0.000000 -0.099132
-0.020910 0.043602 0.000000 0.005739
-0.036801 0.082099 0.000000 -0.010118
-0.028786 0.056825 0.000000 -0.032188
-0.023522 0.055317 0.000000 -0.017505
-0.052731 0.134681 0.000000 -0.021838
-0.053512 0.122384 0.000000 -0.038945
-0.046412 0.110531 0.000000 -0.019559
-0.046105 0.124290 0.000000 -0.022490
-0.026076 0.083249 0.000000 -0.012653
-0.024279 0.061158 0.000000 -0.043241
-0.042600 0.106854 0.000000 -0.036487
-0.024080 0.083389 0.000000 -0.039539
-0.036300 0.088232 0.000000 -0.024176
-0.039756 0.106788 0.000000 -0.039382
-0.030304 0.061426 0.000000 -0.047507
-0.039760 0.087652 0.000000 -0.038451
-0.053501 0.144040 0.000000 -0.016964
-0.068232 0.173255 0.000000 -0.009230
-0.053897 0.156054 0.000000 -0.031228
-0.067529 0.157139 0.000000 -0.018448
-0.075281 0.299595 0.000000 0.092650
-0.073717 0.239280 0.000000 0.020822
-0.083470 0.214079 0.000000 0.013774
-0.096286 0.241635 0.000000 0.008596
-0.026195 0.142661 0.000000 -0.010091
-0.042643 0.153087 0.000000 -0.029351
-0.053844 0.197077 0.000000 -0.009313
-0.053959 0.142464 0.000000 -0.018386
-0.084839 0.196025 0.000000 -0.013316
-0.075597 0.197073 0.000000 -0.009022
-0.067240 0.153206 0.000000 -0.023395
-0.067298 0.196018 0.000000 -0.012593
0.004388 0.254131 0.000000 0.057523
0.001400 0.248754 0.000000 0.032377
-0.053994 0.230928 0.000000 0.014334
-0.048998 0.254835 0.000000 0.057923
0.000000 0.243811 0.000000 -0.000000
-0.031243 0.222492 0.000000 -0.001377
0.000287 0.246372 0.000000 0.014628
-0.030853 0.246457 0.000000 0.013749
-0.047313 0.148433 0.000000 -0.002815
-0.056694 0.191272 0.000000 -0.004975
-0.048202 0.191154 0.000000 -0.002645
-0.047317 0.191245 0.000000 -0.003125
-0.036406 0.248926 0.000000 0.032382
-0.048021 0.224862 0.000000 0.005655
-0.055964 0.231055 0.000000 0.012899
-0.037958 0.224809 0.000000 0.006845
0.000000 0.243811 0.000000 -0.000000
0.000287 0.246372 0.000000 -0.014628
-0.031243 0.222492 0.000000 0.001377
-0.030853 0.246457 0.000000 -0.013749
0.004388 0.254131 0.000000 -0.057523
-0.053994 0.230928 0.000000 -0.014334
0.001400 0.248754 0.000000 -0.032377
-0.048998 0.254835 0.000000 -0.057923
-0.047313 0.148433 0.000000 0.002815
-0.048202 0.191154 0.000000 0.002645
-0.056694 0.191272 0.000000 0.004975
-0.047317 0.191245 0.000000 0.003125
-0.036406 0.248926 0.000000 -0.032382
-0.055964 0.231055 0.000000 -0.012899
-0.048021 0.224862 0.000000 -0.005655
-0.037958 0.224809 0.000000 -0.006845
-0.075281 0.299595 0.000000 -0.092650
-0.083470 0.214079 0.000000 -0.013774
-0.073717 0.239280 0.000000 -0.020822
-0.096286 0.241635 0.000000 -0.008596
-0.053501 0.144040 0.000000 0.016964
-0.053897 0.156054 0.000000 0.031228
-0.068232 0.173255 0.000000 0.009230
-0.067529 0.157139 0.000000 0.018448
-0.026195 0.142661 0.000000 0.010091
-0.053844 0.197077 0.000000 0.009313
-0.042643 0.153087 0.000000 0.029351
-0.053959 0.142464 0.000000 0.018386
-0.084839 0.196025 0.000000 0.013316
-0.067240 0.153206 0.000000 0.023395
-0.075597 0.197073 0.000000 0.009022
-0.067298 0.196018 0.000000 0.012593
-0.052731 0.134681 0.000000 0.021838
-0.046412 0.110531 0.000000 0.019559
-0.053512 0.122384 0.000000 0.038945
-0.046105 0.124290 0.000000 0.022490
-0.020910 0.043602 0.000000 -0.005739
-0.028786 0.056825 0.000000 0.032188
-0.036801 0.082099 0.000000 0.010118
-0.023522 0.055317 0.000000 0.017505
-0.026076 0.083249 0.000000 0.012653
-0.042600 0.106854 0.000000 0.036487
-0.024279 0.061158 0.000000 0.043241
-0.024080 0.083389 0.000000 0.039539
-0.036300 0.088232 0.000000 0.024176
-0.030304 0.061426 0.000000 0.047507
-0.039756 0.106788 0.000000 0.039382
-0.039760 0.087652 0.000000 0.038451

SCALARS sigma float 4
LOOKUP_TABLE default
0.196525 0.628169 0.226564 -0.049149
0.188235 0.226807 0.114023 0.361271
-0.423534 0.348877 -0.020510 0.801546
-0.213678 0.535165 0.088321 0.308816
-3.358677 -3.603263 -1.912621 0.000000
-0.419198 -2.040078 -0.675625 0.508223
-0.289276 -3.165433 -0.949096 2.225148
-1.128557 -4.294361 -1.489813 -0.366618
0.601319 1.647194 0.617723 0.152202
-0.213466 0.206390 -0.001944 1.029258
0.409732 0.023460 0.119009 0.328101
0.107126 0.364740 0.129633 0.314162
0.215242 0.353677 0.156297 0.877087
-0.157686 -1.479884 -0.449882 0.328174
-0.051775 0.490014 0.120395 0.838177
-0.928975 -1.763696 -0.739745 1.643769
-3.358677 -3.603263 -1.912621 0.000000
-0.289276 -3.165433 -0.949096 -2.225148
-0.419198 -2.040078 -0.675625 -0.508223
-1.128557 -4.294361 -1.489813 0.366618
0.196525 0.628169 0.226564 0.049149
-0.423534 0.348877 -0.020510 -0.801546
0.188235 0.226807 0.114023 -0.361271
-0.213678 0.535165 0.088321 -0.308816
0.601319 1.647194 0.617723 -0.152202
0.409732 0.023460 0.119009 -0.328101
-0.213466 0.206390 -0.001944 -1.029258
0.107126 0.364740 0.129633 -0.314162
0.215242 0.353677 0.156297 -0.877087
-0.051775 0.490014 0.120395 -0.838177
-0.157686 -1.479884 -0.449882 -0.328174
-0.928975 -1.763696 -0.739745 -1.643769
-0.163551 0.889721 0.199497 0.072379
-0.202837 1.708647 0.413684 -0.159435
-0.238626 1.113948 0.240473 -0.543252
-0.095653 1.168597 0.294765 -0.293611
-0.217940 2.774884 0.702457 -0.283898
-0.338064 2.484412 0.589656 -0.596280
-0.239450 2.281382 0.560970 -0.272238
-0.113473 2.609189 0.685636 -0.311074
0.095244 1.846070 0.533328 -0.191938
-0.082062 1.278165 0.328600 -0.706496
-0.159783 2.229986 0.568737 -0.575092
0.136659 1.833015 0.541119 -0.644329
-0.150874 1.856527 0.468586 -0.371412
-0.083607 2.253448 0.596110 -0.624091
-0.248503 1.209194 0.263926 -0.781592
-0.257288 1.791008 0.421352 -0.616050
-0.142260 2.990870 0.782585 -0.210123
-0.271791 3.522951 0.893176 -0.114657
-0.032067 3.274063 0.890658 -0.473319
-0.406529 3.155910 0.755325 -0.248649
0.121837 6.013805 1.685616 1.105774
0.105396 4.921205 1.380934 0.251461
-0.372430 4.267209 1.069994 0.158518
-0.538622 4.705088 1.144634 0.021061
0.631955 3.263072 1.070062 -0.145723
0.263697 3.322994 0.985355 -0.458670
0.344271 4.214987 1.252543 -0.155310
-0.135714 2.965570 0.777433 -0.288940
-0.547859 3.856838 0.909060 -0.215011
-0.271260 3.981853 1.019393 -0.153255
-0.422068 3.071064 0.727746 -0.358643
-0.044692 4.047782 1.099750 -0.199980
2.281135 6.022195 2.281135 0.768158
2.237273 5.906400 2.237273 0.433900
0.613075 4.959449 1.530913 0.183442
0.823592 5.482728 1.732505 0.761830
2.196810 5.799579 2.196810 -0.000000
1.182592 5.017216 1.703244 -0.023326
2.217793 5.854974 2.217793 0.196357
1.382659 5.540137 1.901867 0.179826
0.107765 3.179046 0.902970 -0.048513
0.216033 4.056519 1.173778 -0.085134
0.452260 4.144326 1.262798 -0.045632
0.477577 4.155651 1.272865 -0.052450
1.217934 5.523398 1.852014 0.429357
0.737989 4.893154 1.547017 0.067756
0.558723 4.940773 1.510851 0.158193
1.015595 4.997512 1.651952 0.088833
2.196810 5.799579 2.196810 -0.000000
2.217793 5.854974 2.217793 -0.196357
1.182592 5.017216 1.703244 0.023326
1.382659 5.540137 1.901867 -0.179826
2.281135 6.022195 2.281135 -0.768158
0.613075 4.959449 1.530913 -0.183442
2.237273 5.906400 2.237273 -0.433900
0.823592 5.482728 1.732505 -0.761830
0.107765 3.179046 0.902970 0.048513
0.452260 4.144326 1.262798 0.045632
0.216033 4.056519 1.173778 0.085134
0.477577 4.155651 1.272865 0.052450
1.217934 5.523398 1.852014 -0.429357
0.558723 4.940773 1.510851 -0.158193
0.737989 4.893154 1.547017 -0.067756
1.015595 4.997512 1.651952 -0.088833
0.121837 6.013805 1.685616 -1.105774
-0.372430 4.267209 1.069994 -0.158518
0.105396 4.921205 1.380934 -0.251461
-0.538622 4.705088 1.144634 -0.021061
-0.142260 2.990870 0.782585 0.210123
-0.032067 3.274063 0.890658 0.473319
-0.271791 3.522951 0.893176 0.114657
-0.406529 3.155910 0.755325 0.248649
0.631955 3.263072 1.070062 0.145723
0.344271 4.214987 1.252543 0.155310
0.263697 3.322994 0.985355 0.458670
-0.135714 2.965570 0.777433 0.288940
-0.547859 3.856838 0.909060 0.215011
-0.422068 3.071064 0.727746 0.358643
-0.271260 3.981853 1.019393 0.153255
-0.044692 4.047782 1.099750 0.199980
-0.217940 2.774884 0.702457 0.283898
-0.239450 2.281382 0.560970 0.272238
-0.338064 2.484412 0.589656 0.596280
-0.113473 2.609189 0.685636 0.311074
-0.163551 0.889721 0.199497 -0.072379
-0.238626 1.113948 0.240473 0.543252
-0.202837 1.708647 0.413684 0.159435
-0.095653 1.168597 0.294765 0.293611
0.095244 1.846070 0.533328 0.191938
-0.159783 2.229986 0.568737 0.575092
-0.082062 1.278165 0.328600 0.706496
0.136659 1.833015 0.541119 0.644329
-0.150874 1.856527 0.468586 0.371412
-0.248503 1.209194 0.263926 0.781592
-0.083607 2.253448 0.596110 0.624091
-0.257288 1.791008 0.421352 0.616050

