# vtk DataFile Version 2.0
Unstructured Grid Example
ASCII
DATASET UNSTRUCTURED_GRID

POINTS 16641 float
0.007737 -0.142205 0.000000 
0.992263 -0.142205 0.000000 
1.000000 1.000000 0.000000 
0.000000 1.000000 0.000000 
0.500000 -0.100000 0.000000 
0.982198 0.397188 0.000000 
0.500000 1.000000 0.000000 
0.017802 0.397188 0.000000 
0.500000 0.395400 0.000000 
0.251406 -0.073093 0.000000 
0.500000 0.134872 0.000000 
0.248129 0.130908 0.000000 
0.748594 -0.073093 0.000000 
0.751871 0.130908 0.000000 
0.999853 0.122981 0.000000 
0.742519 0.392978 0.000000 
0.969113 0.683647 0.000000 
0.737148 0.685493 0.000000 
0.750000 1.000000 0.000000 
0.500000 0.686616 0.000000 
0.250000 1.000000 0.000000 
0.262852 0.685493 0.000000 
0.030887 0.683647 0.000000 
0.257481 0.392978 0.000000 
0.000147 0.122981 0.000000 
0.134660 -0.129289 0.000000 
0.248289 0.014349 0.000000 
0.121144 -0.002783 0.000000 
0.500000 0.014743 0.000000 
0.375703 0.015080 0.000000 
0.376047 -0.100000 0.000000 
0.376100 0.260407 0.000000 
0.374733 0.134266 0.000000 
0.500000 0.261292 0.000000 
0.623953 -0.100000 0.000000 
0.624297 0.015080 0.000000 
0.878856 -0.002783 0.000000 
0.751711 0.014349 0.000000 
0.865340 -0.129289 0.000000 
0.625267 0.134266 0.000000 
0.623900 0.260407 0.000000 
1.001073 -0.012282 0.000000 
0.877521 0.124106 0.000000 
0.862688 0.392343 0.000000 
0.870733 0.255420 0.000000 
0.991883 0.259099 0.000000 
0.747820 0.257821 0.000000 
0.621483 0.394687 0.000000 
0.973705 0.538439 0.000000 
0.856040 0.535128 0.000000 
0.858793 0.840082 0.000000 
0.853443 0.684220 0.000000 
0.972715 0.833929 0.000000 
0.738258 0.535718 0.000000 
0.619494 0.536944 0.000000 
0.875000 1.000000 0.000000 
0.741117 0.841093 0.000000 
0.500000 0.841342 0.000000 
0.621040 0.841289 0.000000 
0.625000 1.000000 0.000000 
0.619104 0.686321 0.000000 
0.500000 0.537468 0.000000 
0.375000 1.000000 0.000000 
0.378960 0.841289 0.000000 
0.141207 0.840082 0.000000 
0.258883 0.841093 0.000000 
0.125000 1.000000 0.000000 
0.380896 0.686321 0.000000 
0.380506 0.536944 0.000000 
0.027285 0.833929 0.000000 
0.146557 0.684220 0.000000 
0.137312 0.392343 0.000000 
0.143960 0.535128 0.000000 
0.026295 0.538439 0.000000 
0.261742 0.535718 0.000000 
0.378517 0.394687 0.000000 
0.008117 0.259099 0.000000 
0.129267 0.255420 0.000000 
0.122479 0.124106 0.000000 
-0.001073 -0.012282 0.000000 
0.252180 0.257821 0.000000 
0.070532 -0.136939 0.000000 
0.125312 -0.066174 0.000000 
0.064185 -0.073684 0.000000 
0.251539 -0.036509 0.000000 
0.185684 -0.051837 0.000000 
0.199866 -0.113593 0.000000 
0.183414 0.066084 0.000000 
0.183324 0.006592 0.000000 
0.247449 0.071026 0.000000 
0.500000 -0.043337 0.000000 
0.438034 -0.043298 0.000000 
0.438024 -0.100000 0.000000 
0.437588 0.074108 0.000000 
0.437870 0.014802 0.000000 
0.500000 0.074129 0.000000 
0.313708 -0.100000 0.000000 
0.376256 -0.043043 0.000000 
0.315257 -0.041291 0.000000 
0.438630 0.327138 0.000000 
0.438070 0.261073 0.000000 
0.500000 0.327347 0.000000 
0.311588 0.133139 0.000000 
0.375180 0.196344 0.000000 
0.312534 0.195130 0.000000 
0.500000 0.197184 0.000000 
0.437653 0.196986 0.000000 
0.437477 0.134742 0.000000 
0.313012 0.015672 0.000000 
0.374933 0.073988 0.000000 
0.311627 0.073365 0.000000 
0.561976 -0.100000 0.000000 
0.561966 -0.043298 0.000000 
0.684743 -0.041291 0.000000 
0.623744 -0.043043 0.000000 
0.686292 -0.100000 0.000000 
0.562130 0.014802 0.000000 
0.562412 0.074108 0.000000 
0.935815 -0.073684 0.000000 
0.874688 -0.066174 0.000000 
0.929468 -0.136939 0.000000 
0.752551 0.071026 0.000000 
0.816676 0.006592 0.000000 
0.816586 0.066084 0.000000 
0.800134 -0.113593 0.000000 
0.814316 -0.051837 0.000000 
0.748461 -0.036509 0.000000 
0.561930 0.261073 0.000000 
0.561370 0.327138 0.000000 
0.562523 0.134742 0.000000 
0.562347 0.196986 0.000000 
0.687466 0.195130 0.000000 
0.624820 0.196344 0.000000 
0.688412 0.133139 0.000000 
0.686988 0.015672 0.000000 
0.688373 0.073365 0.000000 
0.625067 0.073988 0.000000 
0.997433 -0.078499 0.000000 
0.940024 -0.009006 0.000000 
0.939052 0.122096 0.000000 
0.940830 0.056271 0.000000 
1.001735 0.055195 0.000000 
0.879263 0.060322 0.000000 
0.815100 0.127561 0.000000 
0.922471 0.393720 0.000000 
0.926973 0.324337 0.000000 
0.987047 0.327801 0.000000 
0.806088 0.323439 0.000000 
0.866687 0.323166 0.000000 
0.802722 0.392307 0.000000 
0.996324 0.190897 0.000000 
0.931502 0.256004 0.000000 
0.935696 0.188627 0.000000 
0.622723 0.326522 0.000000 
0.560767 0.395228 0.000000 
0.750165 0.193269 0.000000 
0.685898 0.259291 0.000000 
0.682089 0.393877 0.000000 
0.684017 0.325560 0.000000 
0.745173 0.324420 0.000000 
0.874487 0.189082 0.000000 
0.809487 0.256321 0.000000 
0.812608 0.191003 0.000000 
0.977646 0.467357 0.000000 
0.918309 0.464240 0.000000 
0.912257 0.609059 0.000000 
0.914789 0.535984 0.000000 
0.970718 0.610506 0.000000 
0.859039 0.462982 0.000000 
0.799680 0.462897 0.000000 
0.924463 0.918716 0.000000 
0.916049 0.838126 0.000000 
0.980513 0.912305 0.000000 
0.795515 0.684902 0.000000 
0.854813 0.761316 0.000000 
0.796957 0.762188 0.000000 
0.969478 0.758013 0.000000 
0.912107 0.759851 0.000000 
0.911157 0.683608 0.000000 
0.620355 0.464857 0.000000 
0.560216 0.465320 0.000000 
0.740127 0.463429 0.000000 
0.680345 0.464172 0.000000 
0.678265 0.610349 0.000000 
0.679002 0.536366 0.000000 
0.737175 0.609774 0.000000 
0.854034 0.608847 0.000000 
0.795741 0.609208 0.000000 
0.797248 0.535199 0.000000 
0.937500 1.000000 0.000000 
0.865823 0.920021 0.000000 
0.745122 0.920309 0.000000 
0.805792 0.920276 0.000000 
0.812500 1.000000 0.000000 
0.800387 0.840813 0.000000 
0.738420 0.762695 0.000000 
0.500000 0.920263 0.000000 
0.561452 0.920266 0.000000 
0.562500 1.000000 0.000000 
0.559952 0.763348 0.000000 
0.560576 0.841328 0.000000 
0.500000 0.763391 0.000000 
0.687500 1.000000 0.000000 
0.622840 0.920276 0.000000 
0.684093 0.920294 0.000000 
0.559797 0.537332 0.000000 
0.500000 0.465482 0.000000 
0.678319 0.685968 0.000000 
0.619038 0.610823 0.000000 
0.500000 0.611239 0.000000 
0.559580 0.611131 0.000000 
0.559620 0.686540 0.000000 
0.681269 0.841220 0.000000 
0.619768 0.763224 0.000000 
0.679306 0.763015 0.000000 
0.437500 1.000000 0.000000 
0.438548 0.920266 0.000000 
0.315907 0.920294 0.000000 
0.377160 0.920276 0.000000 
0.312500 1.000000 0.000000 
0.439424 0.841328 0.000000 
0.440048 0.763348 0.000000 
0.075537 0.918716 0.000000 
0.134177 0.920021 0.000000 
0.062500 1.000000 0.000000 
0.261580 0.762695 0.000000 
0.199613 0.840813 0.000000 
0.203043 0.762188 0.000000 
0.187500 1.000000 0.000000 
0.194208 0.920276 0.000000 
0.254878 0.920309 0.000000 
0.440203 0.537332 0.000000 
0.439784 0.465320 0.000000 
0.440380 0.686540 0.000000 
0.440420 0.611131 0.000000 
0.321735 0.610349 0.000000 
0.380962 0.610823 0.000000 
0.321681 0.685968 0.000000 
0.318731 0.841220 0.000000 
0.320694 0.763015 0.000000 
0.380232 0.763224 0.000000 
0.019487 0.912305 0.000000 
0.083951 0.838126 0.000000 
0.088843 0.683608 0.000000 
0.087893 0.759851 0.000000 
0.030522 0.758013 0.000000 
0.145187 0.761316 0.000000 
0.204485 0.684902 0.000000 
0.077529 0.393720 0.000000 
0.081691 0.464240 0.000000 
0.022354 0.467357 0.000000 
0.200320 0.462897 0.000000 
0.140961 0.462982 0.000000 
0.197278 0.392307 0.000000 
0.029282 0.610506 0.000000 
0.085211 0.535984 0.000000 
0.087743 0.609059 0.000000 
0.379645 0.464857 0.000000 
0.439233 0.395228 0.000000 
0.262825 0.609774 0.000000 
0.320998 0.536366 0.000000 
0.317911 0.393877 0.000000 
0.319655 0.464172 0.000000 
0.259873 0.463429 0.000000 
0.145966 0.608847 0.000000 
0.202752 0.535199 0.000000 
0.204259 0.609208 0.000000 
0.012953 0.327801 0.000000 
0.073027 0.324337 0.000000 
0.064304 0.188627 0.000000 
0.068498 0.256004 0.000000 
0.003676 0.190897 0.000000 
0.133313 0.323166 0.000000 
0.193912 0.323439 0.000000 
0.059976 -0.009006 0.000000 
0.002567 -0.078499 0.000000 
0.184900 0.127561 0.000000 
0.120737 0.060322 0.000000 
-0.001735 0.055195 0.000000 
0.059170 0.056271 0.000000 
0.060948 0.122096 0.000000 
0.377277 0.326522 0.000000 
0.254827 0.324420 0.000000 
0.315983 0.325560 0.000000 
0.314102 0.259291 0.000000 
0.249835 0.193269 0.000000 
0.125513 0.189082 0.000000 
0.187392 0.191003 0.000000 
0.190513 0.256321 0.000000 
0.039000 -0.139635 0.000000 
0.067338 -0.105569 0.000000 
0.036202 -0.108177 0.000000 
0.129486 -0.097990 0.000000 
0.098480 -0.102355 0.000000 
0.102427 -0.133664 0.000000 
0.092185 -0.038438 0.000000 
0.094866 -0.070507 0.000000 
0.122609 -0.034389 0.000000 
0.254810 -0.056329 0.000000 
0.219410 -0.066995 0.000000 
0.231970 -0.095694 0.000000 
0.216158 -0.016091 0.000000 
0.217240 -0.042024 0.000000 
0.249517 -0.012169 0.000000 
0.167172 -0.123087 0.000000 
0.189901 -0.082158 0.000000 
0.160093 -0.091717 0.000000 
0.215729 0.098772 0.000000 
0.215307 0.068834 0.000000 
0.247634 0.100629 0.000000 
0.151967 0.001634 0.000000 
0.183166 0.036100 0.000000 
0.151654 0.032288 0.000000 
0.247640 0.042204 0.000000 
0.215218 0.039604 0.000000 
0.215494 0.011219 0.000000 
0.155483 -0.060127 0.000000 
0.184016 -0.022575 0.000000 
0.153072 -0.029063 0.000000 
0.500000 -0.071852 0.000000 
0.469013 -0.071849 0.000000 
0.469011 -0.100000 0.000000 
0.468985 -0.014452 0.000000 
0.469009 -0.043328 0.000000 
0.500000 -0.014466 0.000000 
0.407039 -0.100000 0.000000 
0.438033 -0.071837 0.000000 
0.407073 -0.071809 0.000000 
0.468764 0.104301 0.000000 
0.468807 0.074124 0.000000 
0.500000 0.104320 0.000000 
0.406801 0.014900 0.000000 
0.437724 0.044304 0.000000 
0.406540 0.044346 0.000000 
0.500000 0.044275 0.000000 
0.468869 0.044282 0.000000 
0.468935 0.014757 0.000000 
0.281103 -0.097507 0.000000 
0.315109 -0.070706 0.000000 
0.286252 -0.066359 0.000000 
0.376159 -0.071741 0.000000 
0.345378 -0.071540 0.000000 
0.345007 -0.100000 0.000000 
0.345202 -0.013573 0.000000 
0.345607 -0.042571 0.000000 
0.376088 -0.014062 0.000000 
0.437983 -0.014405 0.000000 
0.407011 -0.014297 0.000000 
0.407100 -0.043223 0.000000 
0.469463 0.361078 0.000000 
[...]
POINT_DATA 16641

SCALARS u_h float 2
LOOKUP_TABLE default
0.007737 -0.142205 
-0.007737 -0.142205 
0.000000 0.000000 
0.000000 0.000000 
0.000000 -0.100000 
-0.017802 -0.102812 
0.000000 0.000000 
0.017802 -0.102812 
0.000000 -0.104600 
0.001406 -0.073093 
0.000000 -0.115128 
-0.001871 -0.119092 
-0.001406 -0.073093 
0.001871 -0.119092 
-0.000147 -0.127019 
-0.007481 -0.107022 
-0.030887 -0.066353 
-0.012852 -0.064507 
0.000000 0.000000 
0.000000 -0.063384 
0.000000 0.000000 
0.012852 -0.064507 
0.030887 -0.066353 
0.007481 -0.107022 
0.000147 -0.127019 
0.009660 -0.129289 
-0.001711 -0.110651 
-0.003856 -0.127783 
0.000000 -0.110257 
0.000703 -0.109920 
0.001047 -0.100000 
0.001100 -0.114593 
-0.000267 -0.115734 
0.000000 -0.113708 
-0.001047 -0.100000 
-0.000703 -0.109920 
0.003856 -0.127783 
0.001711 -0.110651 
-0.009660 -0.129289 
0.000267 -0.115734 
-0.001100 -0.114593 
0.001073 -0.137282 
0.002521 -0.125894 
-0.012312 -0.107657 
-0.004267 -0.119580 
-0.008117 -0.115901 
-0.002180 -0.117179 
-0.003517 -0.105313 
-0.026295 -0.086561 
-0.018960 -0.089872 
-0.016207 -0.034918 
-0.021557 -0.065780 
-0.027285 -0.041071 
-0.011742 -0.089282 
-0.005506 -0.088056 
0.000000 0.000000 
-0.008883 -0.033907 
0.000000 -0.033658 
-0.003960 -0.033711 
0.000000 0.000000 
-0.005896 -0.063679 
0.000000 -0.087532 
0.000000 0.000000 
0.003960 -0.033711 
0.016207 -0.034918 
0.008883 -0.033907 
0.000000 0.000000 
0.005896 -0.063679 
0.005506 -0.088056 
0.027285 -0.041071 
0.021557 -0.065780 
0.012312 -0.107657 
0.018960 -0.089872 
0.026295 -0.086561 
0.011742 -0.089282 
0.003517 -0.105313 
0.008117 -0.115901 
0.004267 -0.119580 
-0.002521 -0.125894 
-0.001073 -0.137282 
0.002180 -0.117179 
0.008032 -0.136939 
0.000312 -0.128674 
0.001685 -0.136184 
0.001539 -0.099009 
-0.001816 -0.114337 
0.012366 -0.113593 
-0.004086 -0.121416 
-0.004176 -0.118408 
-0.002551 -0.116474 
0.000000 -0.105837 
0.000534 -0.105798 
0.000524 -0.100000 
0.000088 -0.113392 
0.000370 -0.110198 
0.000000 -0.113371 
0.001208 -0.100000 
0.001256 -0.105543 
0.002757 -0.103791 
0.001130 -0.110362 
0.000570 -0.113927 
0.000000 -0.110153 
-0.000912 -0.116861 
0.000180 -0.116156 
0.000034 -0.117370 
0.000000 -0.115316 
0.000153 -0.115514 
-0.000023 -0.115258 
0.000512 -0.109328 
-0.000067 -0.113512 
-0.000873 -0.114135 
-0.000524 -0.100000 
-0.000534 -0.105798 
-0.002757 -0.103791 
-0.001256 -0.105543 
-0.001208 -0.100000 
-0.000370 -0.110198 
-0.000088 -0.113392 
-0.001685 -0.136184 
-0.000312 -0.128674 
-0.008032 -0.136939 
0.002551 -0.116474 
0.004176 -0.118408 
0.004086 -0.121416 
-0.012366 -0.113593 
0.001816 -0.114337 
-0.001539 -0.099009 
-0.000570 -0.113927 
-0.001130 -0.110362 
0.000023 -0.115258 
-0.000153 -0.115514 
-0.000034 -0.117370 
-0.000180 -0.116156 
0.000912 -0.116861 
-0.000512 -0.109328 
0.000873 -0.114135 
0.000067 -0.113512 
-0.002567 -0.140999 
0.002524 -0.134006 
0.001552 -0.127904 
0.003330 -0.131229 
0.001735 -0.132305 
0.004263 -0.127178 
0.002600 -0.122439 
-0.015029 -0.106280 
-0.010527 -0.113163 
-0.012953 -0.109699 
-0.006412 -0.114061 
-0.008313 -0.114334 
-0.009778 -0.107693 
-0.003676 -0.121603 
-0.005998 -0.118996 
-0.001804 -0.123873 
-0.002277 -0.110978 
-0.001733 -0.104772 
0.000165 -0.119231 
-0.001602 -0.115709 
-0.005411 -0.106123 
-0.003483 -0.111940 
-0.004827 -0.113080 
-0.000513 -0.123418 
-0.003013 -0.118679 
0.000108 -0.121497 
-0.022354 -0.095143 
-0.019191 -0.098260 
-0.025243 -0.078441 
-0.022711 -0.089016 
-0.029282 -0.076994 
-0.015961 -0.099518 
-0.012820 -0.099603 
-0.013037 -0.018784 
-0.021451 -0.036874 
-0.019487 -0.025195 
-0.016985 -0.065098 
-0.020187 -0.051184 
-0.015543 -0.050312 
-0.030522 -0.054487 
-0.025393 -0.052649 
-0.026343 -0.066392 
-0.004645 -0.097643 
-0.002284 -0.097180 
-0.009873 -0.099071 
-0.007155 -0.098328 
-0.009235 -0.077151 
-0.008498 -0.088634 
-0.012825 -0.077726 
-0.020966 -0.078653 
-0.016759 -0.078292 
-0.015252 -0.089801 
0.000000 0.000000 
-0.009177 -0.017479 
-0.004878 -0.017191 
-0.006708 -0.017224 
0.000000 0.000000 
-0.012113 -0.034187 
-0.011580 -0.049805 
0.000000 -0.017237 
-0.001048 -0.017234 
0.000000 0.000000 
-0.002548 -0.049152 
-0.001924 -0.033672 
0.000000 -0.049109 
0.000000 0.000000 
-0.002160 -0.017224 
-0.003407 -0.017206 
-0.002703 -0.087668 
0.000000 -0.097018 
-0.009181 -0.064032 
-0.005962 -0.076677 
0.000000 -0.076261 
-0.002920 -0.076369 
-0.002880 -0.063460 
-0.006231 -0.033780 
-0.005232 -0.049276 
-0.008194 -0.049485 
0.000000 0.000000 
0.001048 -0.017234 
0.003407 -0.017206 
0.002160 -0.017224 
0.000000 0.000000 
0.001924 -0.033672 
0.002548 -0.049152 
0.013037 -0.018784 
0.009177 -0.017479 
0.000000 0.000000 
0.011580 -0.049805 
0.012113 -0.034187 
0.015543 -0.050312 
0.000000 0.000000 
0.006708 -0.017224 
0.004878 -0.017191 
0.002703 -0.087668 
0.002284 -0.097180 
0.002880 -0.063460 
0.002920 -0.076369 
0.009235 -0.077151 
0.005962 -0.076677 
0.009181 -0.064032 
0.006231 -0.033780 
0.008194 -0.049485 
0.005232 -0.049276 
0.019487 -0.025195 
0.021451 -0.036874 
0.026343 -0.066392 
0.025393 -0.052649 
0.030522 -0.054487 
0.020187 -0.051184 
0.016985 -0.065098 
0.015029 -0.106280 
0.019191 -0.098260 
0.022354 -0.095143 
0.012820 -0.099603 
0.015961 -0.099518 
0.009778 -0.107693 
0.029282 -0.076994 
0.022711 -0.089016 
0.025243 -0.078441 
0.004645 -0.097643 
0.001733 -0.104772 
0.012825 -0.077726 
0.008498 -0.088634 
0.005411 -0.106123 
0.007155 -0.098328 
0.009873 -0.099071 
0.020966 -0.078653 
0.015252 -0.089801 
0.016759 -0.078292 
0.012953 -0.109699 
0.010527 -0.113163 
0.001804 -0.123873 
0.005998 -0.118996 
0.003676 -0.121603 
0.008313 -0.114334 
0.006412 -0.114061 
-0.002524 -0.134006 
0.002567 -0.140999 
-0.002600 -0.122439 
-0.004263 -0.127178 
-0.001735 -0.132305 
-0.003330 -0.131229 
-0.001552 -0.127904 
0.002277 -0.110978 
0.004827 -0.113080 
0.003483 -0.111940 
0.001602 -0.115709 
-0.000165 -0.119231 
0.000513 -0.123418 
-0.000108 -0.121497 
0.003013 -0.118679 
0.007750 -0.139635 
0.004838 -0.136819 
0.004952 -0.139427 
0.004486 -0.129240 
0.004730 -0.133605 
0.008677 -0.133664 
-0.001565 -0.132188 
0.001116 -0.133007 
-0.002391 -0.128139 
0.004810 -0.087579 
0.000660 -0.098245 
0.013220 -0.095694 
-0.002592 -0.109841 
-0.001510 -0.104524 
-0.000483 -0.105919 
0.010922 -0.123087 
0.002401 -0.113408 
0.003843 -0.122967 
-0.003021 -0.119978 
-0.003443 -0.118666 
-0.002366 -0.118121 
-0.004283 -0.123366 
-0.004334 -0.120150 
-0.004596 -0.123962 
-0.002360 -0.114046 
-0.003532 -0.116646 
-0.003256 -0.113781 
-0.000767 -0.122627 
-0.003484 -0.116325 
-0.003178 -0.122813 
0.000000 -0.103102 
0.000263 -0.103099 
0.000261 -0.100000 
0.000235 -0.108202 
0.000259 -0.105828 
0.000000 -0.108216 
0.000789 -0.100000 
0.000533 -0.103087 
0.000823 -0.103059 
0.000014 -0.114449 
0.000057 -0.113376 
0.000000 -0.114430 
0.000551 -0.110100 
0.000224 -0.111946 
0.000290 -0.111904 
0.000000 -0.111975 
0.000119 -0.111968 
0.000185 -0.110243 
-0.000147 -0.097507 
0.002609 -0.101956 
0.005002 -0.097609 
0.001159 -0.102991 
0.001628 -0.102790 
0.001257 -0.100000 
0.001452 -0.107323 
0.001857 -0.105071 
0.001088 -0.107812 
0.000483 -0.108155 
0.000761 -0.108047 
0.000850 -0.105723 
0.000713 -0.107672 
0.000564 -0.110205 
0.000000 -0.107624 
0.000841 -0.114203 
0.000839 -0.112396 
0.001255 -0.112667 
0.000000 -0.112180 
0.000420 -0.112234 
0.000288 -0.113763 
-0.001377 -0.117817 
-0.000538 -0.117391 
-0.000830 -0.118308 
-0.000116 -0.116186 
-0.000292 -0.116693 
-0.000535 -0.116188 
0.000686 -0.116152 
0.000126 -0.116683 
0.000595 -0.115629 
0.000000 -0.115433 
0.000026 -0.115475 
0.000002 -0.115160 
0.000174 -0.114801 
0.000085 -0.115365 
0.000000 -0.114748 
-0.000104 -0.115439 
0.000029 -0.115604 
-0.000012 -0.115833 
0.000479 -0.115235 
0.000188 -0.115773 
0.000337 -0.114961 
0.003372 -0.101018 
0.000752 -0.109634 
0.001686 -0.106445 
0.001232 -0.105462 
-0.000285 -0.109397 
-0.000002 -0.114508 
-0.000254 -0.114828 
-0.000078 -0.114624 
0.000062 -0.113429 
0.000274 -0.111848 
-0.001664 -0.116725 
-0.001202 -0.112568 
-0.001630 -0.114991 
-0.001040 -0.115776 
-0.000566 -0.115182 
0.000095 -0.111820 
-0.000359 -0.113706 
-0.000364 -0.111961 
-0.000261 -0.100000 
-0.000263 -0.103099 
-0.000823 -0.103059 
-0.000533 -0.103087 
-0.000789 -0.100000 
-0.000259 -0.105828 
-0.000235 -0.108202 
-0.005002 -0.097609 
-0.002609 -0.101956 
0.000147 -0.097507 
-0.001088 -0.107812 
-0.001857 -0.105071 
-0.001452 -0.107323 
-0.001257 -0.100000 
-0.001628 -0.102790 
-0.001159 -0.102991 
-0.000057 -0.113376 
-0.000014 -0.114449 
-0.000185 -0.110243 
-0.000119 -0.111968 
-0.000290 -0.111904 
-0.000224 -0.111946 
-0.000551 -0.110100 
-0.000850 -0.105723 
-0.000761 -0.108047 
-0.000483 -0.108155 
-0.004952 -0.139427 
-0.004838 -0.136819 
-0.007750 -0.139635 
0.002391 -0.128139 
-0.001116 -0.133007 
0.001565 -0.132188 
-0.008677 -0.133664 
-0.004730 -0.133605 
-0.004486 -0.129240 
0.002366 -0.118121 
0.003443 -0.118666 
0.003021 -0.119978 
0.003256 -0.113781 
0.003532 -0.116646 
0.002360 -0.114046 
0.004596 -0.123962 
0.004334 -0.120150 
0.004283 -0.123366 
-0.013220 -0.095694 
-0.000660 -0.098245 
-0.004810 -0.087579 
-0.003843 -0.122967 
-0.002401 -0.113408 
-0.010922 -0.123087 
0.000483 -0.105919 
0.001510 -0.104524 
0.002592 -0.109841 
0.003178 -0.122813 
0.003484 -0.116325 
0.000767 -0.122627 
-0.000564 -0.110205 
-0.000713 -0.107672 
-0.000288 -0.113763 
-0.000420 -0.112234 
-0.001255 -0.112667 
-0.000839 -0.112396 
-0.000841 -0.114203 
-0.000002 -0.115160 
-0.000026 -0.115475 
0.000012 -0.115833 
-0.000029 -0.115604 
0.000104 -0.115439 
-0.000085 -0.115365 
-0.000174 -0.114801 
0.000830 -0.118308 
0.000538 -0.117391 
0.001377 -0.117817 
-0.000595 -0.115629 
-0.000126 -0.116683 
-0.000686 -0.116152 
0.000535 -0.116188 
0.000292 -0.116693 
0.000116 -0.116186 
-0.000337 -0.114961 
-0.000188 -0.115773 
-0.000479 -0.115235 
-0.003372 -0.101018 
0.000285 -0.109397 
-0.001232 -0.105462 
-0.001686 -0.106445 
-0.000752 -0.109634 
0.001664 -0.116725 
0.000566 -0.115182 
0.001040 -0.115776 
0.001630 -0.114991 
0.001202 -0.112568 
0.000002 -0.114508 
-0.000274 -0.111848 
-0.000062 -0.113429 
0.000078 -0.114624 
0.000254 -0.114828 
0.000364 -0.111961 
0.000359 -0.113706 
-0.000095 -0.111820 
-0.005136 -0.141932 
-0.002127 -0.138687 
0.001839 -0.135939 
0.000232 -0.137486 
-0.000405 -0.139391 
0.000850 -0.135198 
0.003210 -0.131331 
0.000786 -0.127914 
0.001964 -0.130112 
0.001055 -0.129677 
0.003250 -0.128443 
0.002696 -0.129645 
0.002138 -0.127173 
0.001775 -0.134869 
0.002617 -0.132196 
0.002615 -0.134151 
0.003492 -0.122179 
0.002309 -0.120665 
0.004403 -0.127511 
0.004356 -0.124380 
0.002679 -0.124249 
0.003690 -0.124496 
0.003598 -0.126664 
0.003318 -0.132679 
0.003892 -0.129520 
0.003931 -0.130459 
-0.016419 -0.104858 
-0.014092 -0.108429 
-0.015396 -0.106353 
-0.011544 -0.110740 
-0.012801 -0.109858 
-0.013654 -0.107180 
-0.010511 -0.112875 
-0.011724 -0.111771 
-0.009353 -0.114899 
-0.007111 -0.110746 
-0.008117 -0.111093 
-0.008599 -0.107412 
-0.006276 -0.117134 
-0.007321 -0.114328 
-0.005437 -0.116992 
-0.011017 -0.107799 
-0.009193 -0.111264 
-0.010337 -0.111176 
-0.001757 -0.124334 
-0.002679 -0.123161 
-0.000796 -0.125602 
-0.007021 -0.117829 
-0.004777 -0.120576 
-0.005819 -0.118801 
-0.003011 -0.121865 
-0.003832 -0.121548 
-0.005075 -0.119536 
-0.009385 -0.113980 
-0.007215 -0.116910 
-0.008246 -0.116205 
-0.001432 -0.107820 
-0.000863 -0.104633 
-0.001669 -0.113043 
-0.001700 -0.110621 
-0.002615 -0.105001 
-0.002159 -0.108065 
-0.002901 -0.108400 
0.001121 -0.119448 
0.000075 -0.118224 
-0.001871 -0.116413 
-0.000840 -0.117587 
-0.000950 -0.118468 
-0.000761 -0.116807 
-0.001350 -0.115097 
-0.006420 -0.106578 
-0.005288 -0.109789 
-0.006170 -0.110292 
-0.003663 -0.108812 
-0.004456 -0.109283 
-0.004446 -0.105693 
-0.003485 -0.115379 
-0.004131 -0.112504 
-0.002981 -0.114715 
-0.002088 -0.113519 
-0.002521 -0.114084 
-0.002869 -0.111423 
0.000018 -0.125986 
-0.002329 -0.121673 
-0.001077 -0.123905 
0.000665 -0.125669 
0.001126 -0.124820 
-0.005583 -0.113620 
-0.002553 -0.117957 
-0.004052 -0.116026 
-0.004698 -0.116591 
-0.003581 -0.119255 
0.001350 -0.120777 
0.001389 -0.123609 
0.001456 -0.122208 
0.000191 -0.120349 
-0.001125 -0.119403 
-0.001793 -0.121113 
-0.001397 -0.120317 
-0.000120 -0.122565 
-0.020136 -0.099088 
-0.018665 -0.101046 
-0.022763 -0.092648 
-0.020792 -0.096980 
-0.024421 -0.090970 
-0.017171 -0.102417 
-0.015676 -0.103296 
-0.028204 -0.072395 
-0.027312 -0.077927 
-0.030289 -0.071816 
-0.020843 -0.089597 
-0.024125 -0.083902 
-0.022128 -0.084314 
-0.027931 -0.081906 
-0.026070 -0.083135 
-0.024537 -0.088037 
-0.011357 -0.103862 
-0.010013 -0.103624 
-0.014199 -0.103773 
-0.012755 -0.103935 
-0.015829 -0.094998 
-0.014372 -0.099669 
-0.017562 -0.094887 
-0.021052 -0.093797 
-0.019310 -0.094514 
-0.017574 -0.099076 
-0.008839 -0.010454 
-0.015991 -0.020869 
-0.012625 -0.015340 
-0.018681 -0.035667 
-0.017914 -0.028107 
-0.015270 -0.026917 
-0.024125 -0.033553 
-0.020980 -0.030235 
-0.024407 -0.038685 
-0.014859 -0.064788 
-0.016497 -0.057893 
-0.014373 -0.057585 
-0.021156 -0.058699 
-0.018762 -0.058262 
-0.019224 -0.065432 
-0.016216 -0.042737 
-0.017779 -0.050687 
-0.018565 -0.043245 
-0.030997 -0.060587 
-0.028654 -0.060260 
-0.028679 -0.066517 
-0.026673 -0.046421 
-0.028029 -0.053582 
-0.029339 -0.048007 
-0.023947 -0.066117 
-0.026173 -0.059751 
-0.023646 -0.059205 
-0.021133 -0.043989 
-0.022745 -0.051835 
-0.023874 -0.045041 
-0.002021 -0.101222 
-0.001007 -0.101093 
-0.004105 -0.101724 
-0.003050 -0.101436 
-0.003800 -0.092838 
-0.003450 -0.097377 
-0.005117 -0.093082 
-0.008726 -0.103280 
-0.007496 -0.102881 
-0.009359 -0.094062 
-0.008486 -0.098706 
-0.010889 -0.094402 
-0.006320 -0.102468 
-0.005192 -0.102074 
-0.011103 -0.071038 
-0.010987 -0.077431 
-0.012987 -0.071315 
-0.006973 -0.088327 
-0.008954 -0.083108 
-0.007341 -0.082827 
-0.012399 -0.083720 
-0.010638 -0.083411 
-0.010086 -0.088959 
-0.005877 -0.097966 
-0.007889 -0.093712 
-0.006478 -0.093379 
-0.026005 -0.072612 
-0.021469 -0.072428 
-0.023743 -0.072592 
-0.023114 -0.078652 
-0.020111 -0.084464 
-0.014972 -0.071607 
-0.014235 -0.084012 
-0.014751 -0.078019 
-0.017056 -0.071902 
-0.019229 -0.072185 
-0.011319 -0.099385 
-0.017089 -0.089918 
-0.014131 -0.094916 
-0.012482 -0.094701 
-0.013466 -0.089575 
-0.018838 -0.078515 
-0.016142 -0.084259 
-0.018107 -0.084425 
0.000000 0.000000 
-0.006798 -0.009213 
-0.004716 -0.008677 
-0.005584 -0.008821 
0.000000 0.000000 
-0.010847 -0.017879 
-0.013066 -0.026283 
-0.002511 -0.008641 
-0.002952 -0.008626 
0.000000 0.000000 
-0.008250 -0.025677 
-0.005736 -0.017196 
-0.007023 -0.025627 
0.000000 0.000000 
-0.003451 -0.008619 
-0.004027 -0.008628 
-0.013481 -0.050027 
-0.012390 -0.057326 
-0.014030 -0.034463 
-0.014088 -0.042392 
-0.010410 -0.041983 
-0.012161 -0.042153 
-0.010410 -0.034017 
-0.007834 -0.017300 
-0.009632 -0.025771 
-0.011216 -0.025948 
0.000000 -0.008714 
-0.000267 -0.008713 
0.000000 0.000000 
-0.000751 -0.025559 
-0.000520 -0.017237 
0.000000 -0.025558 
0.000000 0.000000 
-0.000539 -0.008710 
-0.000819 -0.008704 
-0.001367 -0.056422 
-0.001265 -0.049120 
0.000000 -0.056407 
-0.002920 -0.033688 
-0.002271 -0.041544 
-0.003446 -0.041577 
0.000000 -0.041517 
-0.001127 -0.041524 
-0.000955 -0.033662 
0.000000 0.000000 
-0.001754 -0.008672 
-0.002115 -0.008657 
-0.001112 -0.008696 
-0.001422 -0.008685 
0.000000 0.000000 
-0.003984 -0.025575 
-0.002761 -0.017216 
-0.003117 -0.025569 
-0.001513 -0.025562 
-0.002298 -0.025565 
-0.001591 -0.017230 
-0.001138 -0.097059 
0.000000 -0.101051 
-0.004086 -0.087833 
-0.002515 -0.092657 
0.000000 -0.092507 
-0.001252 -0.092545 
-0.001345 -0.087566 
-0.010962 -0.064254 
-0.009317 -0.070784 
-0.006000 -0.070368 
-0.007620 -0.070559 
-0.007497 -0.063839 
-0.007563 -0.076897 
-0.005792 -0.082581 
0.000000 -0.070011 
-0.001459 -0.070035 
-0.001431 -0.063403 
-0.001413 -0.082141 
-0.001453 -0.076289 
0.000000 -0.082109 
-0.004363 -0.063552 
-0.002935 -0.070103 
-0.004443 -0.070215 
-0.004296 -0.082380 
-0.004419 -0.076500 
-0.002841 -0.082232 
-0.004107 -0.017197 
-0.005058 -0.033741 
-0.004912 -0.025585 
-0.005919 -0.025600 
-0.007499 -0.033833 
-0.002751 -0.056466 
-0.005642 -0.056638 
-0.004170 -0.056538 
-0.003864 -0.049203 
-0.004669 -0.041623 
-0.010540 -0.057107 
-0.008808 -0.041856 
-0.009824 -0.049628 
-0.008810 -0.056921 
-0.007182 -0.056766 
-0.005958 -0.041683 
-0.006669 -0.049369 
-0.007331 -0.041759 
0.000000 0.000000 
0.000267 -0.008713 
0.000819 -0.008704 
0.000539 -0.008710 
0.000000 0.000000 
0.000520 -0.017237 
0.000751 -0.025559 
0.002115 -0.008657 
0.001754 -0.008672 
0.000000 0.000000 
0.003117 -0.025569 
0.002761 -0.017216 
0.003984 -0.025575 
0.000000 0.000000 
0.001422 -0.008685 
0.001112 -0.008696 
0.001265 -0.049120 
0.001367 -0.056422 
0.000955 -0.033662 
0.001127 -0.041524 
0.003446 -0.041577 
0.002271 -0.041544 
0.002920 -0.033688 
0.001591 -0.017230 
0.002298 -0.025565 
0.001513 -0.025562 
0.008839 -0.010454 
0.006798 -0.009213 
0.000000 0.000000 
0.013066 -0.026283 
0.010847 -0.017879 
0.015270 -0.026917 
0.000000 0.000000 
0.005584 -0.008821 
0.004716 -0.008677 
0.012390 -0.057326 
0.013481 -0.050027 
0.014373 -0.057585 
0.010410 -0.034017 
0.012161 -0.042153 
0.010410 -0.041983 
0.016216 -0.042737 
0.014088 -0.042392 
0.014030 -0.034463 
0.000000 0.000000 
0.002952 -0.008626 
0.002511 -0.008641 
0.004027 -0.008628 
0.003451 -0.008619 
0.000000 0.000000 
0.007023 -0.025627 
0.005736 -0.017196 
0.008250 -0.025677 
0.011216 -0.025948 
0.009632 -0.025771 
0.007834 -0.017300 
0.001138 -0.097059 
0.001007 -0.101093 
0.001345 -0.087566 
0.001252 -0.092545 
0.003800 -0.092838 
0.002515 -0.092657 
0.004086 -0.087833 
0.001431 -0.063403 
0.001459 -0.070035 
0.004443 -0.070215 
0.002935 -0.070103 
0.004363 -0.063552 
0.001453 -0.076289 
0.001413 -0.082141 
0.011103 -0.071038 
0.009317 -0.070784 
0.010962 -0.064254 
0.005792 -0.082581 
0.007563 -0.076897 
0.007341 -0.082827 
0.007497 -0.063839 
0.007620 -0.070559 
0.006000 -0.070368 
0.002841 -0.082232 
0.004419 -0.076500 
0.004296 -0.082380 
0.004107 -0.017197 
0.007499 -0.033833 
0.005919 -0.025600 
0.004912 -0.025585 
0.005058 -0.033741 
0.010540 -0.057107 
0.007182 -0.056766 
0.008810 -0.056921 
0.009824 -0.049628 
0.008808 -0.041856 
0.002751 -0.056466 
0.004669 -0.041623 
0.003864 -0.049203 
0.004170 -0.056538 
0.005642 -0.056638 
0.007331 -0.041759 
0.006669 -0.049369 
0.005958 -0.041683 
0.012625 -0.015340 
0.015991 -0.020869 
0.024407 -0.038685 
0.020980 -0.030235 
0.024125 -0.033553 
0.017914 -0.028107 
0.018681 -0.035667 
0.028679 -0.066517 
0.028654 -0.060260 
0.030997 -0.060587 
0.023646 -0.059205 
0.026173 -0.059751 
0.023947 -0.066117 
0.029339 -0.048007 
0.028029 -0.053582 
0.026673 -0.046421 
0.016497 -0.057893 
0.014859 -0.064788 
0.018565 -0.043245 
0.017779 -0.050687 
0.019224 -0.065432 
0.018762 -0.058262 
0.021156 -0.058699 
0.023874 -0.045041 
0.022745 -0.051835 
0.021133 -0.043989 
0.016419 -0.104858 
0.018665 -0.101046 
0.020136 -0.099088 
0.015676 -0.103296 
0.017171 -0.102417 
0.013654 -0.107180 
0.024421 -0.090970 
0.020792 -0.096980 
0.022763 -0.092648 
0.010013 -0.103624 
0.011357 -0.103862 
0.008599 -0.107412 
0.017562 -0.094887 
0.014372 -0.099669 
0.015829 -0.094998 
0.011017 -0.107799 
0.012755 -0.103935 
0.014199 -0.103773 
0.030289 -0.071816 
0.027312 -0.077927 
0.028204 -0.072395 
0.024537 -0.088037 
0.026070 -0.083135 
0.027931 -0.081906 
0.022128 -0.084314 
0.024125 -0.083902 
0.020843 -0.089597 
0.017574 -0.099076 
0.019310 -0.094514 
0.021052 -0.093797 
0.002021 -0.101222 
0.000863 -0.104633 
0.005117 -0.093082 
0.003450 -0.097377 
0.002615 -0.105001 
0.003050 -0.101436 
0.004105 -0.101724 
0.012987 -0.071315 
0.010987 -0.077431 
0.010086 -0.088959 
0.010638 -0.083411 
0.012399 -0.083720 
0.008954 -0.083108 
0.006973 -0.088327 
0.006420 -0.106578 
0.007496 -0.102881 
0.008726 -0.103280 
0.005192 -0.102074 
0.006320 -0.102468 
0.004446 -0.105693 
0.010889 -0.094402 