# vtk DataFile Version 2.0
Unstructured Grid Example
ASCII
DATASET UNSTRUCTURED_GRID

POINTS 4225 float
0.007750 -0.140855 0.000000 
0.992250 -0.140855 0.000000 
1.000000 1.000000 0.000000 
0.000000 1.000000 0.000000 
0.500000 -0.100000 0.000000 
0.982574 0.398268 0.000000 
0.500000 1.000000 0.000000 
0.017426 0.398268 0.000000 
0.500000 0.396167 0.000000 
0.260860 -0.045096 0.000000 
0.500000 0.135721 0.000000 
0.247999 0.132688 0.000000 
0.739140 -0.045096 0.000000 
0.752001 0.132688 0.000000 
1.000318 0.124422 0.000000 
0.742663 0.393949 0.000000 
0.969437 0.684187 0.000000 
0.737282 0.685960 0.000000 
0.750000 1.000000 0.000000 
0.500000 0.687038 0.000000 
0.250000 1.000000 0.000000 
0.262718 0.685960 0.000000 
0.030563 0.684187 0.000000 
0.257337 0.393949 0.000000 
-0.000318 0.124422 0.000000 
0.134647 -0.127482 0.000000 
0.247963 0.017398 0.000000 
0.120747 -0.001018 0.000000 
0.500000 0.015139 0.000000 
0.376053 0.016214 0.000000 
0.375338 -0.100000 0.000000 
0.376108 0.261471 0.000000 
0.374887 0.135488 0.000000 
0.500000 0.262216 0.000000 
0.624662 -0.100000 0.000000 
0.623947 0.016214 0.000000 
0.879253 -0.001018 0.000000 
0.752037 0.017398 0.000000 
0.865353 -0.127482 0.000000 
0.625113 0.135488 0.000000 
0.623892 0.261471 0.000000 
1.001475 -0.010795 0.000000 
0.877930 0.125714 0.000000 
0.862954 0.393373 0.000000 
0.871057 0.256733 0.000000 
0.992304 0.260387 0.000000 
0.747958 0.259104 0.000000 
0.621529 0.395553 0.000000 
0.974050 0.539230 0.000000 
0.856282 0.535894 0.000000 
0.858982 0.840348 0.000000 
0.853670 0.684736 0.000000 
0.973015 0.834250 0.000000 
0.738400 0.536430 0.000000 
0.619552 0.537596 0.000000 
0.875000 1.000000 0.000000 
0.741209 0.841317 0.000000 
0.500000 0.841548 0.000000 
0.621077 0.841495 0.000000 
0.625000 1.000000 0.000000 
0.619161 0.686750 0.000000 
0.500000 0.538093 0.000000 
0.375000 1.000000 0.000000 
0.378923 0.841495 0.000000 
0.141018 0.840348 0.000000 
0.258791 0.841317 0.000000 
0.125000 1.000000 0.000000 
0.380839 0.686750 0.000000 
0.380448 0.537596 0.000000 
0.026985 0.834250 0.000000 
0.146330 0.684736 0.000000 
0.137046 0.393373 0.000000 
0.143718 0.535894 0.000000 
0.025950 0.539230 0.000000 
0.261600 0.536430 0.000000 
0.378471 0.395553 0.000000 
0.007696 0.260387 0.000000 
0.128943 0.256733 0.000000 
0.122070 0.125714 0.000000 
-0.001475 -0.010795 0.000000 
0.252042 0.259104 0.000000 
0.070530 -0.135347 0.000000 
0.125037 -0.064365 0.000000 
0.063906 -0.072069 0.000000 
0.250406 -0.031247 0.000000 
0.185426 -0.049958 0.000000 
0.199511 -0.111617 0.000000 
0.183010 0.068101 0.000000 
0.182830 0.008766 0.000000 
0.247287 0.073249 0.000000 
0.500000 -0.043196 0.000000 
0.437955 -0.043090 0.000000 
0.437746 -0.100000 0.000000 
0.437747 0.074920 0.000000 
0.438001 0.015348 0.000000 
0.500000 0.074797 0.000000 
0.311347 -0.099416 0.000000 
0.376303 -0.042443 0.000000 
0.315995 -0.038466 0.000000 
0.438623 0.328039 0.000000 
0.438087 0.262035 0.000000 
0.500000 0.328217 0.000000 
0.311659 0.134699 0.000000 
0.375246 0.197494 0.000000 
0.312534 0.196481 0.000000 
0.500000 0.198109 0.000000 
0.437709 0.197971 0.000000 
0.437587 0.135689 0.000000 
0.313383 0.017986 0.000000 
0.375203 0.075238 0.000000 
0.311807 0.075222 0.000000 
0.562254 -0.100000 0.000000 
0.562045 -0.043090 0.000000 
0.684005 -0.038466 0.000000 
0.623697 -0.042443 0.000000 
0.688653 -0.099416 0.000000 
0.561999 0.015348 0.000000 
0.562253 0.074920 0.000000 
0.936094 -0.072069 0.000000 
0.874963 -0.064365 0.000000 
0.929470 -0.135347 0.000000 
0.752713 0.073249 0.000000 
0.817170 0.008766 0.000000 
0.816990 0.068101 0.000000 
0.800489 -0.111617 0.000000 
0.814574 -0.049958 0.000000 
0.749594 -0.031247 0.000000 
0.561913 0.262035 0.000000 
0.561377 0.328039 0.000000 
0.562413 0.135689 0.000000 
0.562291 0.197971 0.000000 
0.687466 0.196481 0.000000 
0.624754 0.197494 0.000000 
0.688341 0.134699 0.000000 
0.686617 0.017986 0.000000 
0.688193 0.075222 0.000000 
0.624797 0.075238 0.000000 
0.997704 -0.077052 0.000000 
0.940424 -0.007410 0.000000 
0.939498 0.123590 0.000000 
0.941277 0.057829 0.000000 
1.002190 0.056672 0.000000 
0.879701 0.062041 0.000000 
0.815418 0.129315 0.000000 
0.922792 0.394765 0.000000 
0.927322 0.325509 0.000000 
0.987442 0.328982 0.000000 
0.806309 0.324595 0.000000 
0.866979 0.324334 0.000000 
0.802929 0.393315 0.000000 
0.996773 0.192275 0.000000 
0.931884 0.257296 0.000000 
0.936113 0.190029 0.000000 
0.622750 0.327489 0.000000 
0.560785 0.396048 0.000000 
0.750296 0.194761 0.000000 
0.685944 0.260478 0.000000 
0.682177 0.394797 0.000000 
0.684091 0.326608 0.000000 
0.745316 0.325536 0.000000 
0.874851 0.190546 0.000000 
0.809727 0.257643 0.000000 
0.812876 0.192521 0.000000 
0.978001 0.468284 0.000000 
0.918612 0.465154 0.000000 
0.912542 0.609718 0.000000 
0.915081 0.536769 0.000000 
0.971053 0.611168 0.000000 
0.859290 0.463878 0.000000 
0.799877 0.463768 0.000000 
0.924677 0.918887 0.000000 
0.916299 0.838429 0.000000 
0.980810 0.912595 0.000000 
0.795694 0.685393 0.000000 
0.855027 0.761708 0.000000 
0.797121 0.762554 0.000000 
0.969790 0.758438 0.000000 
0.912371 0.760270 0.000000 
0.911432 0.684145 0.000000 
0.620408 0.465617 0.000000 
0.560236 0.466048 0.000000 
0.740270 0.464268 0.000000 
0.680438 0.464972 0.000000 
0.678362 0.610912 0.000000 
0.679099 0.537047 0.000000 
0.737315 0.610363 0.000000 
0.854269 0.609487 0.000000 
0.795928 0.609824 0.000000 
0.797440 0.535940 0.000000 
0.937500 1.000000 0.000000 
0.865946 0.920148 0.000000 
0.745171 0.920415 0.000000 
0.805868 0.920390 0.000000 
0.812500 1.000000 0.000000 
0.800520 0.841052 0.000000 
0.738539 0.763040 0.000000 
0.500000 0.920364 0.000000 
0.561462 0.920365 0.000000 
0.562500 1.000000 0.000000 
0.559976 0.763660 0.000000 
0.560594 0.841531 0.000000 
0.500000 0.763705 0.000000 
0.687500 1.000000 0.000000 
0.622859 0.920376 0.000000 
0.684125 0.920396 0.000000 
0.559822 0.537963 0.000000 
0.500000 0.466194 0.000000 
0.678412 0.686414 0.000000 
0.619098 0.611364 0.000000 
0.500000 0.611765 0.000000 
0.559607 0.611659 0.000000 
0.559647 0.686961 0.000000 
0.681329 0.841433 0.000000 
0.619818 0.763541 0.000000 
0.679388 0.763343 0.000000 
0.437500 1.000000 0.000000 
0.438538 0.920365 0.000000 
0.315875 0.920396 0.000000 
0.377141 0.920376 0.000000 
0.312500 1.000000 0.000000 
0.439406 0.841531 0.000000 
0.440024 0.763660 0.000000 
0.075323 0.918887 0.000000 
0.134054 0.920148 0.000000 
0.062500 1.000000 0.000000 
0.261461 0.763040 0.000000 
0.199480 0.841052 0.000000 
0.202879 0.762554 0.000000 
0.187500 1.000000 0.000000 
0.194132 0.920390 0.000000 
0.254829 0.920415 0.000000 
0.440178 0.537963 0.000000 
0.439764 0.466048 0.000000 
0.440353 0.686961 0.000000 
0.440393 0.611659 0.000000 
0.321638 0.610912 0.000000 
0.380902 0.611364 0.000000 
0.321588 0.686414 0.000000 
0.318671 0.841433 0.000000 
0.320612 0.763343 0.000000 
0.380182 0.763541 0.000000 
0.019190 0.912595 0.000000 
0.083701 0.838429 0.000000 
0.088568 0.684145 0.000000 
0.087629 0.760270 0.000000 
0.030210 0.758438 0.000000 
0.144973 0.761708 0.000000 
0.204306 0.685393 0.000000 
0.077208 0.394765 0.000000 
0.081388 0.465154 0.000000 
0.021999 0.468284 0.000000 
0.200123 0.463768 0.000000 
0.140710 0.463878 0.000000 
0.197071 0.393315 0.000000 
0.028947 0.611168 0.000000 
0.084919 0.536769 0.000000 
0.087458 0.609718 0.000000 
0.379592 0.465617 0.000000 
0.439215 0.396048 0.000000 
0.262685 0.610363 0.000000 
0.320901 0.537047 0.000000 
0.317823 0.394797 0.000000 
0.319562 0.464972 0.000000 
0.259730 0.464268 0.000000 
0.145731 0.609487 0.000000 
0.202560 0.535940 0.000000 
0.204072 0.609824 0.000000 
0.012558 0.328982 0.000000 
0.072678 0.325509 0.000000 
0.063887 0.190029 0.000000 
0.068116 0.257296 0.000000 
0.003227 0.192275 0.000000 
0.133021 0.324334 0.000000 
0.193691 0.324595 0.000000 
0.059576 -0.007410 0.000000 
0.002296 -0.077052 0.000000 
0.184582 0.129315 0.000000 
0.120299 0.062041 0.000000 
-0.002190 0.056672 0.000000 
0.058723 0.057829 0.000000 
0.060502 0.123590 0.000000 
0.377250 0.327489 0.000000 
0.254684 0.325536 0.000000 
0.315909 0.326608 0.000000 
0.314056 0.260478 0.000000 
0.249704 0.194761 0.000000 
0.125149 0.190546 0.000000 
0.187124 0.192521 0.000000 
0.190273 0.257643 0.000000 
0.039000 -0.138142 0.000000 
0.067176 -0.103960 0.000000 
0.036047 -0.106669 0.000000 
0.129282 -0.096154 0.000000 
0.098300 -0.100639 0.000000 
0.102424 -0.131971 0.000000 
0.091837 -0.036744 0.000000 
0.094583 -0.068793 0.000000 
0.122271 -0.032610 0.000000 
0.252369 -0.047849 0.000000 
0.219408 -0.065983 0.000000 
0.230775 -0.095114 0.000000 
0.215468 -0.013315 0.000000 
0.216538 -0.039614 0.000000 
0.248948 -0.008342 0.000000 
0.167099 -0.121156 0.000000 
0.189843 -0.080345 0.000000 
0.159890 -0.089780 0.000000 
0.215461 0.100741 0.000000 
0.214987 0.071009 0.000000 
0.247495 0.102602 0.000000 
0.151542 0.003539 0.000000 
0.182709 0.038228 0.000000 
0.151210 0.034186 0.000000 
0.247426 0.044765 0.000000 
0.214813 0.042015 0.000000 
0.214961 0.013869 0.000000 
0.155241 -0.058259 0.000000 
0.183560 -0.020482 0.000000 
0.152722 -0.027187 0.000000 
0.500000 -0.071793 0.000000 
0.468905 -0.071786 0.000000 
0.468878 -0.100000 0.000000 
0.468999 -0.014167 0.000000 
0.468962 -0.043172 0.000000 
0.500000 -0.014209 0.000000 
0.406585 -0.100000 0.000000 
0.437818 -0.071756 0.000000 
0.406755 -0.071687 0.000000 
0.468836 0.105103 0.000000 
0.468887 0.074827 0.000000 
0.500000 0.105092 0.000000 
0.407031 0.015665 0.000000 
0.437886 0.045000 0.000000 
0.406791 0.045254 0.000000 
0.500000 0.044814 0.000000 
0.468948 0.044860 0.000000 
0.468993 0.015189 0.000000 
0.279390 -0.089542 0.000000 
0.315568 -0.068367 0.000000 
0.287166 -0.059165 0.000000 
0.375773 -0.071519 0.000000 
0.345108 -0.070963 0.000000 
0.343806 -0.100000 0.000000 
0.345688 -0.011961 0.000000 
0.345961 -0.041281 0.000000 
0.376373 -0.013127 0.000000 
0.438033 -0.014032 0.000000 
0.407143 -0.013734 0.000000 
0.407033 -0.042898 0.000000 
0.469454 0.361919 0.000000 
[...]
POINT_DATA 4225

SCALARS u_h float 2
LOOKUP_TABLE default
0.007750 -0.140855 
-0.007750 -0.140855 
0.000000 0.000000 
0.000000 0.000000 
-0.000000 -0.100000 
-0.017426 -0.101732 
0.000000 0.000000 
0.017426 -0.101732 
-0.000000 -0.103833 
0.010860 -0.045096 
-0.000000 -0.114279 
-0.002001 -0.117312 
-0.010860 -0.045096 
0.002001 -0.117312 
0.000318 -0.125578 
-0.007337 -0.106051 
-0.030563 -0.065813 
-0.012718 -0.064040 
0.000000 0.000000 
-0.000000 -0.062962 
0.000000 0.000000 
0.012718 -0.064040 
0.030563 -0.065813 
0.007337 -0.106051 
-0.000318 -0.125578 
0.009647 -0.127482 
-0.002037 -0.107602 
-0.004253 -0.126018 
-0.000000 -0.109861 
0.001053 -0.108786 
0.000338 -0.100000 
0.001108 -0.113529 
-0.000113 -0.114512 
-0.000000 -0.112784 
-0.000338 -0.100000 
-0.001053 -0.108786 
0.004253 -0.126018 
0.002037 -0.107602 
-0.009647 -0.127482 
0.000113 -0.114512 
-0.001108 -0.113529 
0.001475 -0.135795 
0.002930 -0.124286 
-0.012046 -0.106627 
-0.003943 -0.118267 
-0.007696 -0.114613 
-0.002042 -0.115896 
-0.003471 -0.104447 
-0.025950 -0.085770 
-0.018718 -0.089106 
-0.016018 -0.034652 
-0.021330 -0.065264 
-0.026985 -0.040750 
-0.011600 -0.088570 
-0.005448 -0.087404 
0.000000 0.000000 
-0.008791 -0.033683 
-0.000000 -0.033452 
-0.003923 -0.033505 
0.000000 0.000000 
-0.005839 -0.063250 
-0.000000 -0.086907 
0.000000 0.000000 
0.003923 -0.033505 
0.016018 -0.034652 
0.008791 -0.033683 
0.000000 0.000000 
0.005839 -0.063250 
0.005448 -0.087404 
0.026985 -0.040750 
0.021330 -0.065264 
0.012046 -0.106627 
0.018718 -0.089106 
0.025950 -0.085770 
0.011600 -0.088570 
0.003471 -0.104447 
0.007696 -0.114613 
0.003943 -0.118267 
-0.002930 -0.124286 
-0.001475 -0.135795 
0.002042 -0.115896 
0.008030 -0.135347 
0.000037 -0.126865 
0.001406 -0.134569 
0.000406 -0.093747 
-0.002074 -0.112458 
0.012011 -0.111617 
-0.004490 -0.119399 
-0.004670 -0.116234 
-0.002713 -0.114251 
-0.000000 -0.105696 
0.000455 -0.105590 
0.000246 -0.100000 
0.000247 -0.112580 
0.000501 -0.109652 
-0.000000 -0.112703 
-0.001153 -0.099416 
0.001303 -0.104943 
0.003495 -0.100966 
0.001123 -0.109461 
0.000587 -0.112965 
-0.000000 -0.109283 
-0.000841 -0.115301 
0.000246 -0.115006 
0.000034 -0.116019 
-0.000000 -0.114391 
0.000209 -0.114529 
0.000087 -0.114311 
0.000883 -0.107014 
0.000203 -0.112262 
-0.000693 -0.112278 
-0.000246 -0.100000 
-0.000455 -0.105590 
-0.003495 -0.100966 
-0.001303 -0.104943 
0.001153 -0.099416 
-0.000501 -0.109652 
-0.000247 -0.112580 
-0.001406 -0.134569 
-0.000037 -0.126865 
-0.008030 -0.135347 
0.002713 -0.114251 
0.004670 -0.116234 
0.004490 -0.119399 
-0.012011 -0.111617 
0.002074 -0.112458 
-0.000406 -0.093747 
-0.000587 -0.112965 
-0.001123 -0.109461 
-0.000087 -0.114311 
-0.000209 -0.114529 
-0.000034 -0.116019 
-0.000246 -0.115006 
0.000841 -0.115301 
-0.000883 -0.107014 
0.000693 -0.112278 
-0.000203 -0.112262 
-0.002296 -0.139552 
0.002924 -0.132410 
0.001998 -0.126410 
0.003777 -0.129671 
0.002190 -0.130828 
0.004701 -0.125459 
0.002918 -0.120685 
-0.014708 -0.105235 
-0.010178 -0.111991 
-0.012558 -0.108518 
-0.006191 -0.112905 
-0.008021 -0.113166 
-0.009571 -0.106685 
-0.003227 -0.120225 
-0.005616 -0.117704 
-0.001387 -0.122471 
-0.002250 -0.110011 
-0.001715 -0.103952 
0.000296 -0.117739 
-0.001556 -0.114522 
-0.005323 -0.105203 
-0.003409 -0.110892 
-0.004684 -0.111964 
-0.000149 -0.121954 
-0.002773 -0.117357 
0.000376 -0.119979 
-0.021999 -0.094216 
-0.018888 -0.097346 
-0.024958 -0.077782 
-0.022419 -0.088231 
-0.028947 -0.076332 
-0.015710 -0.098622 
-0.012623 -0.098732 
-0.012823 -0.018613 
-0.021201 -0.036571 
-0.019190 -0.024905 
-0.016806 -0.064607 
-0.019973 -0.050792 
-0.015379 -0.049946 
-0.030210 -0.054062 
-0.025129 -0.052230 
-0.026068 -0.065855 
-0.004592 -0.096883 
-0.002264 -0.096452 
-0.009730 -0.098232 
-0.007062 -0.097528 
-0.009138 -0.076588 
-0.008401 -0.087953 
-0.012685 -0.077137 
-0.020731 -0.078013 
-0.016572 -0.077676 
-0.015060 -0.089060 
0.000000 0.000000 
-0.009054 -0.017352 
-0.004829 -0.017085 
-0.006632 -0.017110 
0.000000 0.000000 
-0.011980 -0.033948 
-0.011461 -0.049460 
-0.000000 -0.017136 
-0.001038 -0.017135 
0.000000 0.000000 
-0.002524 -0.048840 
-0.001906 -0.033469 
-0.000000 -0.048795 
0.000000 0.000000 
-0.002141 -0.017124 
-0.003375 -0.017104 
-0.002678 -0.087037 
-0.000000 -0.096306 
-0.009088 -0.063586 
-0.005902 -0.076136 
-0.000000 -0.075735 
-0.002893 -0.075841 
-0.002853 -0.063039 
-0.006171 -0.033567 
-0.005182 -0.048959 
-0.008112 -0.049157 
0.000000 0.000000 
0.001038 -0.017135 
0.003375 -0.017104 
0.002141 -0.017124 
0.000000 0.000000 
0.001906 -0.033469 
0.002524 -0.048840 
0.012823 -0.018613 
0.009054 -0.017352 
0.000000 0.000000 
0.011461 -0.049460 
0.011980 -0.033948 
0.015379 -0.049946 
0.000000 0.000000 
0.006632 -0.017110 
0.004829 -0.017085 
0.002678 -0.087037 
0.002264 -0.096452 
0.002853 -0.063039 
0.002893 -0.075841 
0.009138 -0.076588 
0.005902 -0.076136 
0.009088 -0.063586 
0.006171 -0.033567 
0.008112 -0.049157 
0.005182 -0.048959 
0.019190 -0.024905 
0.021201 -0.036571 
0.026068 -0.065855 
0.025129 -0.052230 
0.030210 -0.054062 
0.019973 -0.050792 
0.016806 -0.064607 
0.014708 -0.105235 
0.018888 -0.097346 
0.021999 -0.094216 
0.012623 -0.098732 
0.015710 -0.098622 
0.009571 -0.106685 
0.028947 -0.076332 
0.022419 -0.088231 
0.024958 -0.077782 
0.004592 -0.096883 
0.001715 -0.103952 
0.012685 -0.077137 
0.008401 -0.087953 
0.005323 -0.105203 
0.007062 -0.097528 
0.009730 -0.098232 
0.020731 -0.078013 
0.015060 -0.089060 
0.016572 -0.077676 
0.012558 -0.108518 
0.010178 -0.111991 
0.001387 -0.122471 
0.005616 -0.117704 
0.003227 -0.120225 
0.008021 -0.113166 
0.006191 -0.112905 
-0.002924 -0.132410 
0.002296 -0.139552 
-0.002918 -0.120685 
-0.004701 -0.125459 
-0.002190 -0.130828 
-0.003777 -0.129671 
-0.001998 -0.126410 
0.002250 -0.110011 
0.004684 -0.111964 
0.003409 -0.110892 
0.001556 -0.114522 
-0.000296 -0.117739 
0.000149 -0.121954 
-0.000376 -0.119979 
0.002773 -0.117357 
0.007750 -0.138142 
0.004676 -0.135210 
0.004797 -0.137919 
0.004282 -0.127404 
0.004550 -0.131889 
0.008674 -0.131971 
-0.001913 -0.130494 
0.000833 -0.131293 
-0.002729 -0.126360 
0.002369 -0.079099 
0.000658 -0.097233 
0.012025 -0.095114 
-0.003282 -0.107065 
-0.002212 -0.102114 
-0.001052 -0.102092 
0.010849 -0.121156 
0.002343 -0.111595 
0.003640 -0.121030 
-0.003289 -0.118009 
-0.003763 -0.116491 
-0.002505 -0.116148 
-0.004708 -0.121461 
-0.004791 -0.118022 
-0.005040 -0.122064 
-0.002574 -0.111485 
-0.003937 -0.114235 
-0.003789 -0.111131 
-0.001009 -0.120759 
-0.003940 -0.114232 
-0.003528 -0.120937 
-0.000000 -0.103043 
0.000155 -0.103036 
0.000128 -0.100000 
0.000249 -0.107917 
0.000212 -0.105672 
-0.000000 -0.107959 
0.000335 -0.100000 
0.000318 -0.103006 
0.000505 -0.102937 
0.000086 -0.113647 
0.000137 -0.112673 
-0.000000 -0.113658 
0.000781 -0.109335 
0.000386 -0.111250 
0.000541 -0.110996 
-0.000000 -0.111436 
0.000198 -0.111390 
0.000243 -0.109811 
-0.001860 -0.089542 
0.003068 -0.099617 
0.005916 -0.090415 
0.000773 -0.102769 
0.001358 -0.102213 
0.000056 -0.100000 
0.001938 -0.105711 
0.002211 -0.103781 
0.001373 -0.106877 
0.000533 -0.107782 
0.000893 -0.107484 
0.000783 -0.105398 
0.000704 -0.106831 
0.000560 -0.109326 
-0.000000 -0.106797 
0.000859 -0.113196 
0.000842 -0.111462 
0.001254 -0.111696 
-0.000000 -0.111277 
0.000423 -0.111323 
0.000298 -0.112830 
-0.001398 -0.116120 
-0.000507 -0.115943 
-0.000871 -0.116754 
-0.000010 -0.114996 
-0.000210 -0.115372 
-0.000404 -0.114794 
0.000697 -0.114964 
0.000169 -0.115431 
0.000628 -0.114520 
-0.000000 -0.114535 
0.000071 -0.114559 
0.000061 -0.114288 
0.000194 -0.113858 
0.000116 -0.114426 
-0.000000 -0.113815 
0.000041 -0.114372 
0.000111 -0.114629 
0.000092 -0.114764 
0.000519 -0.114198 
0.000257 -0.114715 
0.000372 -0.113982 
0.003670 -0.096190 
0.001184 -0.107962 
0.002222 -0.103833 
0.001368 -0.101892 
-0.000202 -0.106534 
0.000136 -0.113614 
-0.000044 -0.113584 
0.000110 -0.113578 
0.000290 -0.112432 
0.000599 -0.110625 
-0.001662 -0.114850 
-0.001149 -0.110153 
-0.001603 -0.112887 
-0.000921 -0.114081 
-0.000376 -0.113710 
0.000440 -0.110192 
-0.000097 -0.112153 
-0.000105 -0.109900 
-0.000128 -0.100000 
-0.000155 -0.103036 
-0.000505 -0.102937 
-0.000318 -0.103006 
-0.000335 -0.100000 
-0.000212 -0.105672 
-0.000249 -0.107917 
-0.005916 -0.090415 
-0.003068 -0.099617 
0.001860 -0.089542 
-0.001373 -0.106877 
-0.002211 -0.103781 
-0.001938 -0.105711 
-0.000056 -0.100000 
-0.001358 -0.102213 
-0.000773 -0.102769 
-0.000137 -0.112673 
-0.000086 -0.113647 
-0.000243 -0.109811 
-0.000198 -0.111390 
-0.000541 -0.110996 
-0.000386 -0.111250 
-0.000781 -0.109335 
-0.000783 -0.105398 
-0.000893 -0.107484 
-0.000533 -0.107782 
-0.004797 -0.137919 
-0.004676 -0.135210 
-0.007750 -0.138142 
0.002729 -0.126360 
-0.000833 -0.131293 
0.001913 -0.130494 
-0.008674 -0.131971 
-0.004550 -0.131889 
-0.004282 -0.127404 
0.002505 -0.116148 
0.003763 -0.116491 
0.003289 -0.118009 
0.003789 -0.111131 
0.003937 -0.114235 
0.002574 -0.111485 
0.005040 -0.122064 
0.004791 -0.118022 
0.004708 -0.121461 
-0.012025 -0.095114 
-0.000658 -0.097233 
-0.002369 -0.079099 
-0.003640 -0.121030 
-0.002343 -0.111595 
-0.010849 -0.121156 
0.001052 -0.102092 
0.002212 -0.102114 
0.003282 -0.107065 
0.003528 -0.120937 
0.003940 -0.114232 
0.001009 -0.120759 
-0.000560 -0.109326 
-0.000704 -0.106831 
-0.000298 -0.112830 
-0.000423 -0.111323 
-0.001254 -0.111696 
-0.000842 -0.111462 
-0.000859 -0.113196 
-0.000061 -0.114288 
-0.000071 -0.114559 
-0.000092 -0.114764 
-0.000111 -0.114629 
-0.000041 -0.114372 
-0.000116 -0.114426 
-0.000194 -0.113858 
0.000871 -0.116754 
0.000507 -0.115943 
0.001398 -0.116120 
-0.000628 -0.114520 
-0.000169 -0.115431 
-0.000697 -0.114964 
0.000404 -0.114794 
0.000210 -0.115372 
0.000010 -0.114996 
-0.000372 -0.113982 
-0.000257 -0.114715 
-0.000519 -0.114198 
-0.003670 -0.096190 
0.000202 -0.106534 
-0.001368 -0.101892 
-0.002222 -0.103833 
-0.001184 -0.107962 
0.001662 -0.114850 
0.000376 -0.113710 
0.000921 -0.114081 
0.001603 -0.112887 
0.001149 -0.110153 
-0.000136 -0.113614 
-0.000599 -0.110625 
-0.000290 -0.112432 
-0.000110 -0.113578 
0.000044 -0.113584 
0.000105 -0.109900 
0.000097 -0.112153 
-0.000440 -0.110192 
-0.004986 -0.140535 
-0.001852 -0.137165 
0.002242 -0.134407 
0.000586 -0.135954 
-0.000054 -0.137915 
0.001203 -0.133589 
0.003605 -0.129658 
0.001243 -0.126454 
0.002423 -0.128623 
0.001520 -0.128215 
0.003692 -0.126854 
0.003147 -0.128115 
0.002569 -0.125630 
0.002209 -0.133384 
0.003070 -0.130686 
0.003050 -0.132627 
0.003848 -0.120294 
0.002544 -0.118870 
0.004833 -0.125762 
0.004788 -0.122530 
0.003053 -0.122566 
0.004094 -0.122723 
0.004026 -0.124994 
0.003749 -0.131099 
0.004335 -0.127895 
0.004358 -0.128808 
-0.016072 -0.103803 
-0.013731 -0.107312 
-0.015013 -0.105224 
-0.011236 -0.109636 
-0.012466 -0.108749 
-0.013360 -0.106143 
-0.010104 -0.111639 
-0.011351 -0.110596 
-0.008965 -0.113668 
-0.006932 -0.109682 
-0.007904 -0.110013 
-0.008424 -0.106421 
-0.005969 -0.115895 
-0.007063 -0.113164 
-0.005166 -0.115751 
-0.010780 -0.106779 
-0.008946 -0.110173 
-0.010058 -0.110078 
-0.001298 -0.122921 
-0.002244 -0.121777 
-0.000348 -0.124176 
-0.006618 -0.116543 
-0.004357 -0.119239 
-0.005383 -0.117466 
-0.002636 -0.120498 
-0.003432 -0.120199 
-0.004719 -0.118234 
-0.009062 -0.112811 
-0.006876 -0.115675 
-0.007881 -0.114973 
-0.001417 -0.106958 
-0.000855 -0.103833 
-0.001657 -0.112027 
-0.001686 -0.109690 
-0.002585 -0.104160 
-0.002135 -0.107178 
-0.002863 -0.107483 
0.001249 -0.117825 
0.000135 -0.116790 
-0.001782 -0.115172 
-0.000763 -0.116255 
-0.000815 -0.117087 
-0.000735 -0.115542 
-0.001337 -0.113971 
-0.006306 -0.105631 
-0.005177 -0.108774 
-0.006026 -0.109250 
-0.003606 -0.107862 
-0.004374 -0.108301 
-0.004381 -0.104801 
-0.003344 -0.114183 
-0.004025 -0.111419 
-0.002882 -0.113555 
-0.002055 -0.112454 
-0.002459 -0.112969 
-0.002822 -0.110415 
0.000452 -0.124535 
-0.001987 -0.120285 
-0.000682 -0.122475 
0.001079 -0.124180 
0.001512 -0.123283 
-0.005401 -0.112480 
-0.002363 -0.116647 
-0.003866 -0.114805 
-0.004468 -0.115355 
-0.003296 -0.117933 
0.001565 -0.119130 
0.001735 -0.122021 
0.001745 -0.120577 
0.000394 -0.118828 
-0.000930 -0.117994 
-0.001491 -0.119707 
-0.001145 -0.118901 
0.000202 -0.121069 
-0.019774 -0.098088 
-0.018329 -0.100057 
-0.022440 -0.091793 
-0.020463 -0.096058 
-0.024071 -0.090112 
-0.016860 -0.101438 
-0.015391 -0.102324 
-0.027899 -0.071794 
-0.027003 -0.077264 
-0.029959 -0.071215 
-0.020575 -0.088821 
-0.023837 -0.083181 
-0.021864 -0.083601 
-0.027592 -0.081180 
-0.025757 -0.082409 
-0.024219 -0.087247 
-0.011156 -0.102924 
-0.009841 -0.102701 
-0.013941 -0.102810 
-0.012525 -0.102983 
-0.015609 -0.094179 
-0.014147 -0.098784 
-0.017316 -0.094056 
-0.020754 -0.092948 
-0.019038 -0.093673 
-0.017296 -0.098171 
-0.008605 -0.010305 
-0.015723 -0.020651 
-0.012370 -0.014915 
-0.018462 -0.035385 
-0.017675 -0.027866 
-0.015070 -0.026701 
-0.023827 -0.033267 
-0.020707 -0.029960 
-0.024131 -0.038361 
-0.014703 -0.064310 
-0.016324 -0.057465 
-0.014223 -0.057168 
-0.020935 -0.058245 
-0.018565 -0.057821 
-0.019021 -0.064929 
-0.016039 -0.042421 
-0.017590 -0.050308 
-0.018361 -0.042915 
-0.030679 -0.060106 
-0.028361 -0.059776 
-0.028380 -0.065974 
-0.026391 -0.046046 
-0.027742 -0.053154 
-0.029034 -0.047636 
-0.023696 -0.065590 
-0.025903 -0.059273 
-0.023400 -0.058738 
-0.020901 -0.043643 
-0.022506 -0.051428 
-0.023617 -0.044679 
-0.002002 -0.100448 
-0.001001 -0.100334 
-0.004055 -0.100911 
-0.003018 -0.100643 
-0.003761 -0.092147 
-0.003415 -0.096635 
-0.005062 -0.092376 
-0.008583 -0.102376 
-0.007380 -0.101999 
-0.009241 -0.093304 
-0.008368 -0.097886 
-0.010747 -0.093628 
-0.006229 -0.101609 
-0.005123 -0.101239 
-0.010987 -0.070523 
-0.010869 -0.076856 
-0.012849 -0.070788 
-0.006897 -0.087661 
-0.008857 -0.082486 
-0.007264 -0.082218 
-0.012258 -0.083070 
-0.010520 -0.082775 
-0.009967 -0.088263 
-0.005805 -0.097187 
-0.007794 -0.092972 
-0.006404 -0.092656 
-0.025725 -0.072015 
-0.021238 -0.071851 
-0.023487 -0.072004 
-0.022854 -0.078001 
-0.019873 -0.083761 
-0.014812 -0.071067 
-0.014070 -0.083348 
-0.014588 -0.077417 
-0.016873 -0.071349 
-0.019022 -0.071619 
-0.011149 -0.098529 
-0.016872 -0.089164 
-0.013937 -0.094110 
-0.012314 -0.093910 
-0.013300 -0.088847 
-0.018627 -0.077887 
-0.015953 -0.083581 
-0.017893 -0.083735 
0.000000 0.000000 
-0.006664 -0.009132 
-0.004650 -0.008619 
-0.005495 -0.008756 
0.000000 0.000000 
-0.010686 -0.017737 
-0.012903 -0.026085 
-0.002486 -0.008589 
-0.002921 -0.008574 
0.000000 0.000000 
-0.008162 -0.025508 
-0.005675 -0.017087 
-0.006951 -0.025463 
0.000000 0.000000 
-0.003412 -0.008565 
-0.003977 -0.008572 
-0.013340 -0.049672 
-0.012263 -0.056920 
-0.013871 -0.034212 
-0.013937 -0.042088 
-0.010303 -0.041699 
-0.012033 -0.041860 
-0.010299 -0.033786 
-0.007738 -0.017181 
-0.009524 -0.025595 
-0.011083 -0.025763 
-0.000000 -0.008663 
-0.000265 -0.008664 
0.000000 0.000000 
-0.000744 -0.025408 
-0.000515 -0.017137 
-0.000000 -0.025404 
0.000000 0.000000 
-0.000534 -0.008661 
-0.000812 -0.008655 
-0.001354 -0.056057 
-0.001254 -0.048808 
-0.000000 -0.056039 
-0.002894 -0.033484 
-0.002250 -0.041287 
-0.003414 -0.041319 
-0.000000 -0.041257 
-0.001117 -0.041267 
-0.000946 -0.033458 
0.000000 0.000000 
-0.001738 -0.008622 
-0.002095 -0.008606 
-0.001102 -0.008647 
-0.001409 -0.008636 
0.000000 0.000000 
-0.003947 -0.025421 
-0.002737 -0.017115 
-0.003089 -0.025417 
-0.001499 -0.025411 
-0.002277 -0.025414 
-0.001577 -0.017131 
-0.001129 -0.096342 
-0.000000 -0.100304 
-0.004045 -0.087194 
-0.002491 -0.091977 
-0.000000 -0.091837 
-0.001241 -0.091873 
-0.001333 -0.086941 
-0.010849 -0.063799 
-0.009222 -0.070280 
-0.005941 -0.069883 
-0.007543 -0.070065 
-0.007423 -0.063403 
-0.007485 -0.076345 
-0.005733 -0.081984 
-0.000000 -0.069536 
-0.001446 -0.069562 
-0.001418 -0.062984 
-0.001400 -0.081565 
-0.001439 -0.075764 
-0.000000 -0.081533 
-0.004321 -0.063128 
-0.002907 -0.069629 
-0.004401 -0.069736 
-0.004254 -0.081793 
-0.004375 -0.075967 
-0.002814 -0.081652 
-0.004068 -0.017093 
-0.005010 -0.033532 
-0.004866 -0.025428 
-0.005861 -0.025440 
-0.007424 -0.033615 
-0.002726 -0.056100 
-0.005587 -0.056265 
-0.004131 -0.056170 
-0.003828 -0.048890 
-0.004625 -0.041362 
-0.010433 -0.056711 
-0.008719 -0.041580 
-0.009725 -0.049292 
-0.008722 -0.056534 
-0.007112 -0.056386 
-0.005901 -0.041418 
-0.006604 -0.049047 
-0.007259 -0.041489 
0.000000 0.000000 
0.000265 -0.008664 
0.000812 -0.008655 
0.000534 -0.008661 
0.000000 0.000000 
0.000515 -0.017137 
0.000744 -0.025408 
0.002095 -0.008606 
0.001738 -0.008622 
0.000000 0.000000 
0.003089 -0.025417 
0.002737 -0.017115 
0.003947 -0.025421 
0.000000 0.000000 
0.001409 -0.008636 
0.001102 -0.008647 
0.001254 -0.048808 
0.001354 -0.056057 
0.000946 -0.033458 
0.001117 -0.041267 
0.003414 -0.041319 
0.002250 -0.041287 
0.002894 -0.033484 
0.001577 -0.017131 
0.002277 -0.025414 
0.001499 -0.025411 
0.008605 -0.010305 
0.006664 -0.009132 
0.000000 0.000000 
0.012903 -0.026085 
0.010686 -0.017737 
0.015070 -0.026701 
0.000000 0.000000 
0.005495 -0.008756 
0.004650 -0.008619 
0.012263 -0.056920 
0.013340 -0.049672 
0.014223 -0.057168 
0.010299 -0.033786 
0.012033 -0.041860 
0.010303 -0.041699 
0.016039 -0.042421 
0.013937 -0.042088 
0.013871 -0.034212 
0.000000 0.000000 
0.002921 -0.008574 
0.002486 -0.008589 
0.003977 -0.008572 
0.003412 -0.008565 
0.000000 0.000000 
0.006951 -0.025463 
0.005675 -0.017087 
0.008162 -0.025508 
0.011083 -0.025763 
0.009524 -0.025595 
0.007738 -0.017181 
0.001129 -0.096342 
0.001001 -0.100334 
0.001333 -0.086941 
0.001241 -0.091873 
0.003761 -0.092147 
0.002491 -0.091977 
0.004045 -0.087194 
0.001418 -0.062984 
0.001446 -0.069562 
0.004401 -0.069736 
0.002907 -0.069629 
0.004321 -0.063128 
0.001439 -0.075764 
0.001400 -0.081565 
0.010987 -0.070523 
0.009222 -0.070280 
0.010849 -0.063799 
0.005733 -0.081984 
0.007485 -0.076345 
0.007264 -0.082218 
0.007423 -0.063403 
0.007543 -0.070065 
0.005941 -0.069883 
0.002814 -0.081652 
0.004375 -0.075967 
0.004254 -0.081793 
0.004068 -0.017093 
0.007424 -0.033615 
0.005861 -0.025440 
0.004866 -0.025428 
0.005010 -0.033532 
0.010433 -0.056711 
0.007112 -0.056386 
0.008722 -0.056534 
0.009725 -0.049292 
0.008719 -0.041580 
0.002726 -0.056100 
0.004625 -0.041362 
0.003828 -0.048890 
0.004131 -0.056170 
0.005587 -0.056265 
0.007259 -0.041489 
0.006604 -0.049047 
0.005901 -0.041418 
0.012370 -0.014915 
0.015723 -0.020651 
0.024131 -0.038361 
0.020707 -0.029960 
0.023827 -0.033267 
0.017675 -0.027866 
0.018462 -0.035385 
0.028380 -0.065974 
0.028361 -0.059776 
0.030679 -0.060106 
0.023400 -0.058738 
0.025903 -0.059273 
0.023696 -0.065590 
0.029034 -0.047636 
0.027742 -0.053154 
0.026391 -0.046046 
0.016324 -0.057465 
0.014703 -0.064310 
0.018361 -0.042915 
0.017590 -0.050308 
0.019021 -0.064929 
0.018565 -0.057821 
0.020935 -0.058245 
0.023617 -0.044679 
0.022506 -0.051428 
0.020901 -0.043643 
0.016072 -0.103803 
0.018329 -0.100057 
0.019774 -0.098088 
0.015391 -0.102324 
0.016860 -0.101438 
0.013360 -0.106143 
0.024071 -0.090112 
0.020463 -0.096058 
0.022440 -0.091793 
0.009841 -0.102701 
0.011156 -0.102924 
0.008424 -0.106421 
0.017316 -0.094056 
0.014147 -0.098784 
0.015609 -0.094179 
0.010780 -0.106779 
0.012525 -0.102983 
0.013941 -0.102810 
0.029959 -0.071215 
0.027003 -0.077264 
0.027899 -0.071794 
0.024219 -0.087247 
0.025757 -0.082409 
0.027592 -0.081180 
0.021864 -0.083601 
0.023837 -0.083181 
0.020575 -0.088821 
0.017296 -0.098171 
0.019038 -0.093673 
0.020754 -0.092948 
0.002002 -0.100448 
0.000855 -0.103833 
0.005062 -0.092376 
0.003415 -0.096635 
0.002585 -0.104160 
0.003018 -0.100643 
0.004055 -0.100911 
0.012849 -0.070788 
0.010869 -0.076856 
0.009967 -0.088263 
0.010520 -0.082775 
0.012258 -0.083070 
0.008857 -0.082486 
0.006897 -0.087661 
0.006306 -0.105631 
0.007380 -0.101999 
0.008583 -0.102376 
0.005123 -0.101239 
0.006229 -0.101609 
0.004381 -0.104801 