# vtk DataFile Version 2.0
Unstructured Grid Example
ASCII
DATASET UNSTRUCTURED_GRID

POINTS 25 float
0.007281 -0.171636 0.000000 
0.992719 -0.171636 0.000000 
1.000000 1.000000 0.000000 
0.000000 1.000000 0.000000 
0.500000 -0.100000 0.000000 
0.974253 0.377916 0.000000 
0.500000 1.000000 0.000000 
0.025747 0.377916 0.000000 
0.500000 0.380508 0.000000 
0.252646 -0.158719 0.000000 
0.500000 0.121121 0.000000 
0.252323 0.097272 0.000000 
0.747354 -0.158719 0.000000 
0.747677 0.097272 0.000000 
0.988766 0.093610 0.000000 
0.738090 0.375447 0.000000 
0.967303 0.672873 0.000000 
0.737135 0.678721 0.000000 
0.750000 1.000000 0.000000 
0.500000 0.681872 0.000000 
0.250000 1.000000 0.000000 
0.262865 0.678721 0.000000 
0.032697 0.672873 0.000000 
0.261910 0.375447 0.000000 
0.011234 0.093610 0.000000 

CELLS 32 128
3  0 9 11 
3  4 10 9 
3  8 11 10 
3  9 10 11 
3  4 12 10 
3  1 13 12 
3  8 10 13 
3  12 13 10 
3  1 14 13 
3  5 15 14 
3  8 13 15 
3  14 15 13 
3  5 16 15 
3  2 17 16 
3  8 15 17 
3  16 17 15 
3  2 18 17 
3  6 19 18 
3  8 17 19 
3  18 19 17 
3  6 20 19 
3  3 21 20 
3  8 19 21 
3  20 21 19 
3  3 22 21 
3  7 23 22 
3  8 21 23 
3  22 23 21 
3  7 24 23 
3  0 11 24 
3  8 23 11 
3  24 11 23 

CELL_TYPES 32
5
5
5
5
5
5
5
5
5
5
5
5
5
5
5
5
5
5
5
5
5
5
5
5
5
5
5
5
5
5
5
5

POINT_DATA 25

SCALARS u_h float 2
LOOKUP_TABLE default
0.007281 -0.171636 
-0.007281 -0.171636 
0.000000 0.000000 
0.000000 0.000000 
0.000000 -0.100000 
-0.025747 -0.122084 
0.000000 0.000000 
0.025747 -0.122084 
0.000000 -0.119492 
0.002646 -0.158719 
0.000000 -0.128879 
0.002323 -0.152728 
-0.002646 -0.158719 
-0.002323 -0.152728 
-0.011234 -0.156390 
-0.011910 -0.124553 
-0.032697 -0.077127 
-0.012865 -0.071279 
0.000000 0.000000 
0.000000 -0.068128 
0.000000 0.000000 
0.012865 -0.071279 
0.032697 -0.077127 
0.011910 -0.124553 
0.011234 -0.156390 

CELL_DATA 32

SCALARS epsilon float 4
LOOKUP_TABLE default
-0.018645 0.025067 0.000000 0.024563
-0.010638 -0.086059 0.000000 0.132761
-0.009336 0.041152 0.000000 0.045966
-0.009214 0.028221 0.000000 0.045925
-0.010638 -0.086059 0.000000 -0.132761
-0.018645 0.025067 0.000000 -0.024563
-0.009336 0.041152 0.000000 -0.045966
-0.009214 0.028221 0.000000 -0.045925
-0.036386 0.059009 0.000000 -0.015067
-0.054885 0.128513 0.000000 -0.025947
-0.048846 0.105870 0.000000 -0.029002
-0.036163 0.105988 0.000000 -0.026253
-0.056319 0.164312 0.000000 -0.010199
-0.074069 0.266148 0.000000 0.058138
-0.048833 0.191180 0.000000 -0.010267
-0.082524 0.191233 0.000000 -0.011581
0.000802 0.246471 0.000000 0.024464
0.000000 0.237082 0.000000 -0.000000
-0.052780 0.185026 0.000000 -0.005214
-0.051360 0.247031 0.000000 0.020895
0.000000 0.237082 0.000000 -0.000000
0.000802 0.246471 0.000000 -0.024464
-0.052780 0.185026 0.000000 0.005214
-0.051360 0.247031 0.000000 -0.020895
-0.074069 0.266148 0.000000 -0.058138
-0.056319 0.164312 0.000000 0.010199
-0.048833 0.191180 0.000000 0.010267
-0.082524 0.191233 0.000000 0.011581
-0.054885 0.128513 0.000000 0.025947
-0.036386 0.059009 0.000000 0.015067
-0.048846 0.105870 0.000000 0.029002
-0.036163 0.105988 0.000000 0.026253

SCALARS sigma float 4
LOOKUP_TABLE default
-0.262225 0.431388 0.046473 0.411022
-1.588401 -3.554917 -1.412999 2.200822
0.114282 0.861632 0.268108 0.760982
-0.009152 0.528462 0.142668 0.760560
-1.588401 -3.554917 -1.412999 -2.200822
-0.262225 0.431388 0.046473 -0.411022
0.114282 0.861632 0.268108 -0.760982
-0.009152 0.528462 0.142668 -0.760560
-0.409343 1.139867 0.200693 -0.244199
-0.320574 2.617678 0.631072 -0.367511
-0.334666 2.148567 0.498324 -0.453716
0.017978 2.286399 0.633071 -0.405193
-0.013687 3.446007 0.942945 -0.131823
0.175039 5.441376 1.542971 0.729140
0.433631 4.135116 1.255150 -0.170818
-0.521002 3.773268 0.893480 -0.199820
2.218604 5.857115 2.218604 0.328354
2.141516 5.653602 2.141516 -0.000000
0.272146 3.957093 1.161879 -0.090406
0.805295 5.331130 1.685831 0.261227
2.141516 5.653602 2.141516 -0.000000
2.218604 5.857115 2.218604 -0.328354
0.272146 3.957093 1.161879 0.090406
0.805295 5.331130 1.685831 -0.261227
0.175039 5.441376 1.542971 -0.729140
-0.013687 3.446007 0.942945 0.131823
0.433631 4.135116 1.255150 0.170818
-0.521002 3.773268 0.893480 0.199820
-0.320574 2.617678 0.631072 0.367511
-0.409343 1.139867 0.200693 0.244199
-0.334666 2.148567 0.498324 0.453716
0.017978 2.286399 0.633071 0.405193

