# vtk DataFile Version 2.0
Unstructured Grid Example
ASCII
DATASET UNSTRUCTURED_GRID

POINTS 1089 float
0.006980 -0.136253 0.000000 
0.993020 -0.136253 0.000000 
1.000000 1.000000 0.000000 
0.000000 1.000000 0.000000 
0.500000 -0.100000 0.000000 
0.983228 0.400976 0.000000 
0.500000 1.000000 0.000000 
0.016772 0.400976 0.000000 
0.500000 0.397606 0.000000 
0.259903 -0.045096 0.000000 
0.500000 0.137133 0.000000 
0.247947 0.136489 0.000000 
0.740097 -0.045096 0.000000 
0.752053 0.136489 0.000000 
1.001300 0.128636 0.000000 
0.742765 0.396133 0.000000 
0.970113 0.685417 0.000000 
0.737494 0.687034 0.000000 
0.750000 1.000000 0.000000 
0.500000 0.687951 0.000000 
0.250000 1.000000 0.000000 
0.262506 0.687034 0.000000 
0.029887 0.685417 0.000000 
0.257235 0.396133 0.000000 
-0.001300 0.128636 0.000000 
0.133668 -0.121424 0.000000 
0.247536 0.023513 0.000000 
0.119650 0.004158 0.000000 
0.500000 0.015711 0.000000 
0.376438 0.017993 0.000000 
0.373562 -0.100000 0.000000 
0.376236 0.263509 0.000000 
0.375211 0.137634 0.000000 
0.500000 0.263883 0.000000 
0.626438 -0.100000 0.000000 
0.623562 0.017993 0.000000 
0.880350 0.004158 0.000000 
0.752464 0.023513 0.000000 
0.866332 -0.121424 0.000000 
0.624789 0.137634 0.000000 
0.623764 0.263509 0.000000 
1.002895 -0.005916 0.000000 
0.878601 0.129876 0.000000 
0.863304 0.395898 0.000000 
0.871488 0.260016 0.000000 
0.993034 0.263795 0.000000 
0.748011 0.261934 0.000000 
0.621506 0.397309 0.000000 
0.974695 0.541115 0.000000 
0.856658 0.537737 0.000000 
0.859390 0.840970 0.000000 
0.854098 0.685959 0.000000 
0.973709 0.835027 0.000000 
0.738558 0.538053 0.000000 
0.619582 0.538977 0.000000 
0.875000 1.000000 0.000000 
0.741377 0.841835 0.000000 
0.500000 0.842014 0.000000 
0.621132 0.841958 0.000000 
0.625000 1.000000 0.000000 
0.619232 0.687691 0.000000 
0.500000 0.539372 0.000000 
0.375000 1.000000 0.000000 
0.378868 0.841958 0.000000 
0.140610 0.840970 0.000000 
0.258623 0.841835 0.000000 
0.125000 1.000000 0.000000 
0.380768 0.687691 0.000000 
0.380418 0.538977 0.000000 
0.026291 0.835027 0.000000 
0.145902 0.685959 0.000000 
0.136696 0.395898 0.000000 
0.143342 0.537737 0.000000 
0.025305 0.541115 0.000000 
0.261442 0.538053 0.000000 
0.378494 0.397309 0.000000 
0.006966 0.263795 0.000000 
0.128512 0.260016 0.000000 
0.121399 0.129876 0.000000 
-0.002895 -0.005916 0.000000 
0.251989 0.261934 0.000000 
0.069764 -0.130197 0.000000 
0.123655 -0.058556 0.000000 
0.062464 -0.066888 0.000000 
0.249375 -0.022682 0.000000 
0.184516 -0.043627 0.000000 
0.197201 -0.103802 0.000000 
0.182406 0.072905 0.000000 
0.182038 0.014275 0.000000 
0.247147 0.077895 0.000000 
0.500000 -0.043019 0.000000 
0.437683 -0.042811 0.000000 
0.437058 -0.100000 0.000000 
0.437979 0.076231 0.000000 
0.438114 0.016185 0.000000 
0.500000 0.075845 0.000000 
0.309045 -0.095434 0.000000 
0.376099 -0.041485 0.000000 
0.316319 -0.034339 0.000000 
0.438663 0.329741 0.000000 
0.438173 0.263796 0.000000 
0.500000 0.329825 0.000000 
0.311919 0.137653 0.000000 
0.375464 0.199617 0.000000 
0.312698 0.199158 0.000000 
0.500000 0.199721 0.000000 
0.437852 0.199709 0.000000 
0.437792 0.137289 0.000000 
0.313820 0.021606 0.000000 
0.375622 0.077307 0.000000 
0.312172 0.078490 0.000000 
0.562942 -0.100000 0.000000 
0.562317 -0.042811 0.000000 
0.683681 -0.034339 0.000000 
0.623901 -0.041485 0.000000 
0.690955 -0.095434 0.000000 
0.561886 0.016185 0.000000 
0.562021 0.076231 0.000000 
0.937536 -0.066888 0.000000 
0.876345 -0.058556 0.000000 
0.930236 -0.130197 0.000000 
0.752853 0.077895 0.000000 
0.817962 0.014275 0.000000 
0.817594 0.072905 0.000000 
0.802799 -0.103802 0.000000 
0.815484 -0.043627 0.000000 
0.750625 -0.022682 0.000000 
0.561827 0.263796 0.000000 
0.561337 0.329741 0.000000 
0.562208 0.137289 0.000000 
0.562148 0.199709 0.000000 
0.687302 0.199158 0.000000 
0.624536 0.199617 0.000000 
0.688081 0.137653 0.000000 
0.686180 0.021606 0.000000 
0.687828 0.078490 0.000000 
0.624378 0.077307 0.000000 
0.999130 -0.072183 0.000000 
0.941755 -0.002491 0.000000 
0.940344 0.127755 0.000000 
0.942344 0.062384 0.000000 
1.003381 0.061271 0.000000 
0.880570 0.066683 0.000000 
0.815838 0.133456 0.000000 
0.923284 0.397384 0.000000 
0.927854 0.328496 0.000000 
0.988113 0.332018 0.000000 
0.806533 0.327324 0.000000 
0.867361 0.327224 0.000000 
0.803147 0.395696 0.000000 
0.997604 0.196082 0.000000 
0.932473 0.260665 0.000000 
0.936804 0.193794 0.000000 
0.622687 0.329402 0.000000 
0.560761 0.397643 0.000000 
0.750333 0.198005 0.000000 
0.685859 0.262906 0.000000 
0.682195 0.396759 0.000000 
0.684066 0.328801 0.000000 
0.745394 0.328024 0.000000 
0.875374 0.194253 0.000000 
0.809973 0.260766 0.000000 
0.813180 0.196105 0.000000 
0.978638 0.470552 0.000000 
0.919101 0.467402 0.000000 
0.913068 0.611290 0.000000 
0.915585 0.538667 0.000000 
0.971713 0.612709 0.000000 
0.859644 0.466053 0.000000 
0.800107 0.465823 0.000000 
0.925157 0.919293 0.000000 
0.916863 0.839131 0.000000 
0.981408 0.913426 0.000000 
0.796007 0.686546 0.000000 
0.855465 0.762633 0.000000 
0.797435 0.763414 0.000000 
0.970481 0.759399 0.000000 
0.912938 0.761255 0.000000 
0.911982 0.685414 0.000000 
0.620409 0.467195 0.000000 
0.560219 0.467508 0.000000 
0.740394 0.466168 0.000000 
0.680485 0.466704 0.000000 
0.678474 0.612163 0.000000 
0.679180 0.538542 0.000000 
0.737505 0.611712 0.000000 
0.854672 0.611014 0.000000 
0.796217 0.611270 0.000000 
0.797698 0.537685 0.000000 
0.937500 1.000000 0.000000 
0.866208 0.920444 0.000000 
0.745262 0.920661 0.000000 
0.806020 0.920653 0.000000 
0.812500 1.000000 0.000000 
0.800789 0.841614 0.000000 
0.738747 0.763837 0.000000 
0.500000 0.920597 0.000000 
0.561475 0.920589 0.000000 
0.562500 1.000000 0.000000 
0.560007 0.764344 0.000000 
0.560619 0.841985 0.000000 
0.500000 0.764400 0.000000 
0.687500 1.000000 0.000000 
0.622888 0.920602 0.000000 
0.684177 0.920630 0.000000 
0.559826 0.539264 0.000000 
0.500000 0.467593 0.000000 
0.678542 0.687414 0.000000 
0.619154 0.612532 0.000000 
0.500000 0.612876 0.000000 
0.559628 0.612774 0.000000 
0.559677 0.687868 0.000000 
0.681430 0.841918 0.000000 
0.619889 0.764244 0.000000 
0.679516 0.764086 0.000000 
0.437500 1.000000 0.000000 
0.438525 0.920589 0.000000 
0.315823 0.920630 0.000000 
0.377112 0.920602 0.000000 
0.312500 1.000000 0.000000 
0.439381 0.841985 0.000000 
0.439993 0.764344 0.000000 
0.074843 0.919293 0.000000 
0.133792 0.920444 0.000000 
0.062500 1.000000 0.000000 
0.261253 0.763837 0.000000 
0.199211 0.841614 0.000000 
0.202565 0.763414 0.000000 
0.187500 1.000000 0.000000 
0.193980 0.920653 0.000000 
0.254738 0.920661 0.000000 
0.440174 0.539264 0.000000 
0.439781 0.467508 0.000000 
0.440323 0.687868 0.000000 
0.440372 0.612774 0.000000 
0.321526 0.612163 0.000000 
0.380846 0.612532 0.000000 
0.321458 0.687414 0.000000 
0.318570 0.841918 0.000000 
0.320484 0.764086 0.000000 
0.380111 0.764244 0.000000 
0.018592 0.913426 0.000000 
0.083137 0.839131 0.000000 
0.088018 0.685414 0.000000 
0.087062 0.761255 0.000000 
0.029519 0.759399 0.000000 
0.144535 0.762633 0.000000 
0.203993 0.686546 0.000000 
0.076716 0.397384 0.000000 
0.080899 0.467402 0.000000 
0.021362 0.470552 0.000000 
0.199893 0.465823 0.000000 
0.140356 0.466053 0.000000 
0.196853 0.395696 0.000000 
0.028287 0.612709 0.000000 
0.084415 0.538667 0.000000 
0.086932 0.611290 0.000000 
0.379591 0.467195 0.000000 
0.439239 0.397643 0.000000 
0.262495 0.611712 0.000000 
0.320820 0.538542 0.000000 
0.317805 0.396759 0.000000 
0.319515 0.466704 0.000000 
0.259606 0.466168 0.000000 
0.145328 0.611014 0.000000 
0.202302 0.537685 0.000000 
0.203783 0.611270 0.000000 
0.011887 0.332018 0.000000 
0.072146 0.328496 0.000000 
0.063196 0.193794 0.000000 
0.067527 0.260665 0.000000 
0.002396 0.196082 0.000000 
0.132639 0.327224 0.000000 
0.193467 0.327324 0.000000 
0.058245 -0.002491 0.000000 
0.000870 -0.072183 0.000000 
0.184162 0.133456 0.000000 
0.119430 0.066683 0.000000 
-0.003381 0.061271 0.000000 
0.057656 0.062384 0.000000 
0.059656 0.127755 0.000000 
0.377313 0.329402 0.000000 
0.254606 0.328024 0.000000 
0.315934 0.328801 0.000000 
0.314141 0.262906 0.000000 
0.249667 0.198005 0.000000 
0.124626 0.194253 0.000000 
0.186820 0.196105 0.000000 
0.190027 0.260766 0.000000 
0.038230 -0.133251 0.000000 
0.065925 -0.098756 0.000000 
0.034842 -0.101723 0.000000 
0.127830 -0.090103 0.000000 
0.096961 -0.095076 0.000000 
0.101614 -0.126454 0.000000 
0.090477 -0.031474 0.000000 
0.093146 -0.063325 0.000000 
0.121040 -0.027124 0.000000 
0.251495 -0.039099 0.000000 
0.218766 -0.058964 0.000000 
0.227526 -0.086497 0.000000 
0.214702 -0.007039 0.000000 
0.215829 -0.033036 0.000000 
0.248241 -0.001090 0.000000 
0.165685 -0.114326 0.000000 
0.188545 -0.073260 0.000000 
0.158381 -0.083152 0.000000 
0.215143 0.105155 0.000000 
0.214572 0.075853 0.000000 
0.247413 0.106775 0.000000 
0.150605 0.008859 0.000000 
0.182003 0.043386 0.000000 
0.150366 0.039195 0.000000 
0.247179 0.050035 0.000000 
0.214274 0.047343 0.000000 
0.214287 0.019702 0.000000 
0.154029 -0.052128 0.000000 
0.182718 -0.014615 0.000000 
0.151682 -0.021507 0.000000 
0.500000 -0.071724 0.000000 
0.468647 -0.071719 0.000000 
0.468555 -0.100000 0.000000 
0.468956 -0.013765 0.000000 
0.468811 -0.042971 0.000000 
0.500000 -0.013860 0.000000 
0.405441 -0.100000 0.000000 
0.437304 -0.071670 0.000000 
0.405999 -0.071547 0.000000 
0.468954 0.106411 0.000000 
0.469004 0.075945 0.000000 
0.500000 0.106342 0.000000 
0.407263 0.016863 0.000000 
0.438087 0.046097 0.000000 
0.407113 0.046704 0.000000 
0.500000 0.045628 0.000000 
0.469041 0.045751 0.000000 
0.469034 0.015834 0.000000 
0.279242 -0.082565 0.000000 
0.315152 -0.064212 0.000000 
0.287005 -0.051849 0.000000 
0.374859 -0.071194 0.000000 
0.344446 -0.069723 0.000000 
0.341120 -0.100000 0.000000 
0.346121 -0.009514 0.000000 
0.346083 -0.039236 0.000000 
0.376578 -0.011667 0.000000 
0.437984 -0.013483 0.000000 
0.407168 -0.012872 0.000000 
0.406711 -0.042426 0.000000 
0.469461 0.363504 0.000000 
[...]
POINT_DATA 1089

SCALARS u_h float 2
LOOKUP_TABLE default
0.006980 -0.136253 
-0.006980 -0.136253 
0.000000 0.000000 
0.000000 0.000000 
0.000000 -0.100000 
-0.016772 -0.099024 
0.000000 0.000000 
0.016772 -0.099024 
0.000000 -0.102394 
0.009903 -0.045096 
0.000000 -0.112867 
-0.002053 -0.113511 
-0.009903 -0.045096 
0.002053 -0.113511 
0.001300 -0.121364 
-0.007235 -0.103867 
-0.029887 -0.064583 
-0.012506 -0.062966 
0.000000 0.000000 
0.000000 -0.062049 
0.000000 0.000000 
0.012506 -0.062966 
0.029887 -0.064583 
0.007235 -0.103867 
-0.001300 -0.121364 
0.008668 -0.121424 
-0.002464 -0.101487 
-0.005350 -0.120842 
0.000000 -0.109289 
0.001438 -0.107007 
-0.001438 -0.100000 
0.001236 -0.111491 
0.000211 -0.112366 
0.000000 -0.111117 
0.001438 -0.100000 
-0.001438 -0.107007 
0.005350 -0.120842 
0.002464 -0.101487 
-0.008668 -0.121424 
-0.000211 -0.112366 
-0.001236 -0.111491 
0.002895 -0.130916 
0.003601 -0.120124 
-0.011696 -0.104102 
-0.003512 -0.114984 
-0.006966 -0.111205 
-0.001989 -0.113066 
-0.003494 -0.102691 
-0.025305 -0.083885 
-0.018342 -0.087263 
-0.015610 -0.034030 
-0.020902 -0.064041 
-0.026291 -0.039973 
-0.011442 -0.086947 
-0.005418 -0.086023 
0.000000 0.000000 
-0.008623 -0.033165 
-0.000000 -0.032986 
-0.003868 -0.033042 
0.000000 0.000000 
-0.005768 -0.062309 
0.000000 -0.085628 
0.000000 0.000000 
0.003868 -0.033042 
0.015610 -0.034030 
0.008623 -0.033165 
0.000000 0.000000 
0.005768 -0.062309 
0.005418 -0.086023 
0.026291 -0.039973 
0.020902 -0.064041 
0.011696 -0.104102 
0.018342 -0.087263 
0.025305 -0.083885 
0.011442 -0.086947 
0.003494 -0.102691 
0.006966 -0.111205 
0.003512 -0.114984 
-0.003601 -0.120124 
-0.002895 -0.130916 
0.001989 -0.113066 
0.007264 -0.130197 
-0.001345 -0.121056 
-0.000036 -0.129388 
-0.000625 -0.085182 
-0.002984 -0.106127 
0.009701 -0.103802 
-0.005094 -0.114595 
-0.005462 -0.110725 
-0.002853 -0.109605 
0.000000 -0.105519 
0.000183 -0.105311 
-0.000442 -0.100000 
0.000479 -0.111269 
0.000614 -0.108815 
0.000000 -0.111655 
-0.003455 -0.095434 
0.001099 -0.103985 
0.003819 -0.096839 
0.001163 -0.107759 
0.000673 -0.111204 
0.000000 -0.107675 
-0.000581 -0.112347 
0.000464 -0.112883 
0.000198 -0.113342 
0.000000 -0.112779 
0.000352 -0.112791 
0.000292 -0.112711 
0.001320 -0.103394 
0.000622 -0.110193 
-0.000328 -0.109010 
0.000442 -0.100000 
-0.000183 -0.105311 
-0.003819 -0.096839 
-0.001099 -0.103985 
0.003455 -0.095434 
-0.000614 -0.108815 
-0.000479 -0.111269 
0.000036 -0.129388 
0.001345 -0.121056 
-0.007264 -0.130197 
0.002853 -0.109605 
0.005462 -0.110725 
0.005094 -0.114595 
-0.009701 -0.103802 
0.002984 -0.106127 
0.000625 -0.085182 
-0.000673 -0.111204 
-0.001163 -0.107759 
-0.000292 -0.112711 
-0.000352 -0.112791 
-0.000198 -0.113342 
-0.000464 -0.112883 
0.000581 -0.112347 
-0.001320 -0.103394 
0.000328 -0.109010 
-0.000622 -0.110193 
-0.000870 -0.134683 
0.004255 -0.127491 
0.002844 -0.122245 
0.004844 -0.125116 
0.003381 -0.126229 
0.005570 -0.120817 
0.003338 -0.116544 
-0.014216 -0.102616 
-0.009646 -0.109004 
-0.011887 -0.105482 
-0.005967 -0.110176 
-0.007639 -0.110276 
-0.009353 -0.104304 
-0.002396 -0.116418 
-0.005027 -0.114335 
-0.000696 -0.118706 
-0.002313 -0.108098 
-0.001739 -0.102357 
0.000333 -0.114495 
-0.001641 -0.112094 
-0.005305 -0.103241 
-0.003434 -0.108699 
-0.004606 -0.109476 
0.000374 -0.118247 
-0.002527 -0.114234 
0.000680 -0.116395 
-0.021362 -0.091948 
-0.018399 -0.095098 
-0.024432 -0.076210 
-0.021915 -0.086333 
-0.028287 -0.074791 
-0.015356 -0.096447 
-0.012393 -0.096677 
-0.012343 -0.018207 
-0.020637 -0.035869 
-0.018592 -0.024074 
-0.016493 -0.063454 
-0.019535 -0.049867 
-0.015065 -0.049086 
-0.029519 -0.053101 
-0.024562 -0.051245 
-0.025518 -0.064586 
-0.004591 -0.095305 
-0.002281 -0.094992 
-0.009606 -0.096332 
-0.007015 -0.095796 
-0.009026 -0.075337 
-0.008320 -0.086458 
-0.012495 -0.075788 
-0.020328 -0.076486 
-0.016283 -0.076230 
-0.014802 -0.087315 
0.000000 0.000000 
-0.008792 -0.017056 
-0.004738 -0.016839 
-0.006480 -0.016847 
0.000000 0.000000 
-0.011711 -0.033386 
-0.011253 -0.048663 
0.000000 -0.016903 
-0.001025 -0.016911 
0.000000 0.000000 
-0.002493 -0.048156 
-0.001881 -0.033015 
0.000000 -0.048100 
0.000000 0.000000 
-0.002112 -0.016898 
-0.003323 -0.016870 
-0.002674 -0.085736 
0.000000 -0.094907 
-0.008958 -0.062586 
-0.005846 -0.074968 
0.000000 -0.074624 
-0.002872 -0.074726 
-0.002823 -0.062132 
-0.006070 -0.033082 
-0.005111 -0.048256 
-0.007984 -0.048414 
0.000000 0.000000 
0.001025 -0.016911 
0.003323 -0.016870 
0.002112 -0.016898 
0.000000 0.000000 
0.001881 -0.033015 
0.002493 -0.048156 
0.012343 -0.018207 
0.008792 -0.017056 
0.000000 0.000000 
0.011253 -0.048663 
0.011711 -0.033386 
0.015065 -0.049086 
0.000000 0.000000 
0.006480 -0.016847 
0.004738 -0.016839 
0.002674 -0.085736 
0.002281 -0.094992 
0.002823 -0.062132 
0.002872 -0.074726 
0.009026 -0.075337 
0.005846 -0.074968 
0.008958 -0.062586 
0.006070 -0.033082 
0.007984 -0.048414 
0.005111 -0.048256 
0.018592 -0.024074 
0.020637 -0.035869 
0.025518 -0.064586 
0.024562 -0.051245 
0.029519 -0.053101 
0.019535 -0.049867 
0.016493 -0.063454 
0.014216 -0.102616 
0.018399 -0.095098 
0.021362 -0.091948 
0.012393 -0.096677 
0.015356 -0.096447 
0.009353 -0.104304 
0.028287 -0.074791 
0.021915 -0.086333 
0.024432 -0.076210 
0.004591 -0.095305 
0.001739 -0.102357 
0.012495 -0.075788 
0.008320 -0.086458 
0.005305 -0.103241 
0.007015 -0.095796 
0.009606 -0.096332 
0.020328 -0.076486 
0.014802 -0.087315 
0.016283 -0.076230 
0.011887 -0.105482 
0.009646 -0.109004 
0.000696 -0.118706 
0.005027 -0.114335 
0.002396 -0.116418 
0.007639 -0.110276 
0.005967 -0.110176 
-0.004255 -0.127491 
0.000870 -0.134683 
-0.003338 -0.116544 
-0.005570 -0.120817 
-0.003381 -0.126229 
-0.004844 -0.125116 
-0.002844 -0.122245 
0.002313 -0.108098 
0.004606 -0.109476 
0.003434 -0.108699 
0.001641 -0.112094 
-0.000333 -0.114495 
-0.000374 -0.118247 
-0.000680 -0.116395 
0.002527 -0.114234 
0.006980 -0.133251 
0.003425 -0.130006 
0.003592 -0.132973 
0.002830 -0.121353 
0.003211 -0.126326 
0.007864 -0.126454 
-0.003273 -0.125224 
-0.000604 -0.125825 
-0.003960 -0.120874 
0.001495 -0.070349 
0.000016 -0.090214 
0.008776 -0.086497 
-0.004048 -0.100789 
-0.002921 -0.095536 
-0.001759 -0.094840 
0.009435 -0.114326 
0.001045 -0.104510 
0.002131 -0.114402 
-0.003607 -0.113595 
-0.004178 -0.111647 
-0.002587 -0.111975 
-0.005645 -0.116141 
-0.005497 -0.112864 
-0.005884 -0.117055 
-0.002821 -0.106215 
-0.004476 -0.108907 
-0.004463 -0.105298 
-0.002221 -0.114628 
-0.004782 -0.108365 
-0.004568 -0.115257 
0.000000 -0.102974 
-0.000103 -0.102969 
-0.000195 -0.100000 
0.000206 -0.107515 
0.000061 -0.105471 
0.000000 -0.107610 
-0.000809 -0.100000 
-0.000196 -0.102920 
-0.000251 -0.102797 
0.000204 -0.112339 
0.000254 -0.111555 
0.000000 -0.112408 
0.001013 -0.108137 
0.000587 -0.110153 
0.000863 -0.109546 
0.000000 -0.110622 
0.000291 -0.110499 
0.000284 -0.109166 
-0.002008 -0.082565 
0.002652 -0.095462 
0.005755 -0.083099 
-0.000141 -0.102444 
0.000696 -0.100973 
-0.002630 -0.100000 
0.002371 -0.103264 
0.002333 -0.101736 
0.001578 -0.105417 
0.000484 -0.107233 
0.000918 -0.106622 
0.000461 -0.104926 
0.000711 -0.105246 
0.000578 -0.107688 
0.000000 -0.105261 
0.000974 -0.111315 
0.000903 -0.109722 
0.001337 -0.109851 
0.000000 -0.109626 
0.000453 -0.109650 
0.000343 -0.111142 
-0.001263 -0.112720 
-0.000296 -0.113131 
-0.000763 -0.113582 
0.000260 -0.112852 
0.000053 -0.112913 
-0.000083 -0.112268 
0.000858 -0.112657 
0.000379 -0.113045 
0.000798 -0.112434 
0.000000 -0.113003 
0.000164 -0.112993 
0.000169 -0.112831 
0.000254 -0.112181 
0.000192 -0.112788 
0.000000 -0.112160 
0.000321 -0.112538 
0.000286 -0.112943 
0.000329 -0.112881 
0.000671 -0.112297 
0.000450 -0.112812 
0.000485 -0.112220 
0.003520 -0.090131 
0.001682 -0.105375 
0.002648 -0.099999 
0.001414 -0.096529 
-0.000061 -0.101721 
0.000364 -0.112137 
0.000333 -0.111460 
0.000429 -0.111826 
0.000630 -0.110803 
0.001033 -0.108661 
-0.001504 -0.111184 
-0.000976 -0.105795 
-0.001430 -0.108907 
-0.000608 -0.110975 
0.000005 -0.111130 
0.000923 -0.107566 
0.000341 -0.109536 
0.000306 -0.106463 
0.000195 -0.100000 
0.000103 -0.102969 
0.000251 -0.102797 
0.000196 -0.102920 
0.000809 -0.100000 
-0.000061 -0.105471 
-0.000206 -0.107515 
-0.005755 -0.083099 
-0.002652 -0.095462 
0.002008 -0.082565 
-0.001578 -0.105417 
-0.002333 -0.101736 
-0.002371 -0.103264 
0.002630 -0.100000 
-0.000696 -0.100973 
0.000141 -0.102444 
-0.000254 -0.111555 
-0.000204 -0.112339 
-0.000284 -0.109166 
-0.000291 -0.110499 
-0.000863 -0.109546 
-0.000587 -0.110153 
-0.001013 -0.108137 
-0.000461 -0.104926 
-0.000918 -0.106622 
-0.000484 -0.107233 
-0.003592 -0.132973 
-0.003425 -0.130006 
-0.006980 -0.133251 
0.003960 -0.120874 
0.000604 -0.125825 
0.003273 -0.125224 
-0.007864 -0.126454 
-0.003211 -0.126326 
-0.002830 -0.121353 
0.002587 -0.111975 
0.004178 -0.111647 
0.003607 -0.113595 
0.004463 -0.105298 
0.004476 -0.108907 
0.002821 -0.106215 
0.005884 -0.117055 
0.005497 -0.112864 
0.005645 -0.116141 
-0.008776 -0.086497 
-0.000016 -0.090214 
-0.001495 -0.070349 
-0.002131 -0.114402 
-0.001045 -0.104510 
-0.009435 -0.114326 
0.001759 -0.094840 
0.002921 -0.095536 
0.004048 -0.100789 
0.004568 -0.115257 
0.004782 -0.108365 
0.002221 -0.114628 
-0.000578 -0.107688 
-0.000711 -0.105246 
-0.000343 -0.111142 
-0.000453 -0.109650 
-0.001337 -0.109851 
-0.000903 -0.109722 
-0.000974 -0.111315 
-0.000169 -0.112831 
-0.000164 -0.112993 
-0.000329 -0.112881 
-0.000286 -0.112943 
-0.000321 -0.112538 
-0.000192 -0.112788 
-0.000254 -0.112181 
0.000763 -0.113582 
0.000296 -0.113131 
0.001263 -0.112720 
-0.000798 -0.112434 
-0.000379 -0.113045 
-0.000858 -0.112657 
0.000083 -0.112268 
-0.000053 -0.112913 
-0.000260 -0.112852 
-0.000485 -0.112220 
-0.000450 -0.112812 
-0.000671 -0.112297 
-0.003520 -0.090131 
0.000061 -0.101721 
-0.001414 -0.096529 
-0.002648 -0.099999 
-0.001682 -0.105375 
0.001504 -0.111184 
-0.000005 -0.111130 
0.000608 -0.110975 
0.001430 -0.108907 
0.000976 -0.105795 
-0.000364 -0.112137 
-0.001033 -0.108661 
-0.000630 -0.110803 
-0.000429 -0.111826 
-0.000333 -0.111460 
-0.000306 -0.106463 
-0.000341 -0.109536 
-0.000923 -0.107566 
-0.003808 -0.135805 
-0.000415 -0.132194 
0.003631 -0.129558 
0.002056 -0.131017 
0.001427 -0.132993 
0.002636 -0.128515 
0.004839 -0.124620 
0.002160 -0.122268 
0.003442 -0.124246 
0.002599 -0.123802 
0.004557 -0.122484 
0.004096 -0.123753 
0.003334 -0.121472 
0.003519 -0.128622 
0.004206 -0.126129 
0.004314 -0.127909 
0.004353 -0.115832 
0.002793 -0.114827 
0.005812 -0.120864 
0.005533 -0.117813 
0.003611 -0.118402 
0.004742 -0.118287 
0.004791 -0.120596 
0.004947 -0.126358 
0.005312 -0.123308 
0.005460 -0.124000 
-0.015502 -0.101147 
-0.013146 -0.104476 
-0.014359 -0.102357 
-0.010797 -0.106878 
-0.011953 -0.105948 
-0.012940 -0.103566 
-0.009408 -0.108422 
-0.010748 -0.107578 
-0.008338 -0.110464 
-0.006780 -0.107234 
-0.007684 -0.107463 
-0.008267 -0.104133 
-0.005567 -0.112812 
-0.006760 -0.110345 
-0.004848 -0.112739 
-0.010497 -0.104319 
-0.008654 -0.107537 
-0.009693 -0.107373 
-0.000398 -0.118910 
-0.001482 -0.117988 
0.000484 -0.120188 
-0.005956 -0.113147 
-0.003652 -0.115648 
-0.004609 -0.113861 
-0.002080 -0.116965 
-0.002799 -0.116633 
-0.004206 -0.114902 
-0.008605 -0.109866 
-0.006395 -0.112539 
-0.007324 -0.111797 
-0.001443 -0.105305 
-0.000869 -0.102306 
-0.001749 -0.110047 
-0.001743 -0.107895 
-0.002613 -0.102491 
-0.002174 -0.105441 
-0.002902 -0.105645 
0.001288 -0.114327 
0.000055 -0.113816 
-0.001810 -0.112537 
-0.000817 -0.113459 
-0.000772 -0.114063 
-0.000858 -0.112992 
-0.001456 -0.111747 
-0.006251 -0.103557 
-0.005139 -0.106568 
-0.005936 -0.106918 
-0.003634 -0.105909 
-0.004376 -0.106223 
-0.004390 -0.102946 
-0.003279 -0.111531 
-0.004006 -0.109076 
-0.002885 -0.111071 
-0.002138 -0.110316 
-0.002512 -0.110660 
-0.002874 -0.108369 
0.001213 -0.120570 
-0.001516 -0.116794 
-0.000070 -0.118737 
0.001760 -0.120232 
0.002102 -0.119351 
-0.005253 -0.109862 
-0.002216 -0.113653 
-0.003720 -0.112006 
-0.004236 -0.112436 
-0.002954 -0.114718 
0.001768 -0.115405 
0.002218 -0.118115 
0.002099 -0.116728 
0.000566 -0.115378 
-0.000774 -0.114784 
-0.001116 -0.116275 
-0.000876 -0.115559 
0.000624 -0.117408 
-0.019134 -0.095609 
-0.017769 -0.097599 
-0.021875 -0.089712 
-0.019903 -0.093792 
-0.023431 -0.088042 
-0.016373 -0.099007 
-0.014974 -0.099929 
-0.027298 -0.070380 
-0.026411 -0.075695 
-0.029291 -0.069834 
-0.020137 -0.086943 
-0.023322 -0.081449 
-0.021413 -0.081887 
-0.026940 -0.079471 
-0.025175 -0.080677 
-0.023646 -0.085345 
-0.010935 -0.100708 
-0.009678 -0.100569 
-0.013591 -0.100463 
-0.012241 -0.100696 
-0.015308 -0.092222 
-0.013857 -0.096664 
-0.016952 -0.092050 
-0.020259 -0.090877 
-0.018610 -0.091628 
-0.016876 -0.095953 
-0.008119 -0.009896 
-0.015152 -0.020140 
-0.011913 -0.013967 
-0.017975 -0.034727 
-0.017135 -0.027312 
-0.014621 -0.026197 
-0.023156 -0.032508 
-0.020084 -0.029319 
-0.023495 -0.037602 
-0.014443 -0.063196 
-0.016006 -0.056458 
-0.013960 -0.056197 
-0.020499 -0.057171 
-0.018190 -0.056779 
-0.018652 -0.063739 
-0.015676 -0.041678 
-0.017216 -0.049415 
-0.017929 -0.042140 
-0.029995 -0.059016 
-0.027741 -0.058648 
-0.027769 -0.064708 
-0.025756 -0.045171 
-0.027113 -0.052157 
-0.028338 -0.046783 
-0.023207 -0.064338 
-0.025344 -0.058148 
-0.022903 -0.057635 
-0.020400 -0.042835 
-0.022003 -0.050472 
-0.023047 -0.043835 
-0.002026 -0.098917 
-0.001023 -0.098860 
-0.004067 -0.099241 
-0.003039 -0.099048 
-0.003761 -0.090720 
-0.003426 -0.095121 
-0.005047 -0.090895 
-0.008472 -0.100335 
-0.007314 -0.100054 
-0.009142 -0.091617 
-0.008287 -0.096070 
-0.010606 -0.091867 
-0.006198 -0.099761 
-0.005118 -0.099483 
-0.010827 -0.069355 
-0.010721 -0.075557 
-0.012646 -0.069576 
-0.006845 -0.086226 
-0.008760 -0.081112 
-0.007197 -0.080896 
-0.012083 -0.081584 
-0.010387 -0.081346 
-0.009851 -0.086704 
-0.005785 -0.095535 
-0.007730 -0.091358 
-0.006368 -0.091111 
-0.025187 -0.070597 
-0.020821 -0.070477 
-0.023010 -0.070601 
-0.022390 -0.076445 
-0.019484 -0.082078 
-0.014561 -0.069811 
-0.013848 -0.081806 
-0.014350 -0.076019 
-0.016570 -0.070050 
-0.018664 -0.070280 
-0.010975 -0.096549 
-0.016557 -0.087365 
-0.013694 -0.092212 
-0.012125 -0.092078 
-0.013094 -0.087161 
-0.018282 -0.076398 
-0.015679 -0.081987 
-0.017564 -0.082092 
0.000000 0.000000 
-0.006399 -0.008931 
-0.004519 -0.008483 
-0.005317 -0.008605 
0.000000 0.000000 
-0.010334 -0.017405 
-0.012546 -0.025623 
-0.002442 -0.008470 
-0.002862 -0.008452 
0.000000 0.000000 
-0.007991 -0.025114 
-0.005557 -0.016833 
-0.006819 -0.025083 
0.000000 0.000000 
-0.003335 -0.008440 
-0.003877 -0.008443 
-0.013082 -0.048844 
-0.012049 -0.055984 
-0.013537 -0.033622 
-0.013637 -0.041376 
-0.010109 -0.041041 
-0.011790 -0.041177 
-0.010085 -0.033248 
-0.007540 -0.016905 
-0.009305 -0.025184 
-0.010803 -0.025331 
0.000000 -0.008548 
-0.000261 -0.008551 
0.000000 0.000000 
-0.000734 -0.025066 
-0.000508 -0.016910 
-0.000000 -0.025055 
0.000000 0.000000 
-0.000528 -0.008549 
-0.000802 -0.008544 
-0.001339 -0.055260 
-0.001239 -0.048123 
0.000000 -0.055233 
-0.002855 -0.033028 
-0.002221 -0.040717 
-0.003368 -0.040745 
-0.000000 -0.040675 
-0.001103 -0.040695 
-0.000934 -0.033001 
0.000000 0.000000 
-0.001713 -0.008507 
-0.002061 -0.008489 
-0.001088 -0.008535 
-0.001390 -0.008523 
0.000000 0.000000 
-0.003889 -0.025071 
-0.002698 -0.016885 
-0.003046 -0.025073 
-0.001480 -0.025072 
-0.002247 -0.025074 
-0.001557 -0.016906 
-0.001144 -0.094922 
0.000000 -0.098873 
-0.004032 -0.085858 
-0.002498 -0.090593 
0.000000 -0.090490 
-0.001248 -0.090517 
-0.001334 -0.085660 
-0.010681 -0.062763 
-0.009098 -0.069154 
-0.005876 -0.068827 
-0.007452 -0.068977 
-0.007325 -0.062435 
-0.007405 -0.075139 
-0.005690 -0.080708 
0.000000 -0.068521 
-0.001434 -0.068553 
-0.001404 -0.062079 
-0.001396 -0.080367 
-0.001430 -0.074657 
0.000000 -0.080333 
-0.004272 -0.062208 
-0.002881 -0.068615 
-0.004357 -0.068706 
-0.004228 -0.080555 
-0.004340 -0.074830 
-0.002801 -0.080440 
-0.003999 -0.016853 
-0.004934 -0.033059 
-0.004788 -0.025070 
-0.005759 -0.025072 
-0.007293 -0.033115 
-0.002694 -0.055303 
-0.005514 -0.055442 
-0.004080 -0.055363 
-0.003779 -0.048199 
-0.004560 -0.040779 
-0.010263 -0.055808 
-0.008567 -0.040946 
-0.009560 -0.048524 
-0.008589 -0.055662 
-0.007012 -0.055541 
-0.005812 -0.040821 
-0.006507 -0.048326 
-0.007142 -0.040875 
0.000000 0.000000 
0.000261 -0.008551 
0.000802 -0.008544 
0.000528 -0.008549 
0.000000 0.000000 
0.000508 -0.016910 
0.000734 -0.025066 
0.002061 -0.008489 
0.001713 -0.008507 
0.000000 0.000000 
0.003046 -0.025073 
0.002698 -0.016885 
0.003889 -0.025071 
0.000000 0.000000 
0.001390 -0.008523 
0.001088 -0.008535 
0.001239 -0.048123 
0.001339 -0.055260 
0.000934 -0.033001 
0.001103 -0.040695 
0.003368 -0.040745 
0.002221 -0.040717 
0.002855 -0.033028 
0.001557 -0.016906 
0.002247 -0.025074 
0.001480 -0.025072 
0.008119 -0.009896 
0.006399 -0.008931 
0.000000 0.000000 
0.012546 -0.025623 
0.010334 -0.017405 
0.014621 -0.026197 
0.000000 0.000000 
0.005317 -0.008605 
0.004519 -0.008483 
0.012049 -0.055984 
0.013082 -0.048844 
0.013960 -0.056197 
0.010085 -0.033248 
0.011790 -0.041177 
0.010109 -0.041041 
0.015676 -0.041678 
0.013637 -0.041376 
0.013537 -0.033622 
0.000000 0.000000 
0.002862 -0.008452 
0.002442 -0.008470 
0.003877 -0.008443 
0.003335 -0.008440 
0.000000 0.000000 
0.006819 -0.025083 
0.005557 -0.016833 
0.007991 -0.025114 
0.010803 -0.025331 
0.009305 -0.025184 
0.007540 -0.016905 
0.001144 -0.094922 
0.001023 -0.098860 
0.001334 -0.085660 
0.001248 -0.090517 
0.003761 -0.090720 
0.002498 -0.090593 
0.004032 -0.085858 
0.001404 -0.062079 
0.001434 -0.068553 
0.004357 -0.068706 
0.002881 -0.068615 
0.004272 -0.062208 
0.001430 -0.074657 
0.001396 -0.080367 
0.010827 -0.069355 
0.009098 -0.069154 
0.010681 -0.062763 
0.005690 -0.080708 
0.007405 -0.075139 
0.007197 -0.080896 
0.007325 -0.062435 
0.007452 -0.068977 
0.005876 -0.068827 
0.002801 -0.080440 
0.004340 -0.074830 
0.004228 -0.080555 
0.003999 -0.016853 
0.007293 -0.033115 
0.005759 -0.025072 
0.004788 -0.025070 
0.004934 -0.033059 
0.010263 -0.055808 
0.007012 -0.055541 
0.008589 -0.055662 
0.009560 -0.048524 
0.008567 -0.040946 
0.002694 -0.055303 
0.004560 -0.040779 
0.003779 -0.048199 
0.004080 -0.055363 
0.005514 -0.055442 
0.007142 -0.040875 
0.006507 -0.048326 
0.005812 -0.040821 
0.011913 -0.013967 
0.015152 -0.020140 
0.023495 -0.037602 
0.020084 -0.029319 
0.023156 -0.032508 
0.017135 -0.027312 
0.017975 -0.034727 
0.027769 -0.064708 
0.027741 -0.058648 
0.029995 -0.059016 
0.022903 -0.057635 
0.025344 -0.058148 
0.023207 -0.064338 
0.028338 -0.046783 
0.027113 -0.052157 
0.025756 -0.045171 
0.016006 -0.056458 
0.014443 -0.063196 
0.017929 -0.042140 
0.017216 -0.049415 
0.018652 -0.063739 
0.018190 -0.056779 
0.020499 -0.057171 
0.023047 -0.043835 
0.022003 -0.050472 
0.020400 -0.042835 
0.015502 -0.101147 
0.017769 -0.097599 
0.019134 -0.095609 
0.014974 -0.099929 
0.016373 -0.099007 
0.012940 -0.103566 
0.023431 -0.088042 
0.019903 -0.093792 
0.021875 -0.089712 
0.009678 -0.100569 
0.010935 -0.100708 
0.008267 -0.104133 
0.016952 -0.092050 
0.013857 -0.096664 
0.015308 -0.092222 
0.010497 -0.104319 
0.012241 -0.100696 
0.013591 -0.100463 
0.029291 -0.069834 
0.026411 -0.075695 
0.027298 -0.070380 
0.023646 -0.085345 
0.025175 -0.080677 
0.026940 -0.079471 
0.021413 -0.081887 
0.023322 -0.081449 
0.020137 -0.086943 
0.016876 -0.095953 
0.018610 -0.091628 
0.020259 -0.090877 
0.002026 -0.098917 
0.000869 -0.102306 
0.005047 -0.090895 
0.003426 -0.095121 
0.002613 -0.102491 
0.003039 -0.099048 
0.004067 -0.099241 
0.012646 -0.069576 
0.010721 -0.075557 
0.009851 -0.086704 
0.010387 -0.081346 
0.012083 -0.081584 
0.008760 -0.081112 
0.006845 -0.086226 
0.006251 -0.103557 
0.007314 -0.100054 
0.008472 -0.100335 
0.005118 -0.099483 
0.006198 -0.099761 
0.004390 -0.102946 
0.010606 -0.091867 