# vtk DataFile Version 2.0
Unstructured Grid Example
ASCII
DATASET UNSTRUCTURED_GRID

POINTS 64 float
0.000000 0.000000 0.000000 
0.031250 0.000000 0.000000 
0.031250 0.000000 0.000000 
0.062500 0.000000 0.000000 
0.062500 0.000000 0.000000 
0.093750 0.000000 0.000000 
0.093750 0.000000 0.000000 
0.125000 0.000000 0.000000 
0.187500 -1.409351 0.000000 
0.218750 -6.547224 0.000000 
0.218750 -3.166953 0.000000 
0.250000 -8.169894 0.000000 
0.125000 0.723307 0.000000 
0.156250 -1.446614 0.000000 
0.156250 1.675361 0.000000 
0.187500 -5.520643 0.000000 
0.437500 -14.676673 0.000000 
0.468750 -16.588516 0.000000 
0.468750 -15.860625 0.000000 
0.500000 -16.132455 0.000000 
0.375000 -11.660452 0.000000 
0.406250 -15.605737 0.000000 
0.406250 -13.267329 0.000000 
0.437500 -16.337267 0.000000 
0.250000 -4.828003 0.000000 
0.281250 -9.850733 0.000000 
0.281250 -6.508684 0.000000 
0.312500 -11.512102 0.000000 
0.312500 -8.223307 0.000000 
0.343750 -13.086274 0.000000 
0.343750 -9.955023 0.000000 
0.375000 -14.485808 0.000000 
0.500000 -16.132455 0.000000 
0.531250 -15.860625 0.000000 
0.531250 -16.588516 0.000000 
0.562500 -14.676673 0.000000 
0.562500 -16.337267 0.000000 
0.593750 -13.267329 0.000000 
0.593750 -15.605737 0.000000 
0.625000 -11.660452 0.000000 
0.687500 -11.512102 0.000000 
0.718750 -6.508684 0.000000 
0.718750 -9.850733 0.000000 
0.750000 -4.828003 0.000000 
0.625000 -14.485808 0.000000 
0.656250 -9.955023 0.000000 
0.656250 -13.086274 0.000000 
0.687500 -8.223307 0.000000 
0.937500 0.000000 0.000000 
0.968750 0.000000 0.000000 
0.968750 0.000000 0.000000 
1.000000 0.000000 0.000000 
0.875000 0.000000 0.000000 
0.906250 0.000000 0.000000 
0.906250 0.000000 0.000000 
0.937500 0.000000 0.000000 
0.750000 -8.169894 0.000000 
0.781250 -3.166953 0.000000 
0.781250 -6.547224 0.000000 
0.812500 -1.409351 0.000000 
0.812500 -5.520643 0.000000 
0.843750 1.675361 0.000000 
0.843750 -1.446614 0.000000 
0.875000 0.723307 0.000000 

CELLS 32 96
2  0 1 
2  2 3 
2  4 5 
2  6 7 
2  8 9 
2  10 11 
2  12 13 
2  14 15 
2  16 17 
2  18 19 
2  20 21 
2  22 23 
2  24 25 
2  26 27 
2  28 29 
2  30 31 
2  32 33 
2  34 35 
2  36 37 
2  38 39 
2  40 41 
2  42 43 
2  44 45 
2  46 47 
2  48 49 
2  50 51 
2  52 53 
2  54 55 
2  56 57 
2  58 59 
2  60 61 
2  62 63 

CELL_TYPES 32
3
3
3
3
3
3
3
3
3
3
3
3
3
3
3
3
3
3
3
3
3
3
3
3
3
3
3
3
3
3
3
3

POINT_DATA 64

SCALARS lambda_h float 1
LOOKUP_TABLE default
0.000000 
0.000000 
0.000000 
0.000000 
0.000000 
0.000000 
0.000000 
0.000000 
-1.409351 
-6.547224 
-3.166953 
-8.169894 
0.723307 
-1.446614 
1.675361 
-5.520643 
-14.676673 
-16.588516 
-15.860625 
-16.132455 
-11.660452 
-15.605737 
-13.267329 
-16.337267 
-4.828003 
-9.850733 
-6.508684 
-11.512102 
-8.223307 
-13.086274 
-9.955023 
-14.485808 
-16.132455 
-15.860625 
-16.588516 
-14.676673 
-16.337267 
-13.267329 
-15.605737 
-11.660452 
-11.512102 
-6.508684 
-9.850733 
-4.828003 
-14.485808 
-9.955023 
-13.086274 
-8.223307 
0.000000 
0.000000 
0.000000 
0.000000 
0.000000 
0.000000 
0.000000 
0.000000 
-8.169894 
-3.166953 
-6.547224 
-1.409351 
-5.520643 
1.675361 
-1.446614 
0.723307 

