# vtk DataFile Version 2.0
Unstructured Grid Example
ASCII
DATASET UNSTRUCTURED_GRID

POINTS 8 float
0.000000 6.496950 0.000000 
0.250000 -12.993899 0.000000 
0.250000 2.226860 0.000000 
0.500000 -23.944569 0.000000 
0.500000 -23.944569 0.000000 
0.750000 2.226860 0.000000 
0.750000 -12.993899 0.000000 
1.000000 6.496950 0.000000 

CELLS 4 12
2  0 1 
2  2 3 
2  4 5 
2  6 7 

CELL_TYPES 4
3
3
3
3

POINT_DATA 8

SCALARS lambda_h float 1
LOOKUP_TABLE default
6.496950 
-12.993899 
2.226860 
-23.944569 
-23.944569 
2.226860 
-12.993899 
6.496950 

