# vtk DataFile Version 2.0
Unstructured Grid Example
ASCII
DATASET UNSTRUCTURED_GRID

POINTS 256 float
0.000000 0.000000 0.000000 
0.007812 0.000000 0.000000 
0.007812 0.000000 0.000000 
0.015625 0.000000 0.000000 
0.015625 0.000000 0.000000 
0.023438 0.000000 0.000000 
0.023438 0.000000 0.000000 
0.031250 0.000000 0.000000 
0.046875 0.000000 0.000000 
0.054688 0.000000 0.000000 
0.054688 0.000000 0.000000 
0.062500 0.000000 0.000000 
0.031250 0.000000 0.000000 
0.039062 0.000000 0.000000 
0.039062 0.000000 0.000000 
0.046875 0.000000 0.000000 
0.109375 0.000000 0.000000 
0.117188 0.000000 0.000000 
0.117188 0.000000 0.000000 
0.125000 0.000000 0.000000 
0.093750 0.000000 0.000000 
0.101562 0.000000 0.000000 
0.101562 0.000000 0.000000 
0.109375 0.000000 0.000000 
0.062500 0.000000 0.000000 
0.070312 0.000000 0.000000 
0.070312 0.000000 0.000000 
0.078125 0.000000 0.000000 
0.078125 0.000000 0.000000 
0.085938 0.000000 0.000000 
0.085938 0.000000 0.000000 
0.093750 0.000000 0.000000 
0.234375 -5.159355 0.000000 
0.242188 -6.417653 0.000000 
0.242188 -5.578628 0.000000 
0.250000 -6.837406 0.000000 
0.218750 -4.318475 0.000000 
0.226562 -5.579516 0.000000 
0.226562 -4.739549 0.000000 
0.234375 -5.998408 0.000000 
0.187500 -2.594015 0.000000 
0.195312 -3.898786 0.000000 
0.195312 -3.035237 0.000000 
0.203125 -4.321114 0.000000 
0.203125 -3.468014 0.000000 
0.210938 -4.741437 0.000000 
0.210938 -3.895104 0.000000 
0.218750 -5.160681 0.000000 
0.125000 0.000000 0.000000 
0.132812 0.000000 0.000000 
0.132812 0.000000 0.000000 
0.140625 0.000000 0.000000 
0.140625 0.327490 0.000000 
0.148438 -0.654979 0.000000 
0.148438 0.458270 0.000000 
0.156250 -1.899008 0.000000 
0.171875 -1.668058 0.000000 
0.179688 -3.042955 0.000000 
0.179688 -2.140373 0.000000 
0.187500 -3.473222 0.000000 
0.156250 -0.581210 0.000000 
0.164062 -2.177326 0.000000 
0.164062 -1.164218 0.000000 
0.171875 -2.607426 0.000000 
0.484375 -16.188940 0.000000 
0.492188 -16.321512 0.000000 
0.492188 -16.300373 0.000000 
0.500000 -16.231218 0.000000 
0.468750 -15.952480 0.000000 
0.476562 -16.262386 0.000000 
0.476562 -16.085038 0.000000 
0.484375 -16.307176 0.000000 
0.437500 -15.156946 0.000000 
0.445312 -15.789891 0.000000 
0.445312 -15.393140 0.000000 
0.453125 -15.950449 0.000000 
0.453125 -15.605357 0.000000 
0.460938 -16.083324 0.000000 
0.460938 -15.792221 0.000000 
0.468750 -16.187563 0.000000 
0.375000 -12.590492 0.000000 
0.382812 -13.666829 0.000000 
0.382812 -12.962250 0.000000 
0.390625 -13.999648 0.000000 
0.390625 -13.322580 0.000000 
0.398438 -14.316388 0.000000 
0.398438 -13.669963 0.000000 
0.406250 -14.615428 0.000000 
0.421875 -14.618597 0.000000 
0.429688 -15.390334 0.000000 
0.429688 -14.898249 0.000000 
0.437500 -15.602767 0.000000 
0.406250 -14.002833 0.000000 
0.414062 -14.895154 0.000000 
0.414062 -14.319585 0.000000 
0.421875 -15.153972 0.000000 
0.250000 -5.997874 0.000000 
0.257812 -7.257692 0.000000 
0.257812 -6.417419 0.000000 
0.265625 -7.678420 0.000000 
0.265625 -6.837433 0.000000 
0.273438 -8.099394 0.000000 
0.273438 -7.257956 0.000000 
0.281250 -8.520309 0.000000 
0.296875 -8.521212 0.000000 
0.304688 -9.778160 0.000000 
0.304688 -8.941869 0.000000 
0.312500 -10.193796 0.000000 
0.281250 -7.678906 0.000000 
0.289062 -8.940762 0.000000 
0.289062 -8.100091 0.000000 
0.296875 -9.360247 0.000000 
0.359375 -11.818417 0.000000 
0.367188 -12.959311 0.000000 
0.367188 -12.208755 0.000000 
0.375000 -13.319528 0.000000 
0.343750 -11.017015 0.000000 
0.351562 -12.206107 0.000000 
0.351562 -11.420770 0.000000 
0.359375 -12.587688 0.000000 
0.312500 -9.361557 0.000000 
0.320312 -10.606347 0.000000 
0.320312 -9.779671 0.000000 
0.328125 -11.014909 0.000000 
0.328125 -10.195507 0.000000 
0.335938 -11.418474 0.000000 
0.335938 -10.608258 0.000000 
0.343750 -11.815939 0.000000 
0.500000 -16.231218 0.000000 
0.507812 -16.300373 0.000000 
0.507812 -16.321512 0.000000 
0.515625 -16.188940 0.000000 
0.515625 -16.307176 0.000000 
0.523438 -16.085038 0.000000 
0.523438 -16.262386 0.000000 
0.531250 -15.952480 0.000000 
0.546875 -15.950449 0.000000 
0.554688 -15.393140 0.000000 
0.554688 -15.789891 0.000000 
0.562500 -15.156946 0.000000 
0.531250 -16.187563 0.000000 
0.539062 -15.792221 0.000000 
0.539062 -16.083324 0.000000 
0.546875 -15.605357 0.000000 
0.609375 -13.999648 0.000000 
0.617188 -12.962250 0.000000 
0.617188 -13.666829 0.000000 
0.625000 -12.590492 0.000000 
0.593750 -14.615428 0.000000 
0.601562 -13.669963 0.000000 
0.601562 -14.316388 0.000000 
0.609375 -13.322580 0.000000 
0.562500 -15.602767 0.000000 
0.570312 -14.898249 0.000000 
0.570312 -15.390334 0.000000 
0.578125 -14.618597 0.000000 
0.578125 -15.153972 0.000000 
0.585938 -14.319585 0.000000 
0.585938 -14.895154 0.000000 
0.593750 -14.002833 0.000000 
0.734375 -7.678420 0.000000 
0.742188 -6.417419 0.000000 
0.742188 -7.257692 0.000000 
0.750000 -5.997874 0.000000 
0.718750 -8.520309 0.000000 
0.726562 -7.257956 0.000000 
0.726562 -8.099394 0.000000 
0.734375 -6.837433 0.000000 
0.687500 -10.193796 0.000000 
0.695312 -8.941869 0.000000 
0.695312 -9.778160 0.000000 
0.703125 -8.521212 0.000000 
0.703125 -9.360247 0.000000 
0.710938 -8.100091 0.000000 
0.710938 -8.940762 0.000000 
0.718750 -7.678906 0.000000 
0.625000 -13.319528 0.000000 
0.632812 -12.208755 0.000000 
0.632812 -12.959311 0.000000 
0.640625 -11.818417 0.000000 
0.640625 -12.587688 0.000000 
0.648438 -11.420770 0.000000 
0.648438 -12.206107 0.000000 
0.656250 -11.017015 0.000000 
0.671875 -11.014909 0.000000 
0.679688 -9.779671 0.000000 
0.679688 -10.606347 0.000000 
0.687500 -9.361557 0.000000 
0.656250 -11.815939 0.000000 
0.664062 -10.608258 0.000000 
0.664062 -11.418474 0.000000 
0.671875 -10.195507 0.000000 
0.984375 0.000000 0.000000 
0.992188 0.000000 0.000000 
0.992188 0.000000 0.000000 
1.000000 0.000000 0.000000 
0.968750 0.000000 0.000000 
0.976562 0.000000 0.000000 
0.976562 0.000000 0.000000 
0.984375 0.000000 0.000000 
0.937500 0.000000 0.000000 
0.945312 0.000000 0.000000 
0.945312 0.000000 0.000000 
0.953125 0.000000 0.000000 
0.953125 0.000000 0.000000 
0.960938 0.000000 0.000000 
0.960938 0.000000 0.000000 
0.968750 0.000000 0.000000 
0.875000 0.000000 0.000000 
0.882812 0.000000 0.000000 
0.882812 0.000000 0.000000 
0.890625 0.000000 0.000000 
0.890625 0.000000 0.000000 
0.898438 0.000000 0.000000 
0.898438 0.000000 0.000000 
0.906250 0.000000 0.000000 
0.921875 0.000000 0.000000 
0.929688 0.000000 0.000000 
0.929688 0.000000 0.000000 
0.937500 0.000000 0.000000 
0.906250 0.000000 0.000000 
0.914062 0.000000 0.000000 
0.914062 0.000000 0.000000 
0.921875 0.000000 0.000000 
0.750000 -6.837406 0.000000 
0.757812 -5.578628 0.000000 
0.757812 -6.417653 0.000000 
0.765625 -5.159355 0.000000 
0.765625 -5.998408 0.000000 
0.773438 -4.739549 0.000000 
0.773438 -5.579516 0.000000 
0.781250 -4.318475 0.000000 
0.796875 -4.321114 0.000000 
0.804688 -3.035237 0.000000 
0.804688 -3.898786 0.000000 
0.812500 -2.594015 0.000000 
0.781250 -5.160681 0.000000 
0.789062 -3.895104 0.000000 
0.789062 -4.741437 0.000000 
0.796875 -3.468014 0.000000 
0.859375 0.000000 0.000000 
0.867188 0.000000 0.000000 
0.867188 0.000000 0.000000 
0.875000 0.000000 0.000000 
0.843750 -1.899008 0.000000 
0.851562 0.458270 0.000000 
0.851562 -0.654979 0.000000 
0.859375 0.327490 0.000000 
0.812500 -3.473222 0.000000 
0.820312 -2.140373 0.000000 
0.820312 -3.042955 0.000000 
0.828125 -1.668058 0.000000 
0.828125 -2.607426 0.000000 
0.835938 -1.164218 0.000000 
0.835938 -2.177326 0.000000 
0.843750 -0.581210 0.000000 

CELLS 128 384
2  0 1 
2  2 3 
2  4 5 
2  6 7 
2  8 9 
2  10 11 
2  12 13 
2  14 15 
2  16 17 
2  18 19 
2  20 21 
2  22 23 
2  24 25 
2  26 27 
2  28 29 
2  30 31 
2  32 33 
2  34 35 
2  36 37 
2  38 39 
2  40 41 
2  42 43 
2  44 45 
2  46 47 
2  48 49 
2  50 51 
2  52 53 
2  54 55 
2  56 57 
2  58 59 
2  60 61 
2  62 63 
2  64 65 
2  66 67 
2  68 69 
2  70 71 
2  72 73 
2  74 75 
2  76 77 
2  78 79 
2  80 81 
2  82 83 
2  84 85 
2  86 87 
2  88 89 
2  90 91 
2  92 93 
2  94 95 
2  96 97 
2  98 99 
2  100 101 
2  102 103 
2  104 105 
2  106 107 
2  108 109 
2  110 111 
2  112 113 
2  114 115 
2  116 117 
2  118 119 
2  120 121 
2  122 123 
2  124 125 
2  126 127 
2  128 129 
2  130 131 
2  132 133 
2  134 135 
2  136 137 
2  138 139 
2  140 141 
2  142 143 
2  144 145 
2  146 147 
2  148 149 
2  150 151 
2  152 153 
2  154 155 
2  156 157 
2  158 159 
2  160 161 
2  162 163 
2  164 165 
2  166 167 
2  168 169 
2  170 171 
2  172 173 
2  174 175 
2  176 177 
2  178 179 
2  180 181 
2  182 183 
2  184 185 
2  186 187 
2  188 189 
2  190 191 
2  192 193 
2  194 195 
2  196 197 
2  198 199 
2  200 201 
2  202 203 
2  204 205 
2  206 207 
2  208 209 
2  210 211 
2  212 213 
2  214 215 
2  216 217 
2  218 219 
2  220 221 
2  222 223 
2  224 225 
2  226 227 
2  228 229 
2  230 231 
2  232 233 
2  234 235 
2  236 237 
2  238 239 
2  240 241 
2  242 243 
2  244 245 
2  246 247 
2  248 249 
2  250 251 
2  252 253 
2  254 255 

CELL_TYPES 128
3
3
3
3
3
3
3
3
3
3
3
3
3
3
3
3
3
3
3
3
3
3
3
3
3
3
3
3
3
3
3
3
3
3
3
3
3
3
3
3
3
3
3
3
3
3
3
3
3
3
3
3
3
3
3
3
3
3
3
3
3
3
3
3
3
3
3
3
3
3
3
3
3
3
3
3
3
3
3
3
3
3
3
3
3
3
3
3
3
3
3
3
3
3
3
3
3
3
3
3
3
3
3
3
3
3
3
3
3
3
3
3
3
3
3
3
3
3
3
3
3
3
3
3
3
3
3
3

POINT_DATA 256

SCALARS lambda_h float 1
LOOKUP_TABLE default
0.000000 
0.000000 
0.000000 
0.000000 
0.000000 
0.000000 
0.000000 
0.000000 
0.000000 
0.000000 
0.000000 
0.000000 
0.000000 
0.000000 
0.000000 
0.000000 
0.000000 
0.000000 
0.000000 
0.000000 
0.000000 
0.000000 
0.000000 
0.000000 
0.000000 
0.000000 
0.000000 
0.000000 
0.000000 
0.000000 
0.000000 
0.000000 
-5.159355 
-6.417653 
-5.578628 
-6.837406 
-4.318475 
-5.579516 
-4.739549 
-5.998408 
-2.594015 
-3.898786 
-3.035237 
-4.321114 
-3.468014 
-4.741437 
-3.895104 
-5.160681 
0.000000 
0.000000 
0.000000 
0.000000 
0.327490 
-0.654979 
0.458270 
-1.899008 
-1.668058 
-3.042955 
-2.140373 
-3.473222 
-0.581210 
-2.177326 
-1.164218 
-2.607426 
-16.188940 
-16.321512 
-16.300373 
-16.231218 
-15.952480 
-16.262386 
-16.085038 
-16.307176 
-15.156946 
-15.789891 
-15.393140 
-15.950449 
-15.605357 
-16.083324 
-15.792221 
-16.187563 
-12.590492 
-13.666829 
-12.962250 
-13.999648 
-13.322580 
-14.316388 
-13.669963 
-14.615428 
-14.618597 
-15.390334 
-14.898249 
-15.602767 
-14.002833 
-14.895154 
-14.319585 
-15.153972 
-5.997874 
-7.257692 
-6.417419 
-7.678420 
-6.837433 
-8.099394 
-7.257956 
-8.520309 
-8.521212 
-9.778160 
-8.941869 
-10.193796 
-7.678906 
-8.940762 
-8.100091 
-9.360247 
-11.818417 
-12.959311 
-12.208755 
-13.319528 
-11.017015 
-12.206107 
-11.420770 
-12.587688 
-9.361557 
-10.606347 
-9.779671 
-11.014909 
-10.195507 
-11.418474 
-10.608258 
-11.815939 
-16.231218 
-16.300373 
-16.321512 
-16.188940 
-16.307176 
-16.085038 
-16.262386 
-15.952480 
-15.950449 
-15.393140 
-15.789891 
-15.156946 
-16.187563 
-15.792221 
-16.083324 
-15.605357 
-13.999648 
-12.962250 
-13.666829 
-12.590492 
-14.615428 
-13.669963 
-14.316388 
-13.322580 
-15.602767 
-14.898249 
-15.390334 
-14.618597 
-15.153972 
-14.319585 
-14.895154 
-14.002833 
-7.678420 
-6.417419 
-7.257692 
-5.997874 
-8.520309 
-7.257956 
-8.099394 
-6.837433 
-10.193796 
-8.941869 
-9.778160 
-8.521212 
-9.360247 
-8.100091 
-8.940762 
-7.678906 
-13.319528 
-12.208755 
-12.959311 
-11.818417 
-12.587688 
-11.420770 
-12.206107 
-11.017015 
-11.014909 
-9.779671 
-10.606347 
-9.361557 
-11.815939 
-10.608258 
-11.418474 
-10.195507 
0.000000 
0.000000 
0.000000 
0.000000 
0.000000 
0.000000 
0.000000 
0.000000 
0.000000 
0.000000 
0.000000 
0.000000 
0.000000 
0.000000 
0.000000 
0.000000 
0.000000 
0.000000 
0.000000 
0.000000 
0.000000 
0.000000 
0.000000 
0.000000 
0.000000 
0.000000 
0.000000 
0.000000 
0.000000 
0.000000 
0.000000 
0.000000 
-6.837406 
-5.578628 
-6.417653 
-5.159355 
-5.998408 
-4.739549 
-5.579516 
-4.318475 
-4.321114 
-3.035237 
-3.898786 
-2.594015 
-5.160681 
-3.895104 
-4.741437 
-3.468014 
0.000000 
0.000000 
0.000000 
0.000000 
-1.899008 
0.458270 
-0.654979 
0.327490 
-3.473222 
-2.140373 
-3.042955 
-1.668058 
-2.607426 
-1.164218 
-2.177326 
-0.581210 

