# vtk DataFile Version 2.0
Unstructured Grid Example
ASCII
DATASET UNSTRUCTURED_GRID

POINTS 128 float
0.000000 0.000000 0.000000 
0.015625 0.000000 0.000000 
0.015625 0.000000 0.000000 
0.031250 0.000000 0.000000 
0.031250 0.000000 0.000000 
0.046875 0.000000 0.000000 
0.046875 0.000000 0.000000 
0.062500 0.000000 0.000000 
0.093750 0.000000 0.000000 
0.109375 0.000000 0.000000 
0.109375 0.000000 0.000000 
0.125000 0.000000 0.000000 
0.062500 0.000000 0.000000 
0.078125 0.000000 0.000000 
0.078125 0.000000 0.000000 
0.093750 0.000000 0.000000 
0.218750 -3.912373 0.000000 
0.234375 -6.429648 0.000000 
0.234375 -4.751491 0.000000 
0.250000 -7.268686 0.000000 
0.187500 -2.195133 0.000000 
0.203125 -4.764828 0.000000 
0.203125 -3.065061 0.000000 
0.218750 -5.594667 0.000000 
0.125000 0.000000 0.000000 
0.140625 0.000000 0.000000 
0.140625 0.995906 0.000000 
0.156250 -1.991812 0.000000 
0.156250 0.160080 0.000000 
0.171875 -3.307877 0.000000 
0.171875 -1.252086 0.000000 
0.187500 -3.951504 0.000000 
0.468750 -15.862790 0.000000 
0.484375 -16.377942 0.000000 
0.484375 -16.219150 0.000000 
0.500000 -16.180374 0.000000 
0.437500 -14.964675 0.000000 
0.453125 -16.140455 0.000000 
0.453125 -15.462549 0.000000 
0.468750 -16.320486 0.000000 
0.375000 -12.252435 0.000000 
0.390625 -14.356422 0.000000 
0.390625 -13.012449 0.000000 
0.406250 -14.940381 0.000000 
0.406250 -13.726393 0.000000 
0.421875 -15.440426 0.000000 
0.421875 -14.381561 0.000000 
0.437500 -15.844122 0.000000 
0.250000 -5.589075 0.000000 
0.265625 -8.110714 0.000000 
0.265625 -6.428554 0.000000 
0.281250 -8.953395 0.000000 
0.281250 -7.271209 0.000000 
0.296875 -9.792926 0.000000 
0.296875 -8.116547 0.000000 
0.312500 -10.623966 0.000000 
0.343750 -10.639339 0.000000 
0.359375 -12.989143 0.000000 
0.359375 -11.457985 0.000000 
0.375000 -13.701653 0.000000 
0.312500 -8.962439 0.000000 
0.328125 -11.439601 0.000000 
0.328125 -9.805154 0.000000 
0.343750 -12.231333 0.000000 
0.500000 -16.180374 0.000000 
0.515625 -16.219150 0.000000 
0.515625 -16.377942 0.000000 
0.531250 -15.862790 0.000000 
0.531250 -16.320486 0.000000 
0.546875 -15.462549 0.000000 
0.546875 -16.140455 0.000000 
0.562500 -14.964675 0.000000 
0.593750 -14.940381 0.000000 
0.609375 -13.012449 0.000000 
0.609375 -14.356422 0.000000 
0.625000 -12.252435 0.000000 
0.562500 -15.844122 0.000000 
0.578125 -14.381561 0.000000 
0.578125 -15.440426 0.000000 
0.593750 -13.726393 0.000000 
0.718750 -8.953395 0.000000 
0.734375 -6.428554 0.000000 
0.734375 -8.110714 0.000000 
0.750000 -5.589075 0.000000 
0.687500 -10.623966 0.000000 
0.703125 -8.116547 0.000000 
0.703125 -9.792926 0.000000 
0.718750 -7.271209 0.000000 
0.625000 -13.701653 0.000000 
0.640625 -11.457985 0.000000 
0.640625 -12.989143 0.000000 
0.656250 -10.639339 0.000000 
0.656250 -12.231333 0.000000 
0.671875 -9.805154 0.000000 
0.671875 -11.439601 0.000000 
0.687500 -8.962439 0.000000 
0.968750 0.000000 0.000000 
0.984375 0.000000 0.000000 
0.984375 0.000000 0.000000 
1.000000 0.000000 0.000000 
0.937500 0.000000 0.000000 
0.953125 0.000000 0.000000 
0.953125 0.000000 0.000000 
0.968750 0.000000 0.000000 
0.875000 0.000000 0.000000 
0.890625 0.000000 0.000000 
0.890625 0.000000 0.000000 
0.906250 0.000000 0.000000 
0.906250 0.000000 0.000000 
0.921875 0.000000 0.000000 
0.921875 0.000000 0.000000 
0.937500 0.000000 0.000000 
0.750000 -7.268686 0.000000 
0.765625 -4.751491 0.000000 
0.765625 -6.429648 0.000000 
0.781250 -3.912373 0.000000 
0.781250 -5.594667 0.000000 
0.796875 -3.065061 0.000000 
0.796875 -4.764828 0.000000 
0.812500 -2.195133 0.000000 
0.843750 -1.991812 0.000000 
0.859375 0.995906 0.000000 
0.859375 0.000000 0.000000 
0.875000 0.000000 0.000000 
0.812500 -3.951504 0.000000 
0.828125 -1.252086 0.000000 
0.828125 -3.307877 0.000000 
0.843750 0.160080 0.000000 

CELLS 64 192
2  0 1 
2  2 3 
2  4 5 
2  6 7 
2  8 9 
2  10 11 
2  12 13 
2  14 15 
2  16 17 
2  18 19 
2  20 21 
2  22 23 
2  24 25 
2  26 27 
2  28 29 
2  30 31 
2  32 33 
2  34 35 
2  36 37 
2  38 39 
2  40 41 
2  42 43 
2  44 45 
2  46 47 
2  48 49 
2  50 51 
2  52 53 
2  54 55 
2  56 57 
2  58 59 
2  60 61 
2  62 63 
2  64 65 
2  66 67 
2  68 69 
2  70 71 
2  72 73 
2  74 75 
2  76 77 
2  78 79 
2  80 81 
2  82 83 
2  84 85 
2  86 87 
2  88 89 
2  90 91 
2  92 93 
2  94 95 
2  96 97 
2  98 99 
2  100 101 
2  102 103 
2  104 105 
2  106 107 
2  108 109 
2  110 111 
2  112 113 
2  114 115 
2  116 117 
2  118 119 
2  120 121 
2  122 123 
2  124 125 
2  126 127 

CELL_TYPES 64
3
3
3
3
3
3
3
3
3
3
3
3
3
3
3
3
3
3
3
3
3
3
3
3
3
3
3
3
3
3
3
3
3
3
3
3
3
3
3
3
3
3
3
3
3
3
3
3
3
3
3
3
3
3
3
3
3
3
3
3
3
3
3
3

POINT_DATA 128

SCALARS lambda_h float 1
LOOKUP_TABLE default
0.000000 
0.000000 
0.000000 
0.000000 
0.000000 
0.000000 
0.000000 
0.000000 
0.000000 
0.000000 
0.000000 
0.000000 
0.000000 
0.000000 
0.000000 
0.000000 
-3.912373 
-6.429648 
-4.751491 
-7.268686 
-2.195133 
-4.764828 
-3.065061 
-5.594667 
0.000000 
0.000000 
0.995906 
-1.991812 
0.160080 
-3.307877 
-1.252086 
-3.951504 
-15.862790 
-16.377942 
-16.219150 
-16.180374 
-14.964675 
-16.140455 
-15.462549 
-16.320486 
-12.252435 
-14.356422 
-13.012449 
-14.940381 
-13.726393 
-15.440426 
-14.381561 
-15.844122 
-5.589075 
-8.110714 
-6.428554 
-8.953395 
-7.271209 
-9.792926 
-8.116547 
-10.623966 
-10.639339 
-12.989143 
-11.457985 
-13.701653 
-8.962439 
-11.439601 
-9.805154 
-12.231333 
-16.180374 
-16.219150 
-16.377942 
-15.862790 
-16.320486 
-15.462549 
-16.140455 
-14.964675 
-14.940381 
-13.012449 
-14.356422 
-12.252435 
-15.844122 
-14.381561 
-15.440426 
-13.726393 
-8.953395 
-6.428554 
-8.110714 
-5.589075 
-10.623966 
-8.116547 
-9.792926 
-7.271209 
-13.701653 
-11.457985 
-12.989143 
-10.639339 
-12.231333 
-9.805154 
-11.439601 
-8.962439 
0.000000 
0.000000 
0.000000 
0.000000 
0.000000 
0.000000 
0.000000 
0.000000 
0.000000 
0.000000 
0.000000 
0.000000 
0.000000 
0.000000 
0.000000 
0.000000 
-7.268686 
-4.751491 
-6.429648 
-3.912373 
-5.594667 
-3.065061 
-4.764828 
-2.195133 
-1.991812 
0.995906 
0.000000 
0.000000 
-3.951504 
-1.252086 
-3.307877 
0.160080 

