# vtk DataFile Version 2.0
Unstructured Grid Example
ASCII
DATASET UNSTRUCTURED_GRID

POINTS 32 float
0.000000 0.000000 0.000000 
0.062500 0.000000 0.000000 
0.062500 0.000000 0.000000 
0.125000 0.000000 0.000000 
0.125000 2.724648 0.000000 
0.187500 -5.449296 0.000000 
0.187500 1.311711 0.000000 
0.250000 -10.797364 0.000000 
0.375000 -10.967570 0.000000 
0.437500 -17.258271 0.000000 
0.437500 -14.631840 0.000000 
0.500000 -16.220432 0.000000 
0.250000 -3.443322 0.000000 
0.312500 -13.396374 0.000000 
0.312500 -7.092909 0.000000 
0.375000 -16.050251 0.000000 
0.500000 -16.220432 0.000000 
0.562500 -14.631840 0.000000 
0.562500 -17.258271 0.000000 
0.625000 -10.967570 0.000000 
0.625000 -16.050251 0.000000 
0.687500 -7.092909 0.000000 
0.687500 -13.396374 0.000000 
0.750000 -3.443322 0.000000 
0.875000 0.000000 0.000000 
0.937500 0.000000 0.000000 
0.937500 0.000000 0.000000 
1.000000 0.000000 0.000000 
0.750000 -10.797364 0.000000 
0.812500 1.311711 0.000000 
0.812500 -5.449296 0.000000 
0.875000 2.724648 0.000000 

CELLS 16 48
2  0 1 
2  2 3 
2  4 5 
2  6 7 
2  8 9 
2  10 11 
2  12 13 
2  14 15 
2  16 17 
2  18 19 
2  20 21 
2  22 23 
2  24 25 
2  26 27 
2  28 29 
2  30 31 

CELL_TYPES 16
3
3
3
3
3
3
3
3
3
3
3
3
3
3
3
3

POINT_DATA 32

SCALARS lambda_h float 1
LOOKUP_TABLE default
0.000000 
0.000000 
0.000000 
0.000000 
2.724648 
-5.449296 
1.311711 
-10.797364 
-10.967570 
-17.258271 
-14.631840 
-16.220432 
-3.443322 
-13.396374 
-7.092909 
-16.050251 
-16.220432 
-14.631840 
-17.258271 
-10.967570 
-16.050251 
-7.092909 
-13.396374 
-3.443322 
0.000000 
0.000000 
0.000000 
0.000000 
-10.797364 
1.311711 
-5.449296 
2.724648 

