# vtk DataFile Version 2.0
Unstructured Grid Example
ASCII
DATASET UNSTRUCTURED_GRID

POINTS 81 float
-0.008735 -0.260229 0.000000 
1.008735 -0.260229 0.000000 
1.000000 1.000000 0.000000 
0.000000 1.000000 0.000000 
0.500000 -0.096785 0.000000 
0.980143 0.299761 0.000000 
0.500000 1.000000 0.000000 
0.019857 0.299761 0.000000 
0.500000 0.296315 0.000000 
0.233287 -0.168620 0.000000 
0.500000 0.070467 0.000000 
0.224635 0.036248 0.000000 
0.766713 -0.168620 0.000000 
0.775365 0.036248 0.000000 
1.022279 0.007355 0.000000 
0.747452 0.291443 0.000000 
0.939006 0.612394 0.000000 
0.722845 0.613173 0.000000 
0.750000 1.000000 0.000000 
0.500000 0.618425 0.000000 
0.250000 1.000000 0.000000 
0.277155 0.613173 0.000000 
0.060994 0.612394 0.000000 
0.252548 0.291443 0.000000 
-0.022279 0.007355 0.000000 
0.115586 -0.232212 0.000000 
0.221715 -0.072310 0.000000 
0.097117 -0.113659 0.000000 
0.500000 -0.019365 0.000000 
0.356615 -0.034584 0.000000 
0.361109 -0.116322 0.000000 
0.365427 0.170359 0.000000 
0.358986 0.060496 0.000000 
0.500000 0.175038 0.000000 
0.638891 -0.116322 0.000000 
0.643385 -0.034584 0.000000 
0.902883 -0.113659 0.000000 
0.778285 -0.072310 0.000000 
0.884414 -0.232212 0.000000 
0.641014 0.060496 0.000000 
0.634573 0.170359 0.000000 
1.025272 -0.130770 0.000000 
0.901572 0.011819 0.000000 
0.865598 0.287466 0.000000 
0.887212 0.144852 0.000000 
1.004806 0.150843 0.000000 
0.763844 0.156744 0.000000 
0.625244 0.297930 0.000000 
0.957416 0.450873 0.000000 
0.845018 0.440846 0.000000 
0.836177 0.801533 0.000000 
0.830636 0.610159 0.000000 
0.936493 0.789213 0.000000 
0.731632 0.442267 0.000000 
0.616093 0.445822 0.000000 
0.875000 1.000000 0.000000 
0.726750 0.802700 0.000000 
0.500000 0.805876 0.000000 
0.614069 0.803430 0.000000 
0.625000 1.000000 0.000000 
0.612075 0.615750 0.000000 
0.500000 0.447402 0.000000 
0.375000 1.000000 0.000000 
0.385931 0.803430 0.000000 
0.163823 0.801533 0.000000 
0.273250 0.802700 0.000000 
0.125000 1.000000 0.000000 
0.387925 0.615750 0.000000 
0.383907 0.445822 0.000000 
0.063507 0.789213 0.000000 
0.169364 0.610159 0.000000 
0.134402 0.287466 0.000000 
0.154982 0.440846 0.000000 
0.042584 0.450873 0.000000 
0.268368 0.442267 0.000000 
0.374756 0.297930 0.000000 
-0.004806 0.150843 0.000000 
0.112788 0.144852 0.000000 
0.098428 0.011819 0.000000 
-0.025272 -0.130770 0.000000 
0.236156 0.156744 0.000000 

CELLS 128 512
3  0 25 27 
3  9 26 25 
3  11 27 26 
3  25 26 27 
3  4 28 30 
3  10 29 28 
3  9 30 29 
3  28 29 30 
3  8 31 33 
3  11 32 31 
3  10 33 32 
3  31 32 33 
3  9 29 26 
3  10 32 29 
3  11 26 32 
3  29 32 26 
3  4 34 28 
3  12 35 34 
3  10 28 35 
3  34 35 28 
3  1 36 38 
3  13 37 36 
3  12 38 37 
3  36 37 38 
3  8 33 40 
3  10 39 33 
3  13 40 39 
3  33 39 40 
3  12 37 35 
3  13 39 37 
3  10 35 39 
3  37 39 35 
3  1 41 36 
3  14 42 41 
3  13 36 42 
3  41 42 36 
3  5 43 45 
3  15 44 43 
3  14 45 44 
3  43 44 45 
3  8 40 47 
3  13 46 40 
3  15 47 46 
3  40 46 47 
3  14 44 42 
3  15 46 44 
3  13 42 46 
3  44 46 42 
3  5 48 43 
3  16 49 48 
3  15 43 49 
3  48 49 43 
3  2 50 52 
3  17 51 50 
3  16 52 51 
3  50 51 52 
3  8 47 54 
3  15 53 47 
3  17 54 53 
3  47 53 54 
3  16 51 49 
3  17 53 51 
3  15 49 53 
3  51 53 49 
3  2 55 50 
3  18 56 55 
3  17 50 56 
3  55 56 50 
3  6 57 59 
3  19 58 57 
3  18 59 58 
3  57 58 59 
3  8 54 61 
3  17 60 54 
3  19 61 60 
3  54 60 61 
3  18 58 56 
3  19 60 58 
3  17 56 60 
3  58 60 56 
3  6 62 57 
3  20 63 62 
3  19 57 63 
3  62 63 57 
3  3 64 66 
3  21 65 64 
3  20 66 65 
3  64 65 66 
3  8 61 68 
3  19 67 61 
3  21 68 67 
3  61 67 68 
3  20 65 63 
3  21 67 65 
3  19 63 67 
3  65 67 63 
3  3 69 64 
3  22 70 69 
3  21 64 70 
3  69 70 64 
3  7 71 73 
3  23 72 71 
3  22 73 72 
3  71 72 73 
3  8 68 75 
3  21 74 68 
3  23 75 74 
3  68 74 75 
3  22 72 70 
3  23 74 72 
3  21 70 74 
3  72 74 70 
3  7 76 71 
3  24 77 76 
3  23 71 77 
3  76 77 71 
3  0 27 79 
3  11 78 27 
3  24 79 78 
3  27 78 79 
3  8 75 31 
3  23 80 75 
3  11 31 80 
3  75 80 31 
3  24 78 77 
3  11 80 78 
3  23 77 80 
3  78 80 77 

CELL_TYPES 128
5
5
5
5
5
5
5
5
5
5
5
5
5
5
5
5
5
5
5
5
5
5
5
5
5
5
5
5
5
5
5
5
5
5
5
5
5
5
5
5
5
5
5
5
5
5
5
5
5
5
5
5
5
5
5
5
5
5
5
5
5
5
5
5
5
5
5
5
5
5
5
5
5
5
5
5
5
5
5
5
5
5
5
5
5
5
5
5
5
5
5
5
5
5
5
5
5
5
5
5
5
5
5
5
5
5
5
5
5
5
5
5
5
5
5
5
5
5
5
5
5
5
5
5
5
5
5
5

POINT_DATA 81

SCALARS u_h float 2
LOOKUP_TABLE default
-0.008735 -0.260229 
0.008735 -0.260229 
0.000000 0.000000 
0.000000 0.000000 
0.000000 -0.096785 
-0.019857 -0.200239 
0.000000 0.000000 
0.019857 -0.200239 
0.000000 -0.203685 
-0.016713 -0.168620 
0.000000 -0.179533 
-0.025365 -0.213752 
0.016713 -0.168620 
0.025365 -0.213752 
0.022279 -0.242645 
-0.002548 -0.208557 
-0.060994 -0.137606 
-0.027155 -0.136827 
0.000000 0.000000 
-0.000000 -0.131575 
0.000000 0.000000 
0.027155 -0.136827 
0.060994 -0.137606 
0.002548 -0.208557 
-0.022279 -0.242645 
-0.009414 -0.232212 
-0.028285 -0.197310 
-0.027883 -0.238659 
0.000000 -0.144365 
-0.018385 -0.159584 
-0.013891 -0.116322 
-0.009573 -0.204641 
-0.016014 -0.189504 
0.000000 -0.199962 
0.013891 -0.116322 
0.018385 -0.159584 
0.027883 -0.238659 
0.028285 -0.197310 
0.009414 -0.232212 
0.016014 -0.189504 
0.009573 -0.204641 
0.025272 -0.255770 
0.026572 -0.238181 
-0.009402 -0.212534 
0.012212 -0.230148 
0.004806 -0.224157 
0.013844 -0.218256 
0.000244 -0.202070 
-0.042584 -0.174127 
-0.029982 -0.184154 
-0.038823 -0.073467 
-0.044364 -0.139841 
-0.063507 -0.085787 
-0.018368 -0.182733 
-0.008907 -0.179178 
0.000000 0.000000 
-0.023250 -0.072300 
-0.000000 -0.069124 
-0.010931 -0.071570 
0.000000 0.000000 
-0.012925 -0.134250 
-0.000000 -0.177598 
0.000000 0.000000 
0.010931 -0.071570 
0.038823 -0.073467 
0.023250 -0.072300 
0.000000 0.000000 
0.012925 -0.134250 
0.008907 -0.179178 
0.063507 -0.085787 
0.044364 -0.139841 
0.009402 -0.212534 
0.029982 -0.184154 
0.042584 -0.174127 
0.018368 -0.182733 
-0.000244 -0.202070 
-0.004806 -0.224157 
-0.012212 -0.230148 
-0.026572 -0.238181 
-0.025272 -0.255770 
-0.013844 -0.218256 

CELL_DATA 128

SCALARS epsilon float 4
LOOKUP_TABLE default
0.040501 0.007902 0.000000 0.043809
0.009911 0.021958 0.000000 0.283336
-0.011818 -0.074407 0.000000 0.201829
0.058194 0.052799 0.000000 0.099903
0.105014 -0.399932 0.000000 0.124911
0.136443 -0.303947 0.000000 0.083319
0.045929 -0.185577 0.000000 0.306047
0.143299 -0.371978 0.000000 0.080019
0.073667 -0.029585 0.000000 0.019195
0.062949 -0.117169 0.000000 0.133396
0.120011 -0.172705 0.000000 0.047062
0.073126 -0.129505 0.000000 0.044655
0.114671 -0.161353 0.000000 0.153672
0.118514 -0.262418 0.000000 0.059341
0.067493 -0.122933 0.000000 0.121812
0.069386 -0.202911 0.000000 0.205369
0.105014 -0.399932 0.000000 -0.124911
0.045929 -0.185577 0.000000 -0.306047
0.136443 -0.303947 0.000000 -0.083319
0.143299 -0.371978 0.000000 -0.080019
0.040501 0.007902 0.000000 -0.043809
-0.011818 -0.074407 0.000000 -0.201829
0.009911 0.021958 0.000000 -0.283336
0.058194 0.052799 0.000000 -0.099903
0.073667 -0.029585 0.000000 -0.019195
0.120011 -0.172705 0.000000 -0.047062
0.062949 -0.117169 0.000000 -0.133396
0.073126 -0.129505 0.000000 -0.044655
0.114671 -0.161353 0.000000 -0.153672
0.067493 -0.122933 0.000000 -0.121812
0.118514 -0.262418 0.000000 -0.059341
0.069386 -0.202911 0.000000 -0.205369
0.004802 0.061498 0.000000 0.001295
-0.035479 0.099301 0.000000 -0.028424
0.007641 0.020458 0.000000 -0.102531
-0.022515 0.012082 0.000000 -0.073504
-0.053837 0.194551 0.000000 -0.063283
-0.048436 0.126537 0.000000 -0.104063
-0.046557 0.144201 0.000000 -0.052145
-0.040550 0.139686 0.000000 -0.069402
0.005552 0.021378 0.000000 -0.030898
0.027830 -0.040688 0.000000 -0.100923
-0.021219 0.069371 0.000000 -0.090835
0.028396 0.018035 0.000000 -0.089404
-0.032628 0.058827 0.000000 -0.076045
-0.017151 0.066941 0.000000 -0.110305
-0.004413 -0.034388 0.000000 -0.146854
-0.017487 0.055966 0.000000 -0.102723
-0.058156 0.207045 0.000000 -0.055318
-0.087962 0.263586 0.000000 -0.046694
-0.050670 0.198155 0.000000 -0.097143
-0.083199 0.216200 0.000000 -0.055714
-0.115744 0.522267 0.000000 0.230472
-0.145554 0.407851 0.000000 0.014923
-0.141263 0.336377 0.000000 -0.004426
-0.211800 0.413287 0.000000 -0.006062
0.004653 0.167604 0.000000 -0.030193
-0.022350 0.181435 0.000000 -0.084419
-0.078553 0.303465 0.000000 -0.045632
-0.078176 0.165245 0.000000 -0.050607
-0.135191 0.297718 0.000000 -0.055318
-0.146524 0.303554 0.000000 -0.046429
-0.091779 0.184658 0.000000 -0.072402
-0.093840 0.295024 0.000000 -0.063253
0.019133 0.438686 0.000000 0.134014
0.006943 0.433590 0.000000 0.080512
-0.131699 0.398637 0.000000 0.012757
-0.105286 0.440505 0.000000 0.150033
0.000000 0.419480 0.000000 0.000000
-0.091236 0.388758 0.000000 -0.006464
0.001546 0.430376 0.000000 0.037927
-0.088203 0.431502 0.000000 0.035370
-0.073783 0.187633 0.000000 -0.005201
-0.120400 0.298984 0.000000 -0.024326
-0.108673 0.305461 0.000000 -0.007716
-0.073778 0.299100 0.000000 -0.020719
-0.094066 0.434259 0.000000 0.087449
-0.108353 0.390093 0.000000 0.000871
-0.119474 0.398959 0.000000 0.008893
-0.103214 0.389812 0.000000 0.005938
0.000000 0.419480 0.000000 0.000000
0.001546 0.430376 0.000000 -0.037927
-0.091236 0.388758 0.000000 0.006464
-0.088203 0.431502 0.000000 -0.035370
0.019133 0.438686 0.000000 -0.134014
-0.131699 0.398637 0.000000 -0.012757
0.006943 0.433590 0.000000 -0.080512
-0.105286 0.440505 0.000000 -0.150033
-0.073783 0.187633 0.000000 0.005201
-0.108673 0.305461 0.000000 0.007716
-0.120400 0.298984 0.000000 0.024326
-0.073778 0.299100 0.000000 0.020719
-0.094066 0.434259 0.000000 -0.087449
-0.119474 0.398959 0.000000 -0.008893
-0.108353 0.390093 0.000000 -0.000871
-0.103214 0.389812 0.000000 -0.005938
-0.115744 0.522267 0.000000 -0.230472
-0.141263 0.336377 0.000000 0.004426
-0.145554 0.407851 0.000000 -0.014923
-0.211800 0.413287 0.000000 0.006062
-0.058156 0.207045 0.000000 0.055318
-0.050670 0.198155 0.000000 0.097143
-0.087962 0.263586 0.000000 0.046694
-0.083199 0.216200 0.000000 0.055714
0.004653 0.167604 0.000000 0.030193
-0.078553 0.303465 0.000000 0.045632
-0.022350 0.181435 0.000000 0.084419
-0.078176 0.165245 0.000000 0.050607
-0.135191 0.297718 0.000000 0.055318
-0.091779 0.184658 0.000000 0.072402
-0.146524 0.303554 0.000000 0.046429
-0.093840 0.295024 0.000000 0.063253
-0.053837 0.194551 0.000000 0.063283
-0.046557 0.144201 0.000000 0.052145
-0.048436 0.126537 0.000000 0.104063
-0.040550 0.139686 0.000000 0.069402
0.004802 0.061498 0.000000 -0.001295
0.007641 0.020458 0.000000 0.102531
-0.035479 0.099301 0.000000 0.028424
-0.022515 0.012082 0.000000 0.073504
0.005552 0.021378 0.000000 0.030898
-0.021219 0.069371 0.000000 0.090835
0.027830 -0.040688 0.000000 0.100923
0.028396 0.018035 0.000000 0.089404
-0.032628 0.058827 0.000000 0.076045
-0.004413 -0.034388 0.000000 0.146854
-0.017151 0.066941 0.000000 0.110305
-0.017487 0.055966 0.000000 0.102723

SCALARS sigma float 4
LOOKUP_TABLE default
1.153202 0.415022 0.452048 0.759527
-0.368969 -4.621286 -1.282538 4.081807
-2.010572 -5.041069 -1.659363 3.490075
1.980793 1.260252 0.971779 1.745255
-2.162686 -28.754793 -4.101203 1.862289
-0.359534 -12.829453 -2.643307 1.211134
-1.953816 -17.613886 -3.440247 3.921885
-0.870445 -20.084094 -3.480937 0.313377
1.491886 -0.109208 0.389868 0.293885
-0.148275 -4.046058 -1.045603 2.275039
0.882228 -4.817942 -0.985765 0.693108
0.337206 -3.431895 -0.793082 0.860060
0.811021 -6.110331 -1.309163 1.687353
-0.197847 -9.567145 -2.131474 1.065727
0.028494 -4.087051 -1.017106 1.972200
-1.364498 -10.414349 -2.460363 3.384098
-2.162686 -28.754793 -4.101203 -1.862289
-1.953816 -17.613886 -3.440247 -3.921885
-0.359534 -12.829453 -2.643307 -1.211134
-0.870445 -20.084094 -3.480937 -0.313377
1.153202 0.415022 0.452048 -0.759527
-2.010572 -5.041069 -1.659363 -3.490075
-0.368969 -4.621286 -1.282538 -4.081807
1.980793 1.260252 0.971779 -1.745255
1.491886 -0.109208 0.389868 -0.293885
0.882228 -4.817942 -0.985765 -0.693108
-0.148275 -4.046058 -1.045603 -2.275039
0.337206 -3.431895 -0.793082 -0.860060
0.811021 -6.110331 -1.309163 -1.687353
0.028494 -4.087051 -1.017106 -1.972200
-0.197847 -9.567145 -2.131474 -1.065727
-1.364498 -10.414349 -2.460363 -3.384098
0.735666 1.572641 0.668878 -0.180955
-0.041357 1.978879 0.551599 -0.437648
0.180769 0.086938 0.073864 -1.668001
-0.614866 -0.191583 -0.217821 -1.235725
0.082699 3.696667 1.117566 -0.411099
-0.641744 2.211148 0.441854 -1.441709
-0.076678 2.800006 0.787790 -0.524568
-0.046535 2.747563 0.781742 -0.739486
0.306289 0.596444 0.252583 -0.461910
-0.060147 -1.274692 -0.354940 -1.733965
-0.244650 1.272831 0.287067 -1.370672
0.665073 0.459326 0.314686 -1.397811
-0.585008 0.976114 0.107950 -1.184632
-0.272182 1.106767 0.231596 -1.714206
-1.170229 -2.033806 -0.816296 -2.628575
-0.320603 0.878770 0.154171 -1.626373
0.116802 3.886179 1.186870 -0.301825
-0.299677 4.527743 1.248932 -0.219815
0.066385 3.642900 1.085303 -1.145615
-0.625410 3.752160 0.908178 -0.400031
-1.301677 7.323025 1.793891 1.413632
-1.142809 6.027287 1.431227 0.050568
-1.555076 5.039021 1.000390 0.011797
-4.217576 5.196776 0.263452 -0.377417
1.763923 3.869811 1.719929 -0.255657
0.902108 3.684099 1.367217 -1.016034
0.447374 5.283342 1.730702 -0.495440
-0.841148 2.820823 0.561104 -0.699471
-1.798569 4.473485 0.759087 -0.553501
-2.150185 4.420934 0.637623 -0.593164
-1.270993 2.994224 0.485002 -0.938153
-0.265692 4.925352 1.378116 -0.642160
4.386858 8.452445 4.386858 0.544394
4.335897 8.377026 4.335897 0.333236
-0.637951 6.082561 1.616131 0.077033
-0.176903 6.712593 1.974414 1.120487
4.194800 8.166370 4.194800 0.000000
0.850232 6.480084 2.265020 -0.117240
4.303765 8.329292 4.303765 0.158833
1.296121 7.125777 2.646786 0.161641
-0.377953 3.357497 0.861079 -0.092382
-1.067073 4.708900 1.054047 -0.313743
-0.541947 4.971907 1.302786 -0.143035
0.635589 5.304945 1.803285 -0.221806
0.843444 6.991024 2.432006 0.584349
0.220234 6.272560 1.972037 -0.067830
-0.139787 6.252271 1.839962 0.000631
0.412016 6.336955 2.060590 0.025494
4.194800 8.166370 4.194800 0.000000
4.303765 8.329292 4.303765 -0.158833
0.850232 6.480084 2.265020 0.117240
1.296121 7.125777 2.646786 -0.161641
4.386858 8.452445 4.386858 -0.544394
-0.637951 6.082561 1.616131 -0.077033
4.335897 8.377026 4.335897 -0.333236
-0.176903 6.712593 1.974414 -1.120487
-0.377953 3.357497 0.861079 0.092382
-0.541947 4.971907 1.302786 0.143035
-1.067073 4.708900 1.054047 0.313743
0.635589 5.304945 1.803285 0.221806
0.843444 6.991024 2.432006 -0.584349
-0.139787 6.252271 1.839962 -0.000631
0.220234 6.272560 1.972037 0.067830
0.412016 6.336955 2.060590 -0.025494
-1.301677 7.323025 1.793891 -1.413632
-1.555076 5.039021 1.000390 -0.011797
-1.142809 6.027287 1.431227 -0.050568
-4.217576 5.196776 0.263452 0.377417
0.116802 3.886179 1.186870 0.301825
0.066385 3.642900 1.085303 1.145615
-0.299677 4.527743 1.248932 0.219815
-0.625410 3.752160 0.908178 0.400031
1.763923 3.869811 1.719929 0.255657
0.447374 5.283342 1.730702 0.495440
0.902108 3.684099 1.367217 1.016034
-0.841148 2.820823 0.561104 0.699471
-1.798569 4.473485 0.759087 0.553501
-1.270993 2.994224 0.485002 0.938153
-2.150185 4.420934 0.637623 0.593164
-0.265692 4.925352 1.378116 0.642160
0.082699 3.696667 1.117566 0.411099
-0.076678 2.800006 0.787790 0.524568
-0.641744 2.211148 0.441854 1.441709
-0.046535 2.747563 0.781742 0.739486
0.735666 1.572641 0.668878 0.180955
0.180769 0.086938 0.073864 1.668001
-0.041357 1.978879 0.551599 0.437648
-0.614866 -0.191583 -0.217821 1.235725
0.306289 0.596444 0.252583 0.461910
-0.244650 1.272831 0.287067 1.370672
-0.060147 -1.274692 -0.354940 1.733965
0.665073 0.459326 0.314686 1.397811
-0.585008 0.976114 0.107950 1.184632
-1.170229 -2.033806 -0.816296 2.628575
-0.272182 1.106767 0.231596 1.714206
-0.320603 0.878770 0.154171 1.626373

