# vtk DataFile Version 2.0
Unstructured Grid Example
ASCII
DATASET UNSTRUCTURED_GRID

POINTS 25 float
-0.030495 -0.231418 0.000000 
1.030495 -0.231418 0.000000 
1.000000 1.000000 0.000000 
0.000000 1.000000 0.000000 
0.500000 -0.086992 0.000000 
0.976691 0.310493 0.000000 
0.500000 1.000000 0.000000 
0.023309 0.310493 0.000000 
0.500000 0.302982 0.000000 
0.220629 -0.166289 0.000000 
0.500000 0.080369 0.000000 
0.227618 0.043896 0.000000 
0.779371 -0.166289 0.000000 
0.772382 0.043896 0.000000 
1.020376 0.024500 0.000000 
0.742793 0.301718 0.000000 
0.944615 0.615299 0.000000 
0.726059 0.622054 0.000000 
0.750000 1.000000 0.000000 
0.500000 0.628890 0.000000 
0.250000 1.000000 0.000000 
0.273941 0.622054 0.000000 
0.055385 0.615299 0.000000 
0.257207 0.301718 0.000000 
-0.020376 0.024500 0.000000 

CELLS 32 128
3  0 9 11 
3  4 10 9 
3  8 11 10 
3  9 10 11 
3  4 12 10 
3  1 13 12 
3  8 10 13 
3  12 13 10 
3  1 14 13 
3  5 15 14 
3  8 13 15 
3  14 15 13 
3  5 16 15 
3  2 17 16 
3  8 15 17 
3  16 17 15 
3  2 18 17 
3  6 19 18 
3  8 17 19 
3  18 19 17 
3  6 20 19 
3  3 21 20 
3  8 19 21 
3  20 21 19 
3  3 22 21 
3  7 23 22 
3  8 21 23 
3  22 23 21 
3  7 24 23 
3  0 11 24 
3  8 23 11 
3  24 11 23 

CELL_TYPES 32
5
5
5
5
5
5
5
5
5
5
5
5
5
5
5
5
5
5
5
5
5
5
5
5
5
5
5
5
5
5
5
5

POINT_DATA 25

SCALARS u_h float 2
LOOKUP_TABLE default
-0.030495 -0.231418 
0.030495 -0.231418 
0.000000 0.000000 
0.000000 0.000000 
-0.000000 -0.086992 
-0.023309 -0.189507 
0.000000 0.000000 
0.023309 -0.189507 
-0.000000 -0.197018 
-0.029371 -0.166289 
-0.000000 -0.169631 
-0.022382 -0.206104 
0.029371 -0.166289 
0.022382 -0.206104 
0.020376 -0.225500 
-0.007207 -0.198282 
-0.055385 -0.134701 
-0.023941 -0.127946 
0.000000 0.000000 
-0.000000 -0.121110 
0.000000 0.000000 
0.023941 -0.127946 
0.055385 -0.134701 
0.007207 -0.198282 
-0.020376 -0.225500 

CELL_DATA 32

SCALARS epsilon float 4
LOOKUP_TABLE default
-0.003618 -0.131406 0.000000 0.168290
0.110661 -0.281982 0.000000 0.234286
0.085549 -0.104151 0.000000 0.081366
0.081585 -0.162985 0.000000 0.098577
0.110661 -0.281982 0.000000 -0.234286
-0.003618 -0.131406 0.000000 -0.168290
0.085549 -0.104151 0.000000 -0.081366
0.081585 -0.162985 0.000000 -0.098577
-0.010357 0.023235 0.000000 -0.058286
-0.047607 0.139922 0.000000 -0.076505
-0.022849 0.030213 0.000000 -0.063330
-0.010260 0.024715 0.000000 -0.097235
-0.056273 0.200254 0.000000 -0.051939
-0.115732 0.415535 0.000000 0.102307
-0.028067 0.243423 0.000000 -0.034775
-0.133314 0.242427 0.000000 -0.046777
0.002006 0.395832 0.000000 0.042394
0.000000 0.379597 0.000000 0.000000
-0.100298 0.260304 0.000000 -0.010370
-0.095961 0.397725 0.000000 0.037893
0.000000 0.379597 0.000000 0.000000
0.002006 0.395832 0.000000 -0.042394
-0.100298 0.260304 0.000000 0.010370
-0.095961 0.397725 0.000000 -0.037893
-0.115732 0.415535 0.000000 -0.102307
-0.056273 0.200254 0.000000 0.051939
-0.028067 0.243423 0.000000 0.034775
-0.133314 0.242427 0.000000 0.046777
-0.047607 0.139922 0.000000 0.076505
-0.010357 0.023235 0.000000 0.058286
-0.022849 0.030213 0.000000 0.063330
-0.010260 0.024715 0.000000 0.097235

SCALARS sigma float 4
LOOKUP_TABLE default
-2.118030 -6.235343 -1.907169 2.980636
-1.466130 -18.833047 -3.435103 3.476761
0.837550 -2.725434 -0.496632 1.233084
0.002013 -5.229334 -1.274295 1.648295
-1.466130 -18.833047 -3.435103 -3.476761
-2.118030 -6.235343 -1.907169 -2.980636
0.837550 -2.725434 -0.496632 -1.233084
0.002013 -5.229334 -1.274295 -1.648295
-0.153479 0.356911 0.056022 -0.952299
-0.305756 2.649619 0.672865 -0.879776
-0.530746 0.456413 -0.020376 -1.015415
-0.410769 0.228701 -0.049607 -1.595427
0.167255 3.768886 1.160478 -0.459224
-0.317780 6.397713 1.826879 0.730273
1.554118 4.907167 1.992733 -0.315737
-2.136984 3.579691 0.400992 -0.647212
3.958318 7.807040 3.958318 0.200734
3.795967 7.555610 3.795967 0.000000
-0.636542 4.331478 1.075754 -0.190213
0.690351 6.532311 2.225604 0.183779
3.795967 7.555610 3.795967 0.000000
3.958318 7.807040 3.958318 -0.200734
-0.636542 4.331478 1.075754 0.190213
0.690351 6.532311 2.225604 -0.183779
-0.317780 6.397713 1.826879 -0.730273
0.167255 3.768886 1.160478 0.459224
1.554118 4.907167 1.992733 0.315737
-2.136984 3.579691 0.400992 0.647212
-0.305756 2.649619 0.672865 0.879776
-0.153479 0.356911 0.056022 0.952299
-0.530746 0.456413 -0.020376 1.015415
-0.410769 0.228701 -0.049607 1.595427

