# vtk DataFile Version 2.0
Unstructured Grid Example
ASCII
DATASET UNSTRUCTURED_GRID

POINTS 4225 float
0.004940 -0.276839 0.000000 
0.995060 -0.276839 0.000000 
1.000000 1.000000 0.000000 
0.000000 1.000000 0.000000 
0.500000 -0.099943 0.000000 
0.983013 0.296203 0.000000 
0.500000 1.000000 0.000000 
0.016987 0.296203 0.000000 
0.500000 0.294675 0.000000 
0.232149 -0.171711 0.000000 
0.500000 0.064343 0.000000 
0.222010 0.032133 0.000000 
0.767851 -0.171711 0.000000 
0.777990 0.032133 0.000000 
1.026954 0.001046 0.000000 
0.749137 0.284670 0.000000 
0.934770 0.612346 0.000000 
0.720653 0.607244 0.000000 
0.750000 1.000000 0.000000 
0.500000 0.610925 0.000000 
0.250000 1.000000 0.000000 
0.279347 0.607244 0.000000 
0.065230 0.612346 0.000000 
0.250863 0.284670 0.000000 
-0.026954 0.001046 0.000000 
0.125755 -0.236563 0.000000 
0.219583 -0.075012 0.000000 
0.094948 -0.117810 0.000000 
0.500000 -0.025141 0.000000 
0.355497 -0.039020 0.000000 
0.356343 -0.120589 0.000000 
0.365327 0.164495 0.000000 
0.358485 0.055201 0.000000 
0.500000 0.170091 0.000000 
0.643657 -0.120589 0.000000 
0.644503 -0.039020 0.000000 
0.905052 -0.117810 0.000000 
0.780417 -0.075012 0.000000 
0.874245 -0.236563 0.000000 
0.641515 0.055201 0.000000 
0.634673 0.164495 0.000000 
1.023892 -0.144902 0.000000 
0.906493 0.007781 0.000000 
0.868575 0.281916 0.000000 
0.891340 0.140327 0.000000 
1.009351 0.147949 0.000000 
0.765964 0.151171 0.000000 
0.625704 0.291656 0.000000 
0.955946 0.449685 0.000000 
0.845104 0.435755 0.000000 
0.828896 0.796433 0.000000 
0.827736 0.605854 0.000000 
0.930404 0.787188 0.000000 
0.732186 0.435748 0.000000 
0.616893 0.439541 0.000000 
0.875000 1.000000 0.000000 
0.723134 0.798911 0.000000 
0.500000 0.800249 0.000000 
0.612708 0.799842 0.000000 
0.625000 1.000000 0.000000 
0.611234 0.609768 0.000000 
0.500000 0.441421 0.000000 
0.375000 1.000000 0.000000 
0.387292 0.799842 0.000000 
0.171104 0.796433 0.000000 
0.276866 0.798911 0.000000 
0.125000 1.000000 0.000000 
0.388766 0.609768 0.000000 
0.383107 0.439541 0.000000 
0.069596 0.787188 0.000000 
0.172264 0.605854 0.000000 
0.131425 0.281916 0.000000 
0.154896 0.435755 0.000000 
0.044054 0.449685 0.000000 
0.267814 0.435748 0.000000 
0.374296 0.291656 0.000000 
-0.009351 0.147949 0.000000 
0.108660 0.140327 0.000000 
0.093507 0.007781 0.000000 
-0.023892 -0.144902 0.000000 
0.234036 0.151171 0.000000 
0.065568 -0.259690 0.000000 
0.105321 -0.178381 0.000000 
0.047389 -0.198476 0.000000 
0.223619 -0.124574 0.000000 
0.163089 -0.151759 0.000000 
0.178375 -0.203415 0.000000 
0.154233 -0.040069 0.000000 
0.155949 -0.097018 0.000000 
0.219286 -0.022810 0.000000 
0.500000 -0.064358 0.000000 
0.426813 -0.068719 0.000000 
0.426588 -0.105335 0.000000 
0.427765 0.014786 0.000000 
0.427104 -0.028714 0.000000 
0.500000 0.017707 0.000000 
0.291320 -0.143507 0.000000 
0.355595 -0.081229 0.000000 
0.287703 -0.100443 0.000000 
0.434646 0.228793 0.000000 
0.432437 0.168637 0.000000 
0.500000 0.229881 0.000000 
0.289367 0.044805 0.000000 
0.361515 0.107800 0.000000 
0.293593 0.099687 0.000000 
0.500000 0.115029 0.000000 
0.430483 0.113157 0.000000 
0.428898 0.061984 0.000000 
0.286149 -0.054977 0.000000 
0.356440 0.006361 0.000000 
0.286775 -0.006656 0.000000 
0.573412 -0.105335 0.000000 
0.573187 -0.068719 0.000000 
0.712297 -0.100443 0.000000 
0.644405 -0.081229 0.000000 
0.708680 -0.143507 0.000000 
0.572896 -0.028714 0.000000 
0.572235 0.014786 0.000000 
0.952611 -0.198476 0.000000 
0.894679 -0.178381 0.000000 
0.934432 -0.259690 0.000000 
0.780714 -0.022810 0.000000 
0.844051 -0.097018 0.000000 
0.845767 -0.040069 0.000000 
0.821625 -0.203415 0.000000 
0.836911 -0.151759 0.000000 
0.776381 -0.124574 0.000000 
0.567563 0.168637 0.000000 
0.565354 0.228793 0.000000 
0.571102 0.061984 0.000000 
0.569517 0.113157 0.000000 
0.706407 0.099687 0.000000 
0.638485 0.107800 0.000000 
0.710633 0.044805 0.000000 
0.713851 -0.054977 0.000000 
0.713225 -0.006656 0.000000 
0.643560 0.006361 0.000000 
1.011590 -0.213782 0.000000 
0.964736 -0.133969 0.000000 
0.967716 0.000899 0.000000 
0.969434 -0.067282 0.000000 
1.028862 -0.072468 0.000000 
0.908490 -0.055796 0.000000 
0.843295 0.019029 0.000000 
0.926447 0.285967 0.000000 
0.939415 0.212423 0.000000 
0.996715 0.221642 0.000000 
0.819877 0.211626 0.000000 
0.880444 0.209811 0.000000 
0.809436 0.282064 0.000000 
1.019883 0.074547 0.000000 
0.951321 0.140634 0.000000 
0.961173 0.070208 0.000000 
0.630323 0.225654 0.000000 
0.563004 0.294009 0.000000 
0.772872 0.090027 0.000000 
0.700925 0.158312 0.000000 
0.687827 0.288258 0.000000 
0.694592 0.221041 0.000000 
0.757860 0.215922 0.000000 
0.900373 0.073084 0.000000 
0.829506 0.144561 0.000000 
0.837582 0.080476 0.000000 
0.969198 0.371977 0.000000 
0.913308 0.361720 0.000000 
0.889605 0.521856 0.000000 
0.900744 0.440174 0.000000 
0.944119 0.529690 0.000000 
0.856543 0.357070 0.000000 
0.798886 0.356288 0.000000 
0.896265 0.895378 0.000000 
0.879578 0.792899 0.000000 
0.942780 0.881490 0.000000 
0.774421 0.606152 0.000000 
0.824707 0.698396 0.000000 
0.772472 0.699682 0.000000 
0.929387 0.698003 0.000000 
0.876652 0.697333 0.000000 
0.881007 0.607335 0.000000 
0.621103 0.362852 0.000000 
0.560666 0.364628 0.000000 
0.740368 0.357811 0.000000 
0.681065 0.360337 0.000000 
0.669647 0.520359 0.000000 
0.674817 0.437625 0.000000 
0.725309 0.518827 0.000000 
0.835118 0.518496 0.000000 
0.780427 0.517907 0.000000 
0.788942 0.434751 0.000000 
0.937500 1.000000 0.000000 
0.844647 0.898785 0.000000 
0.733167 0.899552 0.000000 
0.789729 0.899456 0.000000 
0.812500 1.000000 0.000000 
0.776753 0.798074 0.000000 
0.719431 0.700868 0.000000 
0.500000 0.899617 0.000000 
0.558815 0.899563 0.000000 
0.562500 1.000000 0.000000 
0.555539 0.703312 0.000000 
0.556497 0.800108 0.000000 
0.500000 0.703548 0.000000 
0.687500 1.000000 0.000000 
0.617421 0.899546 0.000000 
0.675618 0.899547 0.000000 
0.558553 0.440917 0.000000 
0.500000 0.365247 0.000000 
0.666253 0.608569 0.000000 
0.613450 0.521878 0.000000 
0.500000 0.523369 0.000000 
0.556836 0.522962 0.000000 
0.555743 0.610602 0.000000 
0.668349 0.799450 0.000000 
0.610795 0.702747 0.000000 
0.665498 0.701908 0.000000 
0.437500 1.000000 0.000000 
0.441185 0.899563 0.000000 
0.324382 0.899547 0.000000 
0.382579 0.899546 0.000000 
0.312500 1.000000 0.000000 
0.443503 0.800108 0.000000 
0.444461 0.703312 0.000000 
0.103735 0.895378 0.000000 
0.155353 0.898785 0.000000 
0.062500 1.000000 0.000000 
0.280569 0.700868 0.000000 
0.223247 0.798074 0.000000 
0.227528 0.699682 0.000000 
0.187500 1.000000 0.000000 
0.210271 0.899456 0.000000 
0.266833 0.899552 0.000000 
0.441447 0.440917 0.000000 
0.439334 0.364628 0.000000 
0.444257 0.610602 0.000000 
0.443164 0.522962 0.000000 
0.330353 0.520359 0.000000 
0.386550 0.521878 0.000000 
0.333747 0.608569 0.000000 
0.331651 0.799450 0.000000 
0.334502 0.701908 0.000000 
0.389205 0.702747 0.000000 
0.057220 0.881490 0.000000 
0.120422 0.792899 0.000000 
0.118993 0.607335 0.000000 
0.123348 0.697333 0.000000 
0.070613 0.698003 0.000000 
0.175293 0.698396 0.000000 
0.225579 0.606152 0.000000 
0.073553 0.285967 0.000000 
0.086692 0.361720 0.000000 
0.030802 0.371977 0.000000 
0.201114 0.356288 0.000000 
0.143457 0.357070 0.000000 
0.190564 0.282064 0.000000 
0.055881 0.529690 0.000000 
0.099256 0.440174 0.000000 
0.110395 0.521856 0.000000 
0.378897 0.362852 0.000000 
0.436996 0.294009 0.000000 
0.274691 0.518827 0.000000 
0.325183 0.437625 0.000000 
0.312173 0.288258 0.000000 
0.318935 0.360337 0.000000 
0.259632 0.357811 0.000000 
0.164882 0.518496 0.000000 
0.211058 0.434751 0.000000 
0.219573 0.517907 0.000000 
0.003285 0.221642 0.000000 
0.060585 0.212423 0.000000 
0.038827 0.070208 0.000000 
0.048679 0.140634 0.000000 
-0.019883 0.074547 0.000000 
0.119556 0.209811 0.000000 
0.180123 0.211626 0.000000 
0.035264 -0.133969 0.000000 
-0.011590 -0.213782 0.000000 
0.156705 0.019029 0.000000 
0.091510 -0.055796 0.000000 
-0.028862 -0.072468 0.000000 
0.030566 -0.067282 0.000000 
0.032284 0.000899 0.000000 
0.369677 0.225654 0.000000 
0.242140 0.215922 0.000000 
0.305408 0.221041 0.000000 
0.299075 0.158312 0.000000 
0.227128 0.090027 0.000000 
0.099627 0.073084 0.000000 
0.162418 0.080476 0.000000 
0.170494 0.144561 0.000000 
0.035052 -0.268484 0.000000 
0.056011 -0.229596 0.000000 
0.026270 -0.237974 0.000000 
0.113896 -0.208002 0.000000 
0.085348 -0.219872 0.000000 
0.096107 -0.249340 0.000000 
0.069809 -0.158184 0.000000 
0.076548 -0.189333 0.000000 
0.099149 -0.148277 0.000000 
0.227293 -0.148405 0.000000 
0.197910 -0.162886 0.000000 
0.204655 -0.187199 0.000000 
0.189517 -0.112255 0.000000 
0.192942 -0.137919 0.000000 
0.221083 -0.100120 0.000000 
0.152875 -0.220468 0.000000 
0.169409 -0.178065 0.000000 
0.141602 -0.193611 0.000000 
0.187373 -0.003294 0.000000 
0.186450 -0.031454 0.000000 
0.220311 0.004308 0.000000 
0.125177 -0.107812 0.000000 
0.154503 -0.068805 0.000000 
0.123216 -0.078274 0.000000 
0.219015 -0.049245 0.000000 
0.186423 -0.058998 0.000000 
0.187401 -0.085936 0.000000 
0.133979 -0.165575 0.000000 
0.158734 -0.124691 0.000000 
0.128675 -0.136925 0.000000 
0.500000 -0.082612 0.000000 
0.463194 -0.083833 0.000000 
0.463085 -0.101306 0.000000 
0.463358 -0.046194 0.000000 
0.463275 -0.065458 0.000000 
0.500000 -0.045199 0.000000 
0.390905 -0.111850 0.000000 
0.426722 -0.087448 0.000000 
0.390886 -0.093320 0.000000 
0.464085 0.039872 0.000000 
0.463824 0.016969 0.000000 
0.500000 0.040537 0.000000 
0.391068 -0.033079 0.000000 
0.427378 -0.007411 0.000000 
0.391409 -0.011363 0.000000 
0.500000 -0.004178 0.000000 
0.463619 -0.004994 0.000000 
0.463467 -0.026043 0.000000 
0.261010 -0.157080 0.000000 
0.289285 -0.122234 0.000000 
0.257718 -0.134789 0.000000 
0.355931 -0.101242 0.000000 
0.322032 -0.110967 0.000000 
0.323110 -0.131246 0.000000 
0.320654 -0.068598 0.000000 
0.321183 -0.090108 0.000000 
0.355430 -0.060503 0.000000 
0.426925 -0.049144 0.000000 
0.390895 -0.053959 0.000000 
[...]
POINT_DATA 4225

SCALARS u_h float 2
LOOKUP_TABLE default
0.004940 -0.276839 
-0.004940 -0.276839 
0.000000 0.000000 
0.000000 0.000000 
0.000000 -0.099943 
-0.016987 -0.203797 
0.000000 0.000000 
0.016987 -0.203797 
0.000000 -0.205325 
-0.017851 -0.171711 
0.000000 -0.185657 
-0.027990 -0.217867 
0.017851 -0.171711 
0.027990 -0.217867 
0.026954 -0.248954 
-0.000863 -0.215330 
-0.065230 -0.137654 
-0.029347 -0.142756 
0.000000 0.000000 
0.000000 -0.139075 
0.000000 0.000000 
0.029347 -0.142756 
0.065230 -0.137654 
0.000863 -0.215330 
-0.026954 -0.248954 
0.000755 -0.236563 
-0.030417 -0.200012 
-0.030052 -0.242810 
0.000000 -0.150141 
-0.019503 -0.164020 
-0.018657 -0.120589 
-0.009673 -0.210505 
-0.016515 -0.194799 
0.000000 -0.204909 
0.018657 -0.120589 
0.019503 -0.164020 
0.030052 -0.242810 
0.030417 -0.200012 
-0.000755 -0.236563 
0.016515 -0.194799 
0.009673 -0.210505 
0.023892 -0.269902 
0.031493 -0.242219 
-0.006425 -0.218084 
0.016340 -0.234673 
0.009351 -0.227051 
0.015964 -0.223829 
0.000704 -0.208344 
-0.044054 -0.175315 
-0.029896 -0.189245 
-0.046104 -0.078567 
-0.047264 -0.144146 
-0.069596 -0.087812 
-0.017814 -0.189252 
-0.008107 -0.185459 
0.000000 0.000000 
-0.026866 -0.076089 
0.000000 -0.074751 
-0.012292 -0.075158 
0.000000 0.000000 
-0.013766 -0.140232 
0.000000 -0.183579 
0.000000 0.000000 
0.012292 -0.075158 
0.046104 -0.078567 
0.026866 -0.076089 
0.000000 0.000000 
0.013766 -0.140232 
0.008107 -0.185459 
0.069596 -0.087812 
0.047264 -0.144146 
0.006425 -0.218084 
0.029896 -0.189245 
0.044054 -0.175315 
0.017814 -0.189252 
-0.000704 -0.208344 
-0.009351 -0.227051 
-0.016340 -0.234673 
-0.031493 -0.242219 
-0.023892 -0.269902 
-0.015964 -0.223829 
0.003068 -0.259690 
-0.019679 -0.240881 
-0.015111 -0.260976 
-0.026381 -0.187074 
-0.024411 -0.214259 
-0.009125 -0.203415 
-0.033267 -0.227569 
-0.031551 -0.222018 
-0.030714 -0.210310 
0.000000 -0.126858 
-0.010687 -0.131219 
-0.010912 -0.105335 
-0.009735 -0.172714 
-0.010396 -0.153714 
0.000000 -0.169793 
-0.021180 -0.143507 
-0.019405 -0.143729 
-0.024797 -0.162943 
-0.002854 -0.208707 
-0.005063 -0.206363 
0.000000 -0.207619 
-0.023133 -0.205195 
-0.013485 -0.204700 
-0.018907 -0.212813 
0.000000 -0.197471 
-0.007017 -0.199343 
-0.008602 -0.188016 
-0.026351 -0.179977 
-0.018560 -0.181139 
-0.025725 -0.194156 
0.010912 -0.105335 
0.010687 -0.131219 
0.024797 -0.162943 
0.019405 -0.143729 
0.021180 -0.143507 
0.010396 -0.153714 
0.009735 -0.172714 
0.015111 -0.260976 
0.019679 -0.240881 
-0.003068 -0.259690 
0.030714 -0.210310 
0.031551 -0.222018 
0.033267 -0.227569 
0.009125 -0.203415 
0.024411 -0.214259 
0.026381 -0.187074 
0.005063 -0.206363 
0.002854 -0.208707 
0.008602 -0.188016 
0.007017 -0.199343 
0.018907 -0.212813 
0.013485 -0.204700 
0.023133 -0.205195 
0.026351 -0.179977 
0.025725 -0.194156 
0.018560 -0.181139 
0.011590 -0.276282 
0.027236 -0.258969 
0.030216 -0.249101 
0.031934 -0.254782 
0.028862 -0.259968 
0.033490 -0.243296 
0.030795 -0.230971 
-0.011053 -0.214033 
0.001915 -0.225077 
-0.003285 -0.215858 
0.007377 -0.225874 
0.005444 -0.227689 
-0.003064 -0.217936 
0.019883 -0.237953 
0.013821 -0.234366 
0.023673 -0.242292 
0.005323 -0.211846 
0.000504 -0.205991 
0.022872 -0.222473 
0.013425 -0.216688 
0.000327 -0.211742 
0.007092 -0.216459 
0.007860 -0.221578 
0.025373 -0.239416 
0.017006 -0.230439 
0.025082 -0.232024 
-0.030802 -0.190523 
-0.024192 -0.200780 
-0.047895 -0.165644 
-0.036756 -0.184826 
-0.055881 -0.157810 
-0.018457 -0.205430 
-0.013614 -0.206212 
-0.041235 -0.042122 
-0.057922 -0.082101 
-0.057220 -0.056010 
-0.038079 -0.143848 
-0.050293 -0.114104 
-0.040028 -0.112818 
-0.070613 -0.114497 
-0.060848 -0.115167 
-0.056493 -0.142665 
-0.003897 -0.199648 
-0.001834 -0.197872 
-0.009632 -0.204689 
-0.006435 -0.202163 
-0.017853 -0.167141 
-0.012683 -0.187375 
-0.024691 -0.168673 
-0.039882 -0.169004 
-0.032073 -0.169593 
-0.023558 -0.190249 
0.000000 0.000000 
-0.030353 -0.038715 
-0.016833 -0.037948 
-0.022771 -0.038044 
0.000000 0.000000 
-0.035747 -0.076926 
-0.030569 -0.111632 
0.000000 -0.037883 
-0.003685 -0.037937 
0.000000 0.000000 
-0.006961 -0.109188 
-0.006003 -0.074892 
0.000000 -0.108952 
0.000000 0.000000 
-0.007579 -0.037954 
-0.011882 -0.037953 
-0.003947 -0.184083 
0.000000 -0.197253 
-0.021247 -0.141431 
-0.011550 -0.165622 
0.000000 -0.164131 
-0.005664 -0.164538 
-0.006757 -0.139398 
-0.019151 -0.075550 
-0.014205 -0.109753 
-0.022002 -0.110592 
0.000000 0.000000 
0.003685 -0.037937 
0.011882 -0.037953 
0.007579 -0.037954 
0.000000 0.000000 
0.006003 -0.074892 
0.006961 -0.109188 
0.041235 -0.042122 
0.030353 -0.038715 
0.000000 0.000000 
0.030569 -0.111632 
0.035747 -0.076926 
0.040028 -0.112818 
0.000000 0.000000 
0.022771 -0.038044 
0.016833 -0.037948 
0.003947 -0.184083 
0.001834 -0.197872 
0.006757 -0.139398 
0.005664 -0.164538 
0.017853 -0.167141 
0.011550 -0.165622 
0.021247 -0.141431 
0.019151 -0.075550 
0.022002 -0.110592 
0.014205 -0.109753 
0.057220 -0.056010 
0.057922 -0.082101 
0.056493 -0.142665 
0.060848 -0.115167 
0.070613 -0.114497 
0.050293 -0.114104 
0.038079 -0.143848 
0.011053 -0.214033 
0.024192 -0.200780 
0.030802 -0.190523 
0.013614 -0.206212 
0.018457 -0.205430 
0.003064 -0.217936 
0.055881 -0.157810 
0.036756 -0.184826 
0.047895 -0.165644 
0.003897 -0.199648 
-0.000504 -0.205991 
0.024691 -0.168673 
0.012683 -0.187375 
-0.000327 -0.211742 
0.006435 -0.202163 
0.009632 -0.204689 
0.039882 -0.169004 
0.023558 -0.190249 
0.032073 -0.169593 
0.003285 -0.215858 
-0.001915 -0.225077 
-0.023673 -0.242292 
-0.013821 -0.234366 
-0.019883 -0.237953 
-0.005444 -0.227689 
-0.007377 -0.225874 
-0.027236 -0.258969 
-0.011590 -0.276282 
-0.030795 -0.230971 
-0.033490 -0.243296 
-0.028862 -0.259968 
-0.031934 -0.254782 
-0.030216 -0.249101 
-0.005323 -0.211846 
-0.007860 -0.221578 
-0.007092 -0.216459 
-0.013425 -0.216688 
-0.022872 -0.222473 
-0.025373 -0.239416 
-0.025082 -0.232024 
-0.017006 -0.230439 
0.003802 -0.268484 
-0.006489 -0.260846 
-0.004980 -0.269224 
-0.011104 -0.239252 
-0.008402 -0.251122 
0.002357 -0.249340 
-0.023941 -0.251934 
-0.017202 -0.251833 
-0.025851 -0.242027 
-0.022707 -0.179655 
-0.020840 -0.194136 
-0.014095 -0.187199 
-0.029233 -0.206005 
-0.025808 -0.200419 
-0.028917 -0.193870 
-0.003375 -0.220468 
-0.018091 -0.209315 
-0.014648 -0.224861 
-0.031377 -0.222044 
-0.032300 -0.218954 
-0.029689 -0.214442 
-0.031073 -0.232812 
-0.032997 -0.225055 
-0.033034 -0.234524 
-0.030985 -0.205495 
-0.032327 -0.215248 
-0.031349 -0.210936 
-0.022271 -0.228075 
-0.028766 -0.218441 
-0.027575 -0.230675 
0.000000 -0.113862 
-0.005556 -0.115083 
-0.005665 -0.101306 
-0.005392 -0.139944 
-0.005475 -0.127958 
0.000000 -0.138949 
-0.015345 -0.111850 
-0.010778 -0.118698 
-0.015364 -0.124570 
-0.004665 -0.178878 
-0.004926 -0.170531 
0.000000 -0.178213 
-0.015182 -0.158079 
-0.010122 -0.163661 
-0.014841 -0.167613 
0.000000 -0.160428 
-0.005131 -0.161244 
-0.005283 -0.151043 
-0.020240 -0.157080 
-0.023215 -0.153484 
-0.023532 -0.166039 
-0.019069 -0.132492 
-0.021718 -0.142217 
-0.020640 -0.131246 
-0.023096 -0.162348 
-0.022567 -0.152608 
-0.019570 -0.154253 
-0.010575 -0.142894 
-0.015355 -0.147709 
-0.015396 -0.136531 
-0.000877 -0.207307 
-0.001455 -0.207889 
0.000000 -0.207101 
-0.007451 -0.208128 
-0.003983 -0.208143 
-0.005841 -0.209684 
0.000000 -0.206877 
-0.002019 -0.207196 
-0.002561 -0.205277 
-0.025805 -0.211350 
-0.021202 -0.209450 
-0.023669 -0.214865 
-0.015112 -0.200240 
-0.018332 -0.204517 
-0.020019 -0.199617 
-0.014124 -0.211452 
-0.016355 -0.208476 
-0.011662 -0.208137 
0.000000 -0.192089 
-0.003970 -0.192623 
-0.004345 -0.186254 
-0.003072 -0.202178 
-0.003544 -0.197945 
0.000000 -0.201759 
-0.012685 -0.190893 
-0.007862 -0.194197 
-0.011600 -0.196762 
-0.008963 -0.205424 
-0.010353 -0.201620 
-0.006080 -0.203414 
-0.026063 -0.174506 
-0.023252 -0.171381 
-0.025851 -0.171795 
-0.027794 -0.182379 
-0.028748 -0.189599 
-0.009228 -0.180843 
-0.017671 -0.188420 
-0.013593 -0.184054 
-0.014313 -0.176282 
-0.019171 -0.172994 
-0.027440 -0.207035 
-0.028969 -0.196133 
-0.028514 -0.201953 
-0.024656 -0.200085 
-0.021381 -0.193816 
-0.023016 -0.179662 
-0.022388 -0.187152 
-0.026301 -0.187442 
0.005665 -0.101306 
0.005556 -0.115083 
0.015364 -0.124570 
0.010778 -0.118698 
0.015345 -0.111850 
0.005475 -0.127958 
0.005392 -0.139944 
0.023532 -0.166039 
0.023215 -0.153484 
0.020240 -0.157080 
0.019570 -0.154253 
0.022567 -0.152608 
0.023096 -0.162348 
0.020640 -0.131246 
0.021718 -0.142217 
0.019069 -0.132492 
0.004926 -0.170531 
0.004665 -0.178878 
0.005283 -0.151043 
0.005131 -0.161244 
0.014841 -0.167613 
0.010122 -0.163661 
0.015182 -0.158079 
0.015396 -0.136531 
0.015355 -0.147709 
0.010575 -0.142894 
0.004980 -0.269224 
0.006489 -0.260846 
-0.003802 -0.268484 
0.025851 -0.242027 
0.017202 -0.251833 
0.023941 -0.251934 
-0.002357 -0.249340 
0.008402 -0.251122 
0.011104 -0.239252 
0.029689 -0.214442 
0.032300 -0.218954 
0.031377 -0.222044 
0.031349 -0.210936 
0.032327 -0.215248 
0.030985 -0.205495 
0.033034 -0.234524 
0.032997 -0.225055 
0.031073 -0.232812 
0.014095 -0.187199 
0.020840 -0.194136 
0.022707 -0.179655 
0.014648 -0.224861 
0.018091 -0.209315 
0.003375 -0.220468 
0.028917 -0.193870 
0.025808 -0.200419 
0.029233 -0.206005 
0.027575 -0.230675 
0.028766 -0.218441 
0.022271 -0.228075 
0.001455 -0.207889 
0.000877 -0.207307 
0.002561 -0.205277 
0.002019 -0.207196 
0.005841 -0.209684 
0.003983 -0.208143 
0.007451 -0.208128 
0.004345 -0.186254 
0.003970 -0.192623 
0.011600 -0.196762 
0.007862 -0.194197 
0.012685 -0.190893 
0.003544 -0.197945 
0.003072 -0.202178 
0.023669 -0.214865 
0.021202 -0.209450 
0.025805 -0.211350 
0.011662 -0.208137 
0.016355 -0.208476 
0.014124 -0.211452 
0.020019 -0.199617 
0.018332 -0.204517 
0.015112 -0.200240 
0.006080 -0.203414 
0.010353 -0.201620 
0.008963 -0.205424 
0.026063 -0.174506 
0.028748 -0.189599 
0.027794 -0.182379 
0.025851 -0.171795 
0.023252 -0.171381 
0.027440 -0.207035 
0.021381 -0.193816 
0.024656 -0.200085 
0.028514 -0.201953 
0.028969 -0.196133 
0.009228 -0.180843 
0.019171 -0.172994 
0.014313 -0.176282 
0.013593 -0.184054 
0.017671 -0.188420 
0.026301 -0.187442 
0.022388 -0.187152 
0.023016 -0.179662 
0.003497 -0.277292 
0.013337 -0.268856 
0.025679 -0.265018 
0.020386 -0.267402 
0.018572 -0.273729 
0.022108 -0.260299 
0.028709 -0.251587 
0.028851 -0.250093 
0.030473 -0.254304 
0.028669 -0.254496 
0.032651 -0.248218 
0.031780 -0.252097 
0.031093 -0.246365 
0.027319 -0.265194 
0.030616 -0.258282 
0.029072 -0.261910 
0.032493 -0.229548 
0.029658 -0.224500 
0.032535 -0.243239 
0.033642 -0.235804 
0.031401 -0.236982 
0.033050 -0.236632 
0.033087 -0.242962 
0.030476 -0.257099 
0.032896 -0.249712 
0.031641 -0.250839 
-0.013857 -0.209828 
-0.007085 -0.215821 
-0.010056 -0.209976 
-0.002270 -0.222187 
-0.004490 -0.219802 
-0.008576 -0.216701 
0.003224 -0.221524 
-0.000476 -0.221435 
0.005870 -0.226725 
0.003030 -0.220871 
0.002214 -0.222352 
-0.001827 -0.216842 
0.011066 -0.231483 
0.006602 -0.227207 
0.011911 -0.230445 
-0.004592 -0.218421 
0.001070 -0.223216 
-0.000420 -0.223241 
0.023951 -0.243430 
0.022048 -0.241213 
0.025971 -0.245720 
0.011833 -0.231751 
0.017277 -0.236566 
0.014956 -0.232508 
0.020363 -0.238613 
0.019076 -0.238479 
0.015320 -0.235234 
0.003886 -0.227068 
0.009786 -0.231401 
0.008058 -0.229914 
0.001690 -0.208005 
0.000272 -0.205395 
0.007549 -0.211757 
0.004156 -0.210046 
0.000659 -0.206995 
0.002420 -0.209164 
0.003029 -0.210723 
0.025692 -0.220556 
0.021093 -0.217543 
0.014866 -0.220223 
0.018138 -0.219344 
0.019604 -0.223579 
0.016298 -0.215240 
0.011680 -0.213399 
-0.000153 -0.213578 
0.003766 -0.216862 
0.003540 -0.218979 
0.003480 -0.212598 
0.003736 -0.214686 
0.000603 -0.209958 
0.012025 -0.223178 
0.007618 -0.219030 
0.011338 -0.220134 
0.009063 -0.214271 
0.010339 -0.217111 
0.006315 -0.214020 
0.027447 -0.245829 
0.021151 -0.237304 
0.024776 -0.241577 
0.028408 -0.244154 
0.028869 -0.241044 
0.007788 -0.223925 
0.016687 -0.227308 
0.012368 -0.226054 
0.012338 -0.228552 
0.016897 -0.232981 
0.027238 -0.226291 
0.028830 -0.236825 
0.028287 -0.231808 
0.024209 -0.227382 
0.020663 -0.227736 
0.021455 -0.234862 
0.021287 -0.231582 
0.025473 -0.236131 
-0.023914 -0.197384 
-0.020650 -0.203398 
-0.033993 -0.188957 
-0.027391 -0.196463 
-0.037550 -0.183182 
-0.017647 -0.207712 
-0.014920 -0.210558 
-0.056823 -0.152018 
-0.051902 -0.162410 
-0.060944 -0.148085 
-0.033266 -0.187562 
-0.042564 -0.175672 
-0.038815 -0.178157 
-0.050204 -0.166873 
-0.046365 -0.171989 
-0.040354 -0.180819 
-0.008369 -0.212576 
-0.006705 -0.211787 
-0.012467 -0.212168 
-0.010287 -0.212769 
-0.021415 -0.198659 
-0.015925 -0.206202 
-0.024300 -0.197811 
-0.030595 -0.193173 
-0.027362 -0.196052 
-0.021213 -0.203695 
-0.030763 -0.023705 
-0.048814 -0.047101 
-0.042659 -0.035714 
-0.051872 -0.080018 
-0.051952 -0.063028 
-0.045620 -0.060450 
-0.065350 -0.072774 
-0.058762 -0.067148 
-0.063980 -0.084823 
-0.033640 -0.143360 
-0.039681 -0.128989 
-0.034989 -0.128422 
-0.049468 -0.129805 
-0.044524 -0.129472 
-0.042635 -0.144144 
-0.043951 -0.096122 
-0.045079 -0.113455 
-0.049341 -0.097012 
-0.068538 -0.126475 
-0.064078 -0.128517 
-0.060954 -0.140747 
-0.066066 -0.100732 
-0.065911 -0.115226 
-0.071120 -0.101647 
-0.051906 -0.143715 
-0.059345 -0.129536 
-0.054440 -0.129881 
-0.054930 -0.098118 
-0.055590 -0.114715 
-0.060578 -0.099415 
-0.000686 -0.202627 
-0.000337 -0.202107 
-0.001624 -0.204666 
-0.001104 -0.203499 
-0.004458 -0.192367 
-0.002820 -0.198634 
-0.006073 -0.193254 
-0.005281 -0.210585 
-0.004081 -0.209135 
-0.011665 -0.196571 
-0.007942 -0.203481 
-0.013838 -0.197594 
-0.003087 -0.207584 
-0.002276 -0.206058 
-0.023519 -0.155691 
-0.021202 -0.167939 
-0.027365 -0.156385 
-0.010333 -0.186380 
-0.015443 -0.177947 
-0.012636 -0.177064 
-0.021467 -0.179623 
-0.018384 -0.178828 
-0.015174 -0.188365 
-0.005094 -0.200852 
-0.009656 -0.195439 
-0.007798 -0.194303 
-0.052599 -0.154669 
-0.043989 -0.157188 
-0.048306 -0.156313 
-0.043879 -0.167767 
-0.035133 -0.179666 
-0.031354 -0.156974 
-0.024692 -0.180231 
-0.028319 -0.169259 
-0.035473 -0.157377 
-0.039697 -0.157490 
-0.011519 -0.205651 
-0.026656 -0.190079 
-0.018709 -0.198789 
-0.016184 -0.198381 
-0.020609 -0.189924 
-0.035936 -0.169556 
-0.028053 -0.180535 
-0.031539 -0.180399 
0.000000 0.000000 
-0.024002 -0.020132 
-0.016933 -0.018699 
-0.019901 -0.019050 
0.000000 0.000000 
-0.035204 -0.039774 
-0.039974 -0.058968 
-0.009234 -0.018760 
-0.010804 -0.018693 
0.000000 0.000000 
-0.026415 -0.057372 
-0.019649 -0.037969 
-0.022704 -0.057185 
0.000000 0.000000 
-0.012559 -0.018636 
-0.014563 -0.018615 
-0.035186 -0.112209 
-0.030476 -0.127816 
-0.040726 -0.077591 
-0.038826 -0.095409 
-0.029431 -0.094327 
-0.033987 -0.094824 
-0.031141 -0.076451 
-0.026290 -0.038243 
-0.030476 -0.057658 
-0.034963 -0.058134 
0.000000 -0.018965 
-0.000991 -0.018987 
0.000000 0.000000 
-0.002494 -0.056595 
-0.001829 -0.037918 
0.000000 -0.056549 
0.000000 0.000000 
-0.002002 -0.018986 
-0.003044 -0.018974 
-0.003477 -0.124680 
-0.003463 -0.109027 
0.000000 -0.124596 
-0.009094 -0.075009 
-0.006643 -0.092471 
-0.010055 -0.092652 
0.000000 -0.092282 
-0.003303 -0.092347 
-0.002984 -0.074806 
0.000000 0.000000 
-0.006494 -0.018876 
-0.007807 -0.018822 
-0.004130 -0.018951 
-0.005274 -0.018919 
0.000000 0.000000 
-0.013120 -0.056850 
-0.009666 -0.037955 
-0.010302 -0.056770 
-0.005021 -0.056644 
-0.007613 -0.056702 
-0.005594 -0.037948 
-0.000907 -0.197407 
0.000000 -0.201959 
-0.005987 -0.184677 
-0.002927 -0.191696 
0.000000 -0.191136 
-0.001451 -0.191280 
-0.001960 -0.183711 
-0.025215 -0.142097 
-0.019822 -0.154960 
-0.012844 -0.153602 
-0.016268 -0.154248 
-0.017436 -0.140798 
-0.014640 -0.166349 
-0.009951 -0.176248 
0.000000 -0.152280 
-0.003138 -0.152381 
-0.003363 -0.139168 
-0.002421 -0.174695 
-0.002818 -0.164242 
0.000000 -0.174574 
-0.010215 -0.139758 
-0.006305 -0.152645 
-0.009531 -0.153059 
-0.007370 -0.175555 
-0.008566 -0.165007 
-0.004868 -0.175027 
-0.014259 -0.037948 
-0.015633 -0.075338 
-0.016101 -0.056941 
-0.019282 -0.057049 
-0.022883 -0.075797 
-0.006988 -0.124877 
-0.014244 -0.125581 
-0.010566 -0.125181 
-0.010530 -0.109432 
-0.013577 -0.092888 
-0.026152 -0.127203 
-0.025140 -0.093893 
-0.026179 -0.111091 
-0.022015 -0.126611 
-0.018052 -0.126063 
-0.017243 -0.093175 
-0.018020 -0.110143 
-0.021086 -0.093510 
0.000000 0.000000 
0.000991 -0.018987 
0.003044 -0.018974 
0.002002 -0.018986 
0.000000 0.000000 
0.001829 -0.037918 
0.002494 -0.056595 
0.007807 -0.018822 
0.006494 -0.018876 
0.000000 0.000000 
0.010302 -0.056770 
0.009666 -0.037955 
0.013120 -0.056850 
0.000000 0.000000 
0.005274 -0.018919 
0.004130 -0.018951 
0.003463 -0.109027 
0.003477 -0.124680 
0.002984 -0.074806 
0.003303 -0.092347 
0.010055 -0.092652 
0.006643 -0.092471 
0.009094 -0.075009 
0.005594 -0.037948 
0.007613 -0.056702 
0.005021 -0.056644 
0.030763 -0.023705 
0.024002 -0.020132 
0.000000 0.000000 
0.039974 -0.058968 
0.035204 -0.039774 
0.045620 -0.060450 
0.000000 0.000000 
0.019901 -0.019050 
0.016933 -0.018699 
0.030476 -0.127816 
0.035186 -0.112209 
0.034989 -0.128422 
0.031141 -0.076451 
0.033987 -0.094824 
0.029431 -0.094327 
0.043951 -0.096122 
0.038826 -0.095409 
0.040726 -0.077591 
0.000000 0.000000 
0.010804 -0.018693 
0.009234 -0.018760 
0.014563 -0.018615 
0.012559 -0.018636 
0.000000 0.000000 
0.022704 -0.057185 
0.019649 -0.037969 
0.026415 -0.057372 
0.034963 -0.058134 
0.030476 -0.057658 
0.026290 -0.038243 
0.000907 -0.197407 
0.000337 -0.202107 
0.001960 -0.183711 
0.001451 -0.191280 
0.004458 -0.192367 
0.002927 -0.191696 
0.005987 -0.184677 
0.003363 -0.139168 
0.003138 -0.152381 
0.009531 -0.153059 
0.006305 -0.152645 
0.010215 -0.139758 
0.002818 -0.164242 
0.002421 -0.174695 
0.023519 -0.155691 
0.019822 -0.154960 
0.025215 -0.142097 
0.009951 -0.176248 
0.014640 -0.166349 
0.012636 -0.177064 
0.017436 -0.140798 
0.016268 -0.154248 
0.012844 -0.153602 
0.004868 -0.175027 
0.008566 -0.165007 
0.007370 -0.175555 
0.014259 -0.037948 
0.022883 -0.075797 
0.019282 -0.057049 
0.016101 -0.056941 
0.015633 -0.075338 
0.026152 -0.127203 
0.018052 -0.126063 
0.022015 -0.126611 
0.026179 -0.111091 
0.025140 -0.093893 
0.006988 -0.124877 
0.013577 -0.092888 
0.010530 -0.109432 
0.010566 -0.125181 
0.014244 -0.125581 
0.021086 -0.093510 
0.018020 -0.110143 
0.017243 -0.093175 
0.042659 -0.035714 
0.048814 -0.047101 
0.063980 -0.084823 
0.058762 -0.067148 
0.065350 -0.072774 
0.051952 -0.063028 
0.051872 -0.080018 
0.060954 -0.140747 
0.064078 -0.128517 
0.068538 -0.126475 
0.054440 -0.129881 
0.059345 -0.129536 
0.051906 -0.143715 
0.071120 -0.101647 
0.065911 -0.115226 
0.066066 -0.100732 
0.039681 -0.128989 
0.033640 -0.143360 
0.049341 -0.097012 
0.045079 -0.113455 
0.042635 -0.144144 
0.044524 -0.129472 
0.049468 -0.129805 
0.060578 -0.099415 
0.055590 -0.114715 
0.054930 -0.098118 
0.013857 -0.209828 
0.020650 -0.203398 
0.023914 -0.197384 
0.014920 -0.210558 
0.017647 -0.207712 
0.008576 -0.216701 
0.037550 -0.183182 
0.027391 -0.196463 
0.033993 -0.188957 
0.006705 -0.211787 
0.008369 -0.212576 
0.001827 -0.216842 
0.024300 -0.197811 
0.015925 -0.206202 
0.021415 -0.198659 
0.004592 -0.218421 
0.010287 -0.212769 
0.012467 -0.212168 
0.060944 -0.148085 
0.051902 -0.162410 
0.056823 -0.152018 
0.040354 -0.180819 
0.046365 -0.171989 
0.050204 -0.166873 
0.038815 -0.178157 
0.042564 -0.175672 
0.033266 -0.187562 
0.021213 -0.203695 
0.027362 -0.196052 
0.030595 -0.193173 
0.000686 -0.202627 
-0.000272 -0.205395 
0.006073 -0.193254 
0.002820 -0.198634 
-0.000659 -0.206995 
0.001104 -0.203499 
0.001624 -0.204666 
0.027365 -0.156385 
0.021202 -0.167939 
0.015174 -0.188365 
0.018384 -0.178828 
0.021467 -0.179623 
0.015443 -0.177947 
0.010333 -0.186380 
0.000153 -0.213578 
0.004081 -0.209135 
0.005281 -0.210585 
0.002276 -0.206058 
0.003087 -0.207584 
-0.000603 -0.209958 
0.013838 -0.197594 
0.007942 -0.203481 
0.011665 -0.196571 
0.007798 -0.194303 