# vtk DataFile Version 2.0
Unstructured Grid Example
ASCII
DATASET UNSTRUCTURED_GRID

POINTS 9 float
0.025717 -0.266228 0.000000 
0.974283 -0.266228 0.000000 
1.000000 1.000000 0.000000 
0.000000 1.000000 0.000000 
0.500000 -0.062509 0.000000 
0.956588 0.297554 0.000000 
0.500000 1.000000 0.000000 
0.043412 0.297554 0.000000 
0.500000 0.334994 0.000000 

CELLS 8 32
3  0 4 8 
3  4 1 8 
3  1 5 8 
3  5 2 8 
3  2 6 8 
3  6 3 8 
3  3 7 8 
3  7 0 8 

CELL_TYPES 8
5
5
5
5
5
5
5
5

POINT_DATA 9

SCALARS u_h float 2
LOOKUP_TABLE default
0.025717 -0.266228 
-0.025717 -0.266228 
0.000000 0.000000 
0.000000 0.000000 
0.000000 -0.062509 
-0.043412 -0.202446 
0.000000 0.000000 
0.043412 -0.202446 
-0.000000 -0.165006 

CELL_DATA 8

SCALARS epsilon float 4
LOOKUP_TABLE default
-0.052753 -0.078653 0.000000 0.255495
-0.052753 -0.078653 0.000000 -0.255495
-0.092517 0.119646 0.000000 -0.052025
-0.083279 0.336047 0.000000 0.017055
0.000000 0.278910 0.000000 0.000000
0.000000 0.278910 0.000000 0.000000
-0.083279 0.336047 0.000000 -0.017055
-0.092517 0.119646 0.000000 0.052025

SCALARS sigma float 4
LOOKUP_TABLE default
-3.596808 -8.381309 -2.536627 4.430343
-3.596808 -8.381309 -2.536627 -4.430343
-1.720299 1.704786 -0.004232 -0.880688
0.636893 5.779840 1.962146 -0.120247
2.789103 5.899426 2.789103 0.000000
2.789103 5.899426 2.789103 0.000000
0.636893 5.779840 1.962146 0.120247
-1.720299 1.704786 -0.004232 0.880688

