# vtk DataFile Version 2.0
Unstructured Grid Example
ASCII
DATASET UNSTRUCTURED_GRID

POINTS 16641 float
0.005243 -0.277159 0.000000 
0.994757 -0.277159 0.000000 
1.000000 1.000000 0.000000 
0.000000 1.000000 0.000000 
0.500000 -0.099986 0.000000 
0.983074 0.296059 0.000000 
0.500000 1.000000 0.000000 
0.016926 0.296059 0.000000 
0.500000 0.294708 0.000000 
0.232090 -0.171768 0.000000 
0.500000 0.064242 0.000000 
0.221971 0.032050 0.000000 
0.767910 -0.171768 0.000000 
0.778029 0.032050 0.000000 
1.027050 0.000868 0.000000 
0.749162 0.284525 0.000000 
0.934677 0.612295 0.000000 
0.720597 0.607110 0.000000 
0.750000 1.000000 0.000000 
0.500000 0.610774 0.000000 
0.250000 1.000000 0.000000 
0.279403 0.607110 0.000000 
0.065323 0.612295 0.000000 
0.250838 0.284525 0.000000 
-0.027050 0.000868 0.000000 
0.126340 -0.236651 0.000000 
0.219569 -0.075048 0.000000 
0.094927 -0.117906 0.000000 
0.500000 -0.025229 0.000000 
0.355487 -0.039090 0.000000 
0.356242 -0.120654 0.000000 
0.365322 0.164389 0.000000 
0.358480 0.055112 0.000000 
0.500000 0.169998 0.000000 
0.643758 -0.120654 0.000000 
0.644513 -0.039090 0.000000 
0.905073 -0.117906 0.000000 
0.780431 -0.075048 0.000000 
0.873660 -0.236651 0.000000 
0.641520 0.055112 0.000000 
0.634678 0.164389 0.000000 
1.023775 -0.145360 0.000000 
0.906585 0.007659 0.000000 
0.868623 0.281777 0.000000 
0.891414 0.140197 0.000000 
1.009430 0.147854 0.000000 
0.766003 0.151053 0.000000 
0.625708 0.291532 0.000000 
0.955916 0.449620 0.000000 
0.845100 0.435619 0.000000 
0.828714 0.796291 0.000000 
0.827661 0.605719 0.000000 
0.930217 0.787084 0.000000 
0.732189 0.435602 0.000000 
0.616902 0.439411 0.000000 
0.875000 1.000000 0.000000 
0.723035 0.798824 0.000000 
0.500000 0.800133 0.000000 
0.612667 0.799776 0.000000 
0.625000 1.000000 0.000000 
0.611209 0.609647 0.000000 
0.500000 0.441298 0.000000 
0.375000 1.000000 0.000000 
0.387333 0.799776 0.000000 
0.171286 0.796291 0.000000 
0.276965 0.798824 0.000000 
0.125000 1.000000 0.000000 
0.388791 0.609647 0.000000 
0.383098 0.439411 0.000000 
0.069783 0.787084 0.000000 
0.172339 0.605719 0.000000 
0.131377 0.281777 0.000000 
0.154900 0.435619 0.000000 
0.044084 0.449620 0.000000 
0.267811 0.435602 0.000000 
0.374292 0.291532 0.000000 
-0.009430 0.147854 0.000000 
0.108586 0.140197 0.000000 
0.093415 0.007659 0.000000 
-0.023775 -0.145360 0.000000 
0.233997 0.151053 0.000000 
0.065972 -0.260010 0.000000 
0.105398 -0.178474 0.000000 
0.047650 -0.198783 0.000000 
0.223612 -0.124598 0.000000 
0.163114 -0.151752 0.000000 
0.178413 -0.203411 0.000000 
0.154182 -0.040137 0.000000 
0.155929 -0.097054 0.000000 
0.219257 -0.022869 0.000000 
0.500000 -0.064430 0.000000 
0.426790 -0.068788 0.000000 
0.426515 -0.105386 0.000000 
0.427765 0.014697 0.000000 
0.427099 -0.028795 0.000000 
0.500000 0.017610 0.000000 
0.291226 -0.143577 0.000000 
0.355560 -0.081293 0.000000 
0.287673 -0.100493 0.000000 
0.434655 0.228699 0.000000 
0.432440 0.168540 0.000000 
0.500000 0.229812 0.000000 
0.289348 0.044722 0.000000 
0.361509 0.107702 0.000000 
0.293572 0.099588 0.000000 
0.500000 0.114929 0.000000 
0.430483 0.113060 0.000000 
0.428898 0.061890 0.000000 
0.286137 -0.055030 0.000000 
0.356436 0.006282 0.000000 
0.286762 -0.006723 0.000000 
0.573485 -0.105386 0.000000 
0.573210 -0.068788 0.000000 
0.712327 -0.100493 0.000000 
0.644440 -0.081293 0.000000 
0.708774 -0.143577 0.000000 
0.572901 -0.028795 0.000000 
0.572235 0.014697 0.000000 
0.952350 -0.198783 0.000000 
0.894602 -0.178474 0.000000 
0.934028 -0.260010 0.000000 
0.780743 -0.022869 0.000000 
0.844071 -0.097054 0.000000 
0.845818 -0.040137 0.000000 
0.821587 -0.203411 0.000000 
0.836886 -0.151752 0.000000 
0.776388 -0.124598 0.000000 
0.567560 0.168540 0.000000 
0.565345 0.228699 0.000000 
0.571102 0.061890 0.000000 
0.569517 0.113060 0.000000 
0.706428 0.099588 0.000000 
0.638491 0.107702 0.000000 
0.710652 0.044722 0.000000 
0.713863 -0.055030 0.000000 
0.713238 -0.006723 0.000000 
0.643564 0.006282 0.000000 
1.011224 -0.214276 0.000000 
0.964697 -0.134214 0.000000 
0.967821 0.000732 0.000000 
0.969508 -0.067485 0.000000 
1.028909 -0.072768 0.000000 
0.908563 -0.055907 0.000000 
0.843360 0.018936 0.000000 
0.926503 0.285841 0.000000 
0.939478 0.212298 0.000000 
0.996779 0.221541 0.000000 
0.819925 0.211492 0.000000 
0.880503 0.209677 0.000000 
0.809473 0.281919 0.000000 
1.019978 0.074431 0.000000 
0.951402 0.140506 0.000000 
0.961272 0.070067 0.000000 
0.630326 0.225539 0.000000 
0.563003 0.293913 0.000000 
0.772913 0.089924 0.000000 
0.700945 0.158198 0.000000 
0.687841 0.288120 0.000000 
0.694608 0.220914 0.000000 
0.757892 0.215790 0.000000 
0.900461 0.072957 0.000000 
0.829564 0.144436 0.000000 
0.837648 0.080365 0.000000 
0.969203 0.371894 0.000000 
0.913330 0.361599 0.000000 
0.889560 0.521748 0.000000 
0.900732 0.440063 0.000000 
0.944059 0.529635 0.000000 
0.856568 0.356930 0.000000 
0.798909 0.356140 0.000000 
0.895952 0.895175 0.000000 
0.879380 0.792734 0.000000 
0.942487 0.881140 0.000000 
0.774354 0.606014 0.000000 
0.824584 0.698255 0.000000 
0.772363 0.699549 0.000000 
0.929254 0.697944 0.000000 
0.876524 0.697201 0.000000 
0.880926 0.607222 0.000000 
0.621119 0.362724 0.000000 
0.560682 0.364524 0.000000 
0.740387 0.357663 0.000000 
0.681082 0.360196 0.000000 
0.669632 0.520224 0.000000 
0.674823 0.437485 0.000000 
0.725286 0.518685 0.000000 
0.835082 0.518362 0.000000 
0.780396 0.517764 0.000000 
0.788942 0.434606 0.000000 
0.937500 1.000000 0.000000 
0.844466 0.898694 0.000000 
0.733107 0.899512 0.000000 
0.789630 0.899402 0.000000 
0.812500 1.000000 0.000000 
0.776613 0.797963 0.000000 
0.719343 0.700750 0.000000 
0.500000 0.899544 0.000000 
0.558800 0.899526 0.000000 
0.562500 1.000000 0.000000 
0.555521 0.703203 0.000000 
0.556477 0.800032 0.000000 
0.500000 0.703406 0.000000 
0.687500 1.000000 0.000000 
0.617396 0.899516 0.000000 
0.675580 0.899515 0.000000 
0.558563 0.440797 0.000000 
0.500000 0.365167 0.000000 
0.666212 0.608443 0.000000 
0.613443 0.521748 0.000000 
0.500000 0.523224 0.000000 
0.556835 0.522831 0.000000 
0.555732 0.610474 0.000000 
0.668284 0.799379 0.000000 
0.610755 0.702648 0.000000 
0.665435 0.701803 0.000000 
0.437500 1.000000 0.000000 
0.441200 0.899526 0.000000 
0.324420 0.899515 0.000000 
0.382604 0.899516 0.000000 
0.312500 1.000000 0.000000 
0.443523 0.800032 0.000000 
0.444479 0.703203 0.000000 
0.104048 0.895175 0.000000 
0.155534 0.898694 0.000000 
0.062500 1.000000 0.000000 
0.280657 0.700750 0.000000 
0.223387 0.797963 0.000000 
0.227637 0.699549 0.000000 
0.187500 1.000000 0.000000 
0.210370 0.899402 0.000000 
0.266893 0.899512 0.000000 
0.441437 0.440797 0.000000 
0.439318 0.364524 0.000000 
0.444268 0.610474 0.000000 
0.443165 0.522831 0.000000 
0.330368 0.520224 0.000000 
0.386557 0.521748 0.000000 
0.333788 0.608443 0.000000 
0.331716 0.799379 0.000000 
0.334565 0.701803 0.000000 
0.389245 0.702648 0.000000 
0.057513 0.881140 0.000000 
0.120620 0.792734 0.000000 
0.119074 0.607222 0.000000 
0.123476 0.697201 0.000000 
0.070746 0.697944 0.000000 
0.175416 0.698255 0.000000 
0.225646 0.606014 0.000000 
0.073497 0.285841 0.000000 
0.086670 0.361599 0.000000 
0.030797 0.371894 0.000000 
0.201091 0.356140 0.000000 
0.143432 0.356930 0.000000 
0.190527 0.281919 0.000000 
0.055941 0.529635 0.000000 
0.099268 0.440063 0.000000 
0.110440 0.521748 0.000000 
0.378881 0.362724 0.000000 
0.436997 0.293913 0.000000 
0.274714 0.518685 0.000000 
0.325177 0.437485 0.000000 
0.312159 0.288120 0.000000 
0.318918 0.360196 0.000000 
0.259613 0.357663 0.000000 
0.164918 0.518362 0.000000 
0.211058 0.434606 0.000000 
0.219604 0.517764 0.000000 
0.003221 0.221541 0.000000 
0.060522 0.212298 0.000000 
0.038728 0.070067 0.000000 
0.048598 0.140506 0.000000 
-0.019978 0.074431 0.000000 
0.119497 0.209677 0.000000 
0.180075 0.211492 0.000000 
0.035303 -0.134214 0.000000 
-0.011224 -0.214276 0.000000 
0.156640 0.018936 0.000000 
0.091437 -0.055907 0.000000 
-0.028909 -0.072768 0.000000 
0.030492 -0.067485 0.000000 
0.032179 0.000732 0.000000 
0.369674 0.225539 0.000000 
0.242108 0.215790 0.000000 
0.305392 0.220914 0.000000 
0.299055 0.158198 0.000000 
0.227087 0.089924 0.000000 
0.099539 0.072957 0.000000 
0.162352 0.080365 0.000000 
0.170436 0.144436 0.000000 
0.035410 -0.268851 0.000000 
0.056392 -0.229929 0.000000 
0.026668 -0.238354 0.000000 
0.114103 -0.208114 0.000000 
0.085684 -0.220131 0.000000 
0.096592 -0.249589 0.000000 
0.069882 -0.158367 0.000000 
0.076725 -0.189550 0.000000 
0.099168 -0.148368 0.000000 
0.227275 -0.148437 0.000000 
0.197924 -0.162893 0.000000 
0.204628 -0.187237 0.000000 
0.189514 -0.112272 0.000000 
0.192953 -0.137926 0.000000 
0.221075 -0.100147 0.000000 
0.153163 -0.220289 0.000000 
0.169464 -0.178034 0.000000 
0.141683 -0.193562 0.000000 
0.187326 -0.003368 0.000000 
0.186411 -0.031514 0.000000 
0.220276 0.004237 0.000000 
0.125152 -0.107867 0.000000 
0.154465 -0.068859 0.000000 
0.123168 -0.078345 0.000000 
0.218994 -0.049292 0.000000 
0.186394 -0.059045 0.000000 
0.187385 -0.085967 0.000000 
0.134011 -0.165580 0.000000 
0.158734 -0.124707 0.000000 
0.128676 -0.136959 0.000000 
0.500000 -0.082671 0.000000 
0.463171 -0.083893 0.000000 
0.463041 -0.101352 0.000000 
0.463352 -0.046273 0.000000 
0.463263 -0.065529 0.000000 
0.500000 -0.045280 0.000000 
0.390813 -0.111909 0.000000 
0.426680 -0.087510 0.000000 
0.390831 -0.093383 0.000000 
0.464086 0.039777 0.000000 
0.463824 0.016876 0.000000 
0.500000 0.040438 0.000000 
0.391061 -0.033156 0.000000 
0.427377 -0.007497 0.000000 
0.391406 -0.011444 0.000000 
0.500000 -0.004271 0.000000 
0.463618 -0.005084 0.000000 
0.463465 -0.026128 0.000000 
0.260929 -0.157146 0.000000 
0.289230 -0.122290 0.000000 
0.257677 -0.134836 0.000000 
0.355870 -0.101305 0.000000 
0.321970 -0.111028 0.000000 
0.323008 -0.131315 0.000000 
0.320635 -0.068657 0.000000 
0.321148 -0.090166 0.000000 
0.355411 -0.060569 0.000000 
0.426914 -0.049220 0.000000 
0.390879 -0.054032 0.000000 
[...]
POINT_DATA 16641

SCALARS u_h float 2
LOOKUP_TABLE default
0.005243 -0.277159 
-0.005243 -0.277159 
0.000000 0.000000 
0.000000 0.000000 
0.000000 -0.099986 
-0.016926 -0.203941 
0.000000 0.000000 
0.016926 -0.203941 
0.000000 -0.205292 
-0.017910 -0.171768 
0.000000 -0.185758 
-0.028029 -0.217950 
0.017910 -0.171768 
0.028029 -0.217950 
0.027050 -0.249132 
-0.000838 -0.215475 
-0.065323 -0.137705 
-0.029403 -0.142890 
0.000000 0.000000 
0.000000 -0.139226 
0.000000 0.000000 
0.029403 -0.142890 
0.065323 -0.137705 
0.000838 -0.215475 
-0.027050 -0.249132 
0.001340 -0.236651 
-0.030431 -0.200048 
-0.030073 -0.242906 
0.000000 -0.150229 
-0.019513 -0.164090 
-0.018758 -0.120654 
-0.009678 -0.210611 
-0.016520 -0.194888 
0.000000 -0.205002 
0.018758 -0.120654 
0.019513 -0.164090 
0.030073 -0.242906 
0.030431 -0.200048 
-0.001340 -0.236651 
0.016520 -0.194888 
0.009678 -0.210611 
0.023775 -0.270360 
0.031585 -0.242341 
-0.006377 -0.218223 
0.016414 -0.234803 
0.009430 -0.227146 
0.016003 -0.223947 
0.000708 -0.208468 
-0.044084 -0.175380 
-0.029900 -0.189381 
-0.046286 -0.078709 
-0.047339 -0.144281 
-0.069783 -0.087916 
-0.017811 -0.189398 
-0.008098 -0.185589 
0.000000 0.000000 
-0.026965 -0.076176 
0.000000 -0.074867 
-0.012333 -0.075224 
0.000000 0.000000 
-0.013791 -0.140353 
0.000000 -0.183702 
0.000000 0.000000 
0.012333 -0.075224 
0.046286 -0.078709 
0.026965 -0.076176 
0.000000 0.000000 
0.013791 -0.140353 
0.008098 -0.185589 
0.069783 -0.087916 
0.047339 -0.144281 
0.006377 -0.218223 
0.029900 -0.189381 
0.044084 -0.175380 
0.017811 -0.189398 
-0.000708 -0.208468 
-0.009430 -0.227146 
-0.016414 -0.234803 
-0.031585 -0.242341 
-0.023775 -0.270360 
-0.016003 -0.223947 
0.003472 -0.260010 
-0.019602 -0.240974 
-0.014850 -0.261283 
-0.026388 -0.187098 
-0.024386 -0.214252 
-0.009087 -0.203411 
-0.033318 -0.227637 
-0.031571 -0.222054 
-0.030743 -0.210369 
0.000000 -0.126930 
-0.010710 -0.131288 
-0.010985 -0.105386 
-0.009735 -0.172803 
-0.010401 -0.153795 
0.000000 -0.169890 
-0.021274 -0.143577 
-0.019440 -0.143793 
-0.024827 -0.162993 
-0.002845 -0.208801 
-0.005060 -0.206460 
0.000000 -0.207688 
-0.023152 -0.205278 
-0.013491 -0.204798 
-0.018928 -0.212912 
0.000000 -0.197571 
-0.007017 -0.199440 
-0.008602 -0.188110 
-0.026363 -0.180030 
-0.018564 -0.181218 
-0.025738 -0.194223 
0.010985 -0.105386 
0.010710 -0.131288 
0.024827 -0.162993 
0.019440 -0.143793 
0.021274 -0.143577 
0.010401 -0.153795 
0.009735 -0.172803 
0.014850 -0.261283 
0.019602 -0.240974 
-0.003472 -0.260010 
0.030743 -0.210369 
0.031571 -0.222054 
0.033318 -0.227637 
0.009087 -0.203411 
0.024386 -0.214252 
0.026388 -0.187098 
0.005060 -0.206460 
0.002845 -0.208801 
0.008602 -0.188110 
0.007017 -0.199440 
0.018928 -0.212912 
0.013491 -0.204798 
0.023152 -0.205278 
0.026363 -0.180030 
0.025738 -0.194223 
0.018564 -0.181218 
0.011224 -0.276776 
0.027197 -0.259214 
0.030321 -0.249268 
0.032008 -0.254985 
0.028909 -0.260268 
0.033563 -0.243407 
0.030860 -0.231064 
-0.010997 -0.214159 
0.001978 -0.225202 
-0.003221 -0.215959 
0.007425 -0.226008 
0.005503 -0.227823 
-0.003027 -0.218081 
0.019978 -0.238069 
0.013902 -0.234494 
0.023772 -0.242433 
0.005326 -0.211961 
0.000503 -0.206087 
0.022913 -0.222576 
0.013445 -0.216802 
0.000341 -0.211880 
0.007108 -0.216586 
0.007892 -0.221710 
0.025461 -0.239543 
0.017064 -0.230564 
0.025148 -0.232135 
-0.030797 -0.190606 
-0.024170 -0.200901 
-0.047940 -0.165752 
-0.036768 -0.184937 
-0.055941 -0.157865 
-0.018432 -0.205570 
-0.013591 -0.206360 
-0.041548 -0.042325 
-0.058120 -0.082266 
-0.057513 -0.056360 
-0.038146 -0.143986 
-0.050416 -0.114245 
-0.040137 -0.112951 
-0.070746 -0.114556 
-0.060976 -0.115299 
-0.056574 -0.142778 
-0.003881 -0.199776 
-0.001818 -0.197976 
-0.009613 -0.204837 
-0.006418 -0.202304 
-0.017868 -0.167276 
-0.012677 -0.187515 
-0.024714 -0.168815 
-0.039918 -0.169138 
-0.032104 -0.169736 
-0.023558 -0.190394 
0.000000 0.000000 
-0.030534 -0.038806 
-0.016893 -0.037988 
-0.022870 -0.038098 
0.000000 0.000000 
-0.035887 -0.077037 
-0.030657 -0.111750 
-0.000000 -0.037956 
-0.003700 -0.037974 
0.000000 0.000000 
-0.006979 -0.109297 
-0.006023 -0.074968 
0.000000 -0.109094 
0.000000 0.000000 
-0.007604 -0.037984 
-0.011920 -0.037985 
-0.003937 -0.184203 
0.000000 -0.197333 
-0.021288 -0.141557 
-0.011557 -0.165752 
0.000000 -0.164276 
-0.005665 -0.164669 
-0.006768 -0.139526 
-0.019216 -0.075621 
-0.014245 -0.109852 
-0.022065 -0.110697 
0.000000 0.000000 
0.003700 -0.037974 
0.011920 -0.037985 
0.007604 -0.037984 
0.000000 0.000000 
0.006023 -0.074968 
0.006979 -0.109297 
0.041548 -0.042325 
0.030534 -0.038806 
0.000000 0.000000 
0.030657 -0.111750 
0.035887 -0.077037 
0.040137 -0.112951 
0.000000 0.000000 
0.022870 -0.038098 
0.016893 -0.037988 
0.003937 -0.184203 
0.001818 -0.197976 
0.006768 -0.139526 
0.005665 -0.164669 
0.017868 -0.167276 
0.011557 -0.165752 
0.021288 -0.141557 
0.019216 -0.075621 
0.022065 -0.110697 
0.014245 -0.109852 
0.057513 -0.056360 
0.058120 -0.082266 
0.056574 -0.142778 
0.060976 -0.115299 
0.070746 -0.114556 
0.050416 -0.114245 
0.038146 -0.143986 
0.010997 -0.214159 
0.024170 -0.200901 
0.030797 -0.190606 
0.013591 -0.206360 
0.018432 -0.205570 
0.003027 -0.218081 
0.055941 -0.157865 
0.036768 -0.184937 
0.047940 -0.165752 
0.003881 -0.199776 
-0.000503 -0.206087 
0.024714 -0.168815 
0.012677 -0.187515 
-0.000341 -0.211880 
0.006418 -0.202304 
0.009613 -0.204837 
0.039918 -0.169138 
0.023558 -0.190394 
0.032104 -0.169736 
0.003221 -0.215959 
-0.001978 -0.225202 
-0.023772 -0.242433 
-0.013902 -0.234494 
-0.019978 -0.238069 
-0.005503 -0.227823 
-0.007425 -0.226008 
-0.027197 -0.259214 
-0.011224 -0.276776 
-0.030860 -0.231064 
-0.033563 -0.243407 
-0.028909 -0.260268 
-0.032008 -0.254985 
-0.030321 -0.249268 
-0.005326 -0.211961 
-0.007892 -0.221710 
-0.007108 -0.216586 
-0.013445 -0.216802 
-0.022913 -0.222576 
-0.025461 -0.239543 
-0.025148 -0.232135 
-0.017064 -0.230564 
0.004160 -0.268851 
-0.006108 -0.261179 
-0.004582 -0.269604 
-0.010897 -0.239364 
-0.008066 -0.251381 
0.002842 -0.249589 
-0.023868 -0.252117 
-0.017025 -0.252050 
-0.025832 -0.242118 
-0.022725 -0.179687 
-0.020826 -0.194143 
-0.014122 -0.187237 
-0.029236 -0.206022 
-0.025797 -0.200426 
-0.028925 -0.193897 
-0.003087 -0.220289 
-0.018036 -0.209284 
-0.014567 -0.224812 
-0.031424 -0.222118 
-0.032339 -0.219014 
-0.029724 -0.214513 
-0.031098 -0.232867 
-0.033035 -0.225109 
-0.033082 -0.234595 
-0.031006 -0.205542 
-0.032356 -0.215295 
-0.031365 -0.210967 
-0.022239 -0.228080 
-0.028766 -0.218457 
-0.027574 -0.230709 
0.000000 -0.113921 
-0.005579 -0.115143 
-0.005709 -0.101352 
-0.005398 -0.140023 
-0.005487 -0.128029 
0.000000 -0.139030 
-0.015437 -0.111909 
-0.010820 -0.118760 
-0.015419 -0.124633 
-0.004664 -0.178973 
-0.004926 -0.170624 
0.000000 -0.178312 
-0.015189 -0.158156 
-0.010123 -0.163747 
-0.014844 -0.167694 
0.000000 -0.160521 
-0.005132 -0.161334 
-0.005285 -0.151128 
-0.020321 -0.157146 
-0.023270 -0.153540 
-0.023573 -0.166086 
-0.019130 -0.132555 
-0.021780 -0.142278 
-0.020742 -0.131315 
-0.023115 -0.162407 
-0.022602 -0.152666 
-0.019589 -0.154319 
-0.010586 -0.142970 
-0.015371 -0.147782 
-0.015427 -0.136599 
-0.000864 -0.207376 
-0.001447 -0.207968 
0.000000 -0.207138 
-0.007450 -0.208229 
-0.003977 -0.208239 
-0.005839 -0.209788 
0.000000 -0.206961 
-0.002014 -0.207284 
-0.002558 -0.205370 
-0.025832 -0.211432 
-0.021221 -0.209542 
-0.023699 -0.214956 
-0.015117 -0.200333 
-0.018344 -0.204609 
-0.020029 -0.199702 
-0.014136 -0.211556 
-0.016367 -0.208575 
-0.011668 -0.208239 
0.000000 -0.192190 
-0.003970 -0.192721 
-0.004345 -0.186351 
-0.003070 -0.202275 
-0.003543 -0.198043 
0.000000 -0.201857 
-0.012687 -0.190984 
-0.007862 -0.194292 
-0.011602 -0.196857 
-0.008963 -0.205523 
-0.010354 -0.201717 
-0.006078 -0.203511 
-0.026083 -0.174545 
-0.023264 -0.171442 
-0.025869 -0.171844 
-0.027808 -0.182418 
-0.028761 -0.189643 
-0.009228 -0.180935 
-0.017675 -0.188503 
-0.013595 -0.184142 
-0.014315 -0.176366 
-0.019177 -0.173068 
-0.027464 -0.207107 
-0.028985 -0.196185 
-0.028534 -0.202015 
-0.024671 -0.200160 
-0.021390 -0.193895 
-0.023025 -0.179728 
-0.022396 -0.187225 
-0.026312 -0.187501 
0.005709 -0.101352 
0.005579 -0.115143 
0.015419 -0.124633 
0.010820 -0.118760 
0.015437 -0.111909 
0.005487 -0.128029 
0.005398 -0.140023 
0.023573 -0.166086 
0.023270 -0.153540 
0.020321 -0.157146 
0.019589 -0.154319 
0.022602 -0.152666 
0.023115 -0.162407 
0.020742 -0.131315 
0.021780 -0.142278 
0.019130 -0.132555 
0.004926 -0.170624 
0.004664 -0.178973 
0.005285 -0.151128 
0.005132 -0.161334 
0.014844 -0.167694 
0.010123 -0.163747 
0.015189 -0.158156 
0.015427 -0.136599 
0.015371 -0.147782 
0.010586 -0.142970 
0.004582 -0.269604 
0.006108 -0.261179 
-0.004160 -0.268851 
0.025832 -0.242118 
0.017025 -0.252050 
0.023868 -0.252117 
-0.002842 -0.249589 
0.008066 -0.251381 
0.010897 -0.239364 
0.029724 -0.214513 
0.032339 -0.219014 
0.031424 -0.222118 
0.031365 -0.210967 
0.032356 -0.215295 
0.031006 -0.205542 
0.033082 -0.234595 
0.033035 -0.225109 
0.031098 -0.232867 
0.014122 -0.187237 
0.020826 -0.194143 
0.022725 -0.179687 
0.014567 -0.224812 
0.018036 -0.209284 
0.003087 -0.220289 
0.028925 -0.193897 
0.025797 -0.200426 
0.029236 -0.206022 
0.027574 -0.230709 
0.028766 -0.218457 
0.022239 -0.228080 
0.001447 -0.207968 
0.000864 -0.207376 
0.002558 -0.205370 
0.002014 -0.207284 
0.005839 -0.209788 
0.003977 -0.208239 
0.007450 -0.208229 
0.004345 -0.186351 
0.003970 -0.192721 
0.011602 -0.196857 
0.007862 -0.194292 
0.012687 -0.190984 
0.003543 -0.198043 
0.003070 -0.202275 
0.023699 -0.214956 
0.021221 -0.209542 
0.025832 -0.211432 
0.011668 -0.208239 
0.016367 -0.208575 
0.014136 -0.211556 
0.020029 -0.199702 
0.018344 -0.204609 
0.015117 -0.200333 
0.006078 -0.203511 
0.010354 -0.201717 
0.008963 -0.205523 
0.026083 -0.174545 
0.028761 -0.189643 
0.027808 -0.182418 
0.025869 -0.171844 
0.023264 -0.171442 
0.027464 -0.207107 
0.021390 -0.193895 
0.024671 -0.200160 
0.028534 -0.202015 
0.028985 -0.196185 
0.009228 -0.180935 
0.019177 -0.173068 
0.014315 -0.176366 
0.013595 -0.184142 
0.017675 -0.188503 
0.026312 -0.187501 
0.022396 -0.187225 
0.023025 -0.179728 
0.003094 -0.277697 
0.013016 -0.269234 
0.025603 -0.265355 
0.020192 -0.267767 
0.018326 -0.274236 
0.021970 -0.260572 
0.028707 -0.251751 
0.028954 -0.250277 
0.030565 -0.254521 
0.028750 -0.254727 
0.032745 -0.248366 
0.031877 -0.252281 
0.031194 -0.246508 
0.027303 -0.265574 
0.030681 -0.258539 
0.029082 -0.262209 
0.032553 -0.229630 
0.029710 -0.224586 
0.032587 -0.243343 
0.033706 -0.235888 
0.031480 -0.237087 
0.033125 -0.236727 
0.033173 -0.243080 
0.030507 -0.257321 
0.032973 -0.249864 
0.031687 -0.250996 
-0.013799 -0.209950 
-0.007029 -0.215941 
-0.009997 -0.210093 
-0.002214 -0.222318 
-0.004433 -0.219928 
-0.008524 -0.216834 
0.003295 -0.221619 
-0.000413 -0.221551 
0.005942 -0.226841 
0.003066 -0.221011 
0.002256 -0.222492 
-0.001796 -0.216987 
0.011132 -0.231615 
0.006656 -0.227342 
0.011971 -0.230576 
-0.004549 -0.218563 
0.001118 -0.223355 
-0.000367 -0.223377 
0.024049 -0.243570 
0.022147 -0.241350 
0.026075 -0.245877 
0.011914 -0.231869 
0.017367 -0.236691 
0.015044 -0.232609 
0.020450 -0.238746 
0.019166 -0.238613 
0.015399 -0.235365 
0.003947 -0.227199 
0.009856 -0.231531 
0.008129 -0.230040 
0.001682 -0.208099 
0.000271 -0.205460 
0.007553 -0.211868 
0.004153 -0.210152 
0.000660 -0.207109 
0.002417 -0.209274 
0.003032 -0.210843 
0.025733 -0.220649 
0.021124 -0.217643 
0.014895 -0.220339 
0.018168 -0.219452 
0.019645 -0.223690 
0.016319 -0.215346 
0.011691 -0.213509 
-0.000134 -0.213720 
0.003788 -0.216998 
0.003569 -0.219117 
0.003489 -0.212725 
0.003751 -0.214818 
0.000612 -0.210090 
0.012061 -0.223304 
0.007642 -0.219160 
0.011365 -0.220258 
0.009073 -0.214387 
0.010357 -0.217231 
0.006324 -0.214142 
0.027552 -0.245982 
0.021233 -0.237432 
0.024872 -0.241713 
0.028509 -0.244294 
0.028961 -0.241169 
0.007829 -0.224059 
0.016736 -0.227429 
0.012412 -0.226182 
0.012391 -0.228682 
0.016964 -0.233109 
0.027292 -0.226387 
0.028911 -0.236938 
0.028354 -0.231911 
0.024263 -0.227488 
0.020715 -0.227850 
0.021528 -0.234985 
0.021350 -0.231700 
0.025551 -0.236249 
-0.023885 -0.197486 
-0.020612 -0.203513 
-0.033996 -0.189055 
-0.027375 -0.196569 
-0.037564 -0.183255 
-0.017607 -0.207837 
-0.014880 -0.210691 
-0.056891 -0.152104 
-0.051954 -0.162495 
-0.061020 -0.148137 
-0.033274 -0.187688 
-0.042593 -0.175781 
-0.038838 -0.178282 
-0.050250 -0.166933 
-0.046401 -0.172077 
-0.040374 -0.180910 
-0.008338 -0.212722 
-0.006678 -0.211934 
-0.012430 -0.212307 
-0.010252 -0.212913 
-0.021403 -0.198802 
-0.015901 -0.206346 
-0.024289 -0.197949 
-0.030591 -0.193289 
-0.027353 -0.196181 
-0.021188 -0.203827 
-0.031199 -0.024162 
-0.049144 -0.047390 
-0.043100 -0.036757 
-0.052066 -0.080173 
-0.052203 -0.063213 
-0.045854 -0.060608 
-0.065578 -0.072944 
-0.059012 -0.067366 
-0.064175 -0.084988 
-0.033702 -0.143496 
-0.039769 -0.129126 
-0.035070 -0.128555 
-0.049565 -0.129942 
-0.044617 -0.129611 
-0.042706 -0.144282 
-0.044092 -0.096257 
-0.045196 -0.113594 
-0.049493 -0.097155 
-0.068650 -0.126528 
-0.064183 -0.128613 
-0.061039 -0.140836 
-0.066223 -0.100863 
-0.066039 -0.115335 
-0.071277 -0.101721 
-0.051984 -0.143843 
-0.059448 -0.129656 
-0.054540 -0.130014 
-0.055087 -0.098265 
-0.055716 -0.114854 
-0.060737 -0.099562 
-0.000673 -0.202726 
-0.000322 -0.202179 
-0.001611 -0.204793 
-0.001092 -0.203614 
-0.004443 -0.192488 
-0.002804 -0.198751 
-0.006058 -0.193383 
-0.005258 -0.210731 
-0.004061 -0.209279 
-0.011652 -0.196716 
-0.007924 -0.203626 
-0.013825 -0.197741 
-0.003070 -0.207723 
-0.002261 -0.206192 
-0.023553 -0.155825 
-0.021221 -0.168078 
-0.027404 -0.156523 
-0.010325 -0.186515 
-0.015446 -0.178085 
-0.012637 -0.177198 
-0.021476 -0.179767 
-0.018390 -0.178970 
-0.015169 -0.188508 
-0.005078 -0.200987 
-0.009643 -0.195579 
-0.007785 -0.194438 
-0.052661 -0.154778 
-0.044043 -0.157322 
-0.048364 -0.156438 
-0.043919 -0.167890 
-0.035153 -0.179801 
-0.031398 -0.157114 
-0.024704 -0.180375 
-0.028345 -0.169401 
-0.035521 -0.157517 
-0.039748 -0.157629 
-0.011498 -0.205799 
-0.026658 -0.190221 
-0.018697 -0.198936 
-0.016171 -0.198528 
-0.020607 -0.190070 
-0.035970 -0.169696 
-0.028068 -0.180679 
-0.031556 -0.180540 
0.000000 0.000000 
-0.024244 -0.020304 
-0.017010 -0.018734 
-0.020024 -0.019113 
0.000000 0.000000 
-0.035451 -0.039909 
-0.040176 -0.059097 
-0.009260 -0.018778 
-0.010838 -0.018713 
0.000000 0.000000 
-0.026523 -0.057445 
-0.019726 -0.038014 
-0.022790 -0.057248 
0.000000 0.000000 
-0.012602 -0.018658 
-0.014619 -0.018641 
-0.035285 -0.112335 
-0.030548 -0.127943 
-0.040888 -0.077717 
-0.038954 -0.095535 
-0.029529 -0.094432 
-0.034100 -0.094939 
-0.031259 -0.076549 
-0.026423 -0.038311 
-0.030610 -0.057745 
-0.035129 -0.058240 
-0.000000 -0.019007 
-0.000998 -0.019011 
0.000000 0.000000 
-0.002503 -0.056666 
-0.001837 -0.037966 
-0.000000 -0.056647 
0.000000 0.000000 
-0.002011 -0.019004 
-0.003055 -0.018989 
-0.003484 -0.124812 
-0.003471 -0.109149 
0.000000 -0.124745 
-0.009124 -0.075077 
-0.006662 -0.092565 
-0.010085 -0.092738 
0.000000 -0.092413 
-0.003313 -0.092456 
-0.002994 -0.074898 
0.000000 0.000000 
-0.006511 -0.018891 
-0.007828 -0.018839 
-0.004142 -0.018965 
-0.005289 -0.018933 
0.000000 0.000000 
-0.013164 -0.056897 
-0.009696 -0.037986 
-0.010336 -0.056817 
-0.005039 -0.056701 
-0.007639 -0.056752 
-0.005614 -0.037980 
-0.000894 -0.197496 
0.000000 -0.202000 
-0.005977 -0.184801 
-0.002914 -0.191808 
0.000000 -0.191241 
-0.001443 -0.191385 
-0.001955 -0.183830 
-0.025264 -0.142227 
-0.019850 -0.155091 
-0.012860 -0.153729 
-0.016290 -0.154377 
-0.017469 -0.140921 
-0.014651 -0.166481 
-0.009949 -0.176378 
0.000000 -0.152430 
-0.003140 -0.152520 
-0.003368 -0.139305 
-0.002418 -0.174824 
-0.002818 -0.164377 
0.000000 -0.174710 
-0.010233 -0.139880 
-0.006311 -0.152776 
-0.009542 -0.153186 
-0.007366 -0.175682 
-0.008569 -0.165136 
-0.004864 -0.175154 
-0.014306 -0.037983 
-0.015685 -0.075405 
-0.016156 -0.056992 
-0.019351 -0.057105 
-0.022963 -0.075874 
-0.007003 -0.124997 
-0.014278 -0.125693 
-0.010590 -0.125294 
-0.010558 -0.109534 
-0.013619 -0.092971 
-0.026215 -0.127325 
-0.025222 -0.093989 
-0.026254 -0.111202 
-0.022068 -0.126728 
-0.018095 -0.126176 
-0.017297 -0.093260 
-0.018071 -0.110243 
-0.021154 -0.093600 
0.000000 0.000000 
0.000998 -0.019011 
0.003055 -0.018989 
0.002011 -0.019004 
0.000000 0.000000 
0.001837 -0.037966 
0.002503 -0.056666 
0.007828 -0.018839 
0.006511 -0.018891 
0.000000 0.000000 
0.010336 -0.056817 
0.009696 -0.037986 
0.013164 -0.056897 
0.000000 0.000000 
0.005289 -0.018933 
0.004142 -0.018965 
0.003471 -0.109149 
0.003484 -0.124812 
0.002994 -0.074898 
0.003313 -0.092456 
0.010085 -0.092738 
0.006662 -0.092565 
0.009124 -0.075077 
0.005614 -0.037980 
0.007639 -0.056752 
0.005039 -0.056701 
0.031199 -0.024162 
0.024244 -0.020304 
0.000000 0.000000 
0.040176 -0.059097 
0.035451 -0.039909 
0.045854 -0.060608 
0.000000 0.000000 
0.020024 -0.019113 
0.017010 -0.018734 
0.030548 -0.127943 
0.035285 -0.112335 
0.035070 -0.128555 
0.031259 -0.076549 
0.034100 -0.094939 
0.029529 -0.094432 
0.044092 -0.096257 
0.038954 -0.095535 
0.040888 -0.077717 
0.000000 0.000000 
0.010838 -0.018713 
0.009260 -0.018778 
0.014619 -0.018641 
0.012602 -0.018658 
0.000000 0.000000 
0.022790 -0.057248 
0.019726 -0.038014 
0.026523 -0.057445 
0.035129 -0.058240 
0.030610 -0.057745 
0.026423 -0.038311 
0.000894 -0.197496 
0.000322 -0.202179 
0.001955 -0.183830 
0.001443 -0.191385 
0.004443 -0.192488 
0.002914 -0.191808 
0.005977 -0.184801 
0.003368 -0.139305 
0.003140 -0.152520 
0.009542 -0.153186 
0.006311 -0.152776 
0.010233 -0.139880 
0.002818 -0.164377 
0.002418 -0.174824 
0.023553 -0.155825 
0.019850 -0.155091 
0.025264 -0.142227 
0.009949 -0.176378 
0.014651 -0.166481 
0.012637 -0.177198 
0.017469 -0.140921 
0.016290 -0.154377 
0.012860 -0.153729 
0.004864 -0.175154 
0.008569 -0.165136 
0.007366 -0.175682 
0.014306 -0.037983 
0.022963 -0.075874 
0.019351 -0.057105 
0.016156 -0.056992 
0.015685 -0.075405 
0.026215 -0.127325 
0.018095 -0.126176 
0.022068 -0.126728 
0.026254 -0.111202 
0.025222 -0.093989 
0.007003 -0.124997 
0.013619 -0.092971 
0.010558 -0.109534 
0.010590 -0.125294 
0.014278 -0.125693 
0.021154 -0.093600 
0.018071 -0.110243 
0.017297 -0.093260 
0.043100 -0.036757 
0.049144 -0.047390 
0.064175 -0.084988 
0.059012 -0.067366 
0.065578 -0.072944 
0.052203 -0.063213 
0.052066 -0.080173 
0.061039 -0.140836 
0.064183 -0.128613 
0.068650 -0.126528 
0.054540 -0.130014 
0.059448 -0.129656 
0.051984 -0.143843 
0.071277 -0.101721 
0.066039 -0.115335 
0.066223 -0.100863 
0.039769 -0.129126 
0.033702 -0.143496 
0.049493 -0.097155 
0.045196 -0.113594 
0.042706 -0.144282 
0.044617 -0.129611 
0.049565 -0.129942 
0.060737 -0.099562 
0.055716 -0.114854 
0.055087 -0.098265 
0.013799 -0.209950 
0.020612 -0.203513 
0.023885 -0.197486 
0.014880 -0.210691 
0.017607 -0.207837 
0.008524 -0.216834 
0.037564 -0.183255 
0.027375 -0.196569 
0.033996 -0.189055 
0.006678 -0.211934 
0.008338 -0.212722 
0.001796 -0.216987 
0.024289 -0.197949 
0.015901 -0.206346 
0.021403 -0.198802 
0.004549 -0.218563 
0.010252 -0.212913 
0.012430 -0.212307 
0.061020 -0.148137 
0.051954 -0.162495 
0.056891 -0.152104 
0.040374 -0.180910 
0.046401 -0.172077 
0.050250 -0.166933 
0.038838 -0.178282 
0.042593 -0.175781 
0.033274 -0.187688 
0.021188 -0.203827 
0.027353 -0.196181 
0.030591 -0.193289 
0.000673 -0.202726 
-0.000271 -0.205460 
0.006058 -0.193383 
0.002804 -0.198751 
-0.000660 -0.207109 
0.001092 -0.203614 
0.001611 -0.204793 
0.027404 -0.156523 
0.021221 -0.168078 
0.015169 -0.188508 
0.018390 -0.178970 
0.021476 -0.179767 
0.015446 -0.178085 
0.010325 -0.186515 
0.000134 -0.213720 
0.004061 -0.209279 
0.005258 -0.210731 
0.002261 -0.206192 
0.003070 -0.207723 
-0.000612 -0.210090 
0.013825 -0.197741 
0.007924 -0.203626 
0.011652 -0.196716 
0.007785 -0.194438 