# vtk DataFile Version 2.0
Unstructured Grid Example
ASCII
DATASET UNSTRUCTURED_GRID

POINTS 1089 float
0.003636 -0.275524 0.000000 
0.996364 -0.275524 0.000000 
1.000000 1.000000 0.000000 
0.000000 1.000000 0.000000 
0.500000 -0.099775 0.000000 
0.982805 0.296600 0.000000 
0.500000 1.000000 0.000000 
0.017195 0.296600 0.000000 
0.500000 0.294616 0.000000 
0.232396 -0.171478 0.000000 
0.500000 0.064723 0.000000 
0.222165 0.032409 0.000000 
0.767604 -0.171478 0.000000 
0.777835 0.032409 0.000000 
1.026582 0.001582 0.000000 
0.749047 0.285157 0.000000 
0.935084 0.612426 0.000000 
0.720825 0.607681 0.000000 
0.750000 1.000000 0.000000 
0.500000 0.611462 0.000000 
0.250000 1.000000 0.000000 
0.279175 0.607681 0.000000 
0.064916 0.612426 0.000000 
0.250953 0.285157 0.000000 
-0.026582 0.001582 0.000000 
0.124183 -0.236311 0.000000 
0.219674 -0.074889 0.000000 
0.095090 -0.117532 0.000000 
0.500000 -0.024798 0.000000 
0.355555 -0.038751 0.000000 
0.356751 -0.120329 0.000000 
0.365338 0.164873 0.000000 
0.358509 0.055527 0.000000 
0.500000 0.170417 0.000000 
0.643249 -0.120329 0.000000 
0.644445 -0.038751 0.000000 
0.904910 -0.117532 0.000000 
0.780326 -0.074889 0.000000 
0.875817 -0.236311 0.000000 
0.641491 0.055527 0.000000 
0.634662 0.164873 0.000000 
1.024195 -0.143441 0.000000 
0.906135 0.008143 0.000000 
0.868398 0.282361 0.000000 
0.891068 0.140730 0.000000 
1.009053 0.148197 0.000000 
0.765826 0.151572 0.000000 
0.625688 0.292087 0.000000 
0.956050 0.449843 0.000000 
0.845107 0.436180 0.000000 
0.829461 0.796871 0.000000 
0.827970 0.606260 0.000000 
0.930980 0.787465 0.000000 
0.732163 0.436231 0.000000 
0.616848 0.439983 0.000000 
0.875000 1.000000 0.000000 
0.723442 0.799198 0.000000 
0.500000 0.800671 0.000000 
0.612834 0.800073 0.000000 
0.625000 1.000000 0.000000 
0.611310 0.610182 0.000000 
0.500000 0.441837 0.000000 
0.375000 1.000000 0.000000 
0.387166 0.800073 0.000000 
0.170539 0.796871 0.000000 
0.276558 0.799198 0.000000 
0.125000 1.000000 0.000000 
0.388690 0.610182 0.000000 
0.383152 0.439983 0.000000 
0.069020 0.787465 0.000000 
0.172030 0.606260 0.000000 
0.131602 0.282361 0.000000 
0.154893 0.436180 0.000000 
0.043950 0.449843 0.000000 
0.267837 0.436231 0.000000 
0.374312 0.292087 0.000000 
-0.009053 0.148197 0.000000 
0.108932 0.140730 0.000000 
0.093865 0.008143 0.000000 
-0.024195 -0.143441 0.000000 
0.234174 0.151572 0.000000 
0.064207 -0.258711 0.000000 
0.105086 -0.178094 0.000000 
0.046627 -0.197521 0.000000 
0.223696 -0.124480 0.000000 
0.163075 -0.151808 0.000000 
0.178149 -0.203472 0.000000 
0.154456 -0.039867 0.000000 
0.156082 -0.096925 0.000000 
0.219417 -0.022611 0.000000 
0.500000 -0.064073 0.000000 
0.426914 -0.068446 0.000000 
0.426876 -0.105131 0.000000 
0.427773 0.015124 0.000000 
0.427134 -0.028400 0.000000 
0.500000 0.018078 0.000000 
0.291714 -0.143222 0.000000 
0.355754 -0.080978 0.000000 
0.287855 -0.100243 0.000000 
0.434609 0.229119 0.000000 
0.432419 0.168984 0.000000 
0.500000 0.230096 0.000000 
0.289442 0.045102 0.000000 
0.361535 0.108154 0.000000 
0.293670 0.100036 0.000000 
0.500000 0.115398 0.000000 
0.430477 0.113513 0.000000 
0.428899 0.062336 0.000000 
0.286226 -0.054775 0.000000 
0.356469 0.006658 0.000000 
0.286843 -0.006413 0.000000 
0.573124 -0.105131 0.000000 
0.573086 -0.068446 0.000000 
0.712145 -0.100243 0.000000 
0.644246 -0.080978 0.000000 
0.708286 -0.143222 0.000000 
0.572866 -0.028400 0.000000 
0.572227 0.015124 0.000000 
0.953373 -0.197521 0.000000 
0.894914 -0.178094 0.000000 
0.935793 -0.258711 0.000000 
0.780583 -0.022611 0.000000 
0.843918 -0.096925 0.000000 
0.845544 -0.039867 0.000000 
0.821851 -0.203472 0.000000 
0.836925 -0.151808 0.000000 
0.776304 -0.124480 0.000000 
0.567581 0.168984 0.000000 
0.565391 0.229119 0.000000 
0.571101 0.062336 0.000000 
0.569523 0.113513 0.000000 
0.706330 0.100036 0.000000 
0.638465 0.108154 0.000000 
0.710558 0.045102 0.000000 
0.713774 -0.054775 0.000000 
0.713157 -0.006413 0.000000 
0.643531 0.006658 0.000000 
1.012684 -0.212132 0.000000 
0.964795 -0.133187 0.000000 
0.967310 0.001402 0.000000 
0.969128 -0.066652 0.000000 
1.028651 -0.071518 0.000000 
0.908180 -0.055473 0.000000 
0.843037 0.019317 0.000000 
0.926245 0.286359 0.000000 
0.939180 0.212800 0.000000 
0.996473 0.221926 0.000000 
0.819706 0.212068 0.000000 
0.880229 0.210232 0.000000 
0.809300 0.282542 0.000000 
1.019524 0.074863 0.000000 
0.951019 0.141013 0.000000 
0.960798 0.070627 0.000000 
0.630320 0.226058 0.000000 
0.563006 0.294333 0.000000 
0.772716 0.090371 0.000000 
0.700857 0.158707 0.000000 
0.687780 0.288732 0.000000 
0.694536 0.221479 0.000000 
0.757746 0.216370 0.000000 
0.900042 0.073469 0.000000 
0.829294 0.144963 0.000000 
0.837334 0.080829 0.000000 
0.969177 0.372215 0.000000 
0.913229 0.362086 0.000000 
0.889749 0.522163 0.000000 
0.900781 0.440505 0.000000 
0.944327 0.529798 0.000000 
0.856449 0.357512 0.000000 
0.798797 0.356770 0.000000 
0.897193 0.896069 0.000000 
0.880174 0.793331 0.000000 
0.943481 0.882652 0.000000 
0.774629 0.606591 0.000000 
0.825092 0.698812 0.000000 
0.772816 0.700103 0.000000 
0.929821 0.698102 0.000000 
0.877056 0.697685 0.000000 
0.881268 0.607647 0.000000 
0.621036 0.363288 0.000000 
0.560599 0.364977 0.000000 
0.740291 0.358304 0.000000 
0.680997 0.360816 0.000000 
0.669685 0.520813 0.000000 
0.674782 0.438095 0.000000 
0.725373 0.519290 0.000000 
0.835228 0.518905 0.000000 
0.780513 0.518360 0.000000 
0.788929 0.435222 0.000000 
0.937500 1.000000 0.000000 
0.845187 0.899112 0.000000 
0.733343 0.899686 0.000000 
0.790027 0.899642 0.000000 
0.812500 1.000000 0.000000 
0.777194 0.798436 0.000000 
0.719707 0.701256 0.000000 
0.500000 0.899876 0.000000 
0.558858 0.899700 0.000000 
0.562500 1.000000 0.000000 
0.555596 0.703695 0.000000 
0.556558 0.800381 0.000000 
0.500000 0.704058 0.000000 
0.687500 1.000000 0.000000 
0.617493 0.899655 0.000000 
0.675728 0.899659 0.000000 
0.558513 0.441328 0.000000 
0.500000 0.365495 0.000000 
0.666379 0.608989 0.000000 
0.613462 0.522319 0.000000 
0.500000 0.523875 0.000000 
0.556832 0.523412 0.000000 
0.555774 0.611046 0.000000 
0.668554 0.799691 0.000000 
0.610918 0.703089 0.000000 
0.665696 0.702260 0.000000 
0.437500 1.000000 0.000000 
0.441142 0.899700 0.000000 
0.324272 0.899659 0.000000 
0.382507 0.899655 0.000000 
0.312500 1.000000 0.000000 
0.443442 0.800381 0.000000 
0.444404 0.703695 0.000000 
0.102807 0.896069 0.000000 
0.154813 0.899112 0.000000 
0.062500 1.000000 0.000000 
0.280293 0.701256 0.000000 
0.222806 0.798436 0.000000 
0.227184 0.700103 0.000000 
0.187500 1.000000 0.000000 
0.209973 0.899642 0.000000 
0.266657 0.899686 0.000000 
0.441487 0.441328 0.000000 
0.439401 0.364977 0.000000 
0.444226 0.611046 0.000000 
0.443168 0.523412 0.000000 
0.330315 0.520813 0.000000 
0.386538 0.522319 0.000000 
0.333621 0.608989 0.000000 
0.331446 0.799691 0.000000 
0.334304 0.702260 0.000000 
0.389082 0.703089 0.000000 
0.056519 0.882652 0.000000 
0.119826 0.793331 0.000000 
0.118732 0.607647 0.000000 
0.122944 0.697685 0.000000 
0.070179 0.698102 0.000000 
0.174908 0.698812 0.000000 
0.225371 0.606591 0.000000 
0.073755 0.286359 0.000000 
0.086771 0.362086 0.000000 
0.030823 0.372215 0.000000 
0.201203 0.356770 0.000000 
0.143551 0.357512 0.000000 
0.190700 0.282542 0.000000 
0.055673 0.529798 0.000000 
0.099219 0.440505 0.000000 
0.110251 0.522163 0.000000 
0.378964 0.363288 0.000000 
0.436994 0.294333 0.000000 
0.274627 0.519290 0.000000 
0.325218 0.438095 0.000000 
0.312220 0.288732 0.000000 
0.319003 0.360816 0.000000 
0.259709 0.358304 0.000000 
0.164772 0.518905 0.000000 
0.211071 0.435222 0.000000 
0.219487 0.518360 0.000000 
0.003527 0.221926 0.000000 
0.060820 0.212800 0.000000 
0.039202 0.070627 0.000000 
0.048981 0.141013 0.000000 
-0.019524 0.074863 0.000000 
0.119771 0.210232 0.000000 
0.180294 0.212068 0.000000 
0.035205 -0.133187 0.000000 
-0.012684 -0.212132 0.000000 
0.156963 0.019317 0.000000 
0.091820 -0.055473 0.000000 
-0.028651 -0.071518 0.000000 
0.030872 -0.066652 0.000000 
0.032690 0.001402 0.000000 
0.369680 0.226058 0.000000 
0.242254 0.216370 0.000000 
0.305464 0.221479 0.000000 
0.299143 0.158707 0.000000 
0.227284 0.090371 0.000000 
0.099958 0.073469 0.000000 
0.162666 0.080829 0.000000 
0.170706 0.144963 0.000000 
0.033758 -0.267287 0.000000 
0.054853 -0.228583 0.000000 
0.025012 -0.236735 0.000000 
0.113239 -0.207670 0.000000 
0.084358 -0.219134 0.000000 
0.094593 -0.248639 0.000000 
0.069627 -0.157617 0.000000 
0.076027 -0.188680 0.000000 
0.099143 -0.148008 0.000000 
0.227409 -0.148273 0.000000 
0.197917 -0.162859 0.000000 
0.204742 -0.187054 0.000000 
0.189582 -0.112205 0.000000 
0.192967 -0.137904 0.000000 
0.221159 -0.100022 0.000000 
0.151999 -0.220983 0.000000 
0.169284 -0.178197 0.000000 
0.141380 -0.193786 0.000000 
0.187567 -0.003058 0.000000 
0.186624 -0.031262 0.000000 
0.220456 0.004547 0.000000 
0.125339 -0.107681 0.000000 
0.154688 -0.068655 0.000000 
0.123442 -0.078085 0.000000 
0.219127 -0.049086 0.000000 
0.186567 -0.058854 0.000000 
0.187508 -0.085840 0.000000 
0.133950 -0.165608 0.000000 
0.158801 -0.124664 0.000000 
0.128755 -0.136865 0.000000 
0.500000 -0.082374 0.000000 
0.463289 -0.083596 0.000000 
0.463254 -0.101127 0.000000 
0.463387 -0.045886 0.000000 
0.463328 -0.065180 0.000000 
0.500000 -0.044880 0.000000 
0.391271 -0.111617 0.000000 
0.426894 -0.087206 0.000000 
0.391113 -0.093071 0.000000 
0.464085 0.040233 0.000000 
0.463826 0.017323 0.000000 
0.500000 0.040915 0.000000 
0.391114 -0.032785 0.000000 
0.427394 -0.007084 0.000000 
0.391435 -0.011056 0.000000 
0.500000 -0.003818 0.000000 
0.463626 -0.004650 0.000000 
0.463482 -0.025714 0.000000 
0.261350 -0.156807 0.000000 
0.289528 -0.122005 0.000000 
0.257912 -0.134596 0.000000 
0.356190 -0.100991 0.000000 
0.322296 -0.110721 0.000000 
0.323526 -0.130967 0.000000 
0.320757 -0.068368 0.000000 
0.321347 -0.089877 0.000000 
0.355526 -0.060244 0.000000 
0.426982 -0.048848 0.000000 
0.390975 -0.053679 0.000000 
[...]
POINT_DATA 1089

SCALARS u_h float 2
LOOKUP_TABLE default
0.003636 -0.275524 
-0.003636 -0.275524 
0.000000 0.000000 
0.000000 0.000000 
-0.000000 -0.099775 
-0.017195 -0.203400 
0.000000 0.000000 
0.017195 -0.203400 
-0.000000 -0.205384 
-0.017604 -0.171478 
-0.000000 -0.185277 
-0.027835 -0.217591 
0.017604 -0.171478 
0.027835 -0.217591 
0.026582 -0.248418 
-0.000953 -0.214843 
-0.064916 -0.137574 
-0.029175 -0.142319 
0.000000 0.000000 
-0.000000 -0.138538 
0.000000 0.000000 
0.029175 -0.142319 
0.064916 -0.137574 
0.000953 -0.214843 
-0.026582 -0.248418 
-0.000817 -0.236311 
-0.030326 -0.199889 
-0.029910 -0.242532 
-0.000000 -0.149798 
-0.019445 -0.163751 
-0.018249 -0.120329 
-0.009662 -0.210127 
-0.016491 -0.194473 
-0.000000 -0.204583 
0.018249 -0.120329 
0.019445 -0.163751 
0.029910 -0.242532 
0.030326 -0.199889 
0.000817 -0.236311 
0.016491 -0.194473 
0.009662 -0.210127 
0.024195 -0.268441 
0.031135 -0.241857 
-0.006602 -0.217639 
0.016068 -0.234270 
0.009053 -0.226803 
0.015826 -0.223428 
0.000688 -0.207913 
-0.043950 -0.175157 
-0.029893 -0.188820 
-0.045539 -0.078129 
-0.047030 -0.143740 
-0.069020 -0.087535 
-0.017837 -0.188769 
-0.008152 -0.185017 
0.000000 0.000000 
-0.026558 -0.075802 
-0.000000 -0.074329 
-0.012166 -0.074927 
0.000000 0.000000 
-0.013690 -0.139818 
-0.000000 -0.183163 
0.000000 0.000000 
0.012166 -0.074927 
0.045539 -0.078129 
0.026558 -0.075802 
0.000000 0.000000 
0.013690 -0.139818 
0.008152 -0.185017 
0.069020 -0.087535 
0.047030 -0.143740 
0.006602 -0.217639 
0.029893 -0.188820 
0.043950 -0.175157 
0.017837 -0.188769 
-0.000688 -0.207913 
-0.009053 -0.226803 
-0.016068 -0.234270 
-0.031135 -0.241857 
-0.024195 -0.268441 
-0.015826 -0.223428 
0.001707 -0.258711 
-0.019914 -0.240594 
-0.015873 -0.260021 
-0.026304 -0.186980 
-0.024425 -0.214308 
-0.009351 -0.203472 
-0.033044 -0.227367 
-0.031418 -0.221925 
-0.030583 -0.210111 
-0.000000 -0.126573 
-0.010586 -0.130946 
-0.010624 -0.105131 
-0.009727 -0.172376 
-0.010366 -0.153400 
-0.000000 -0.169422 
-0.020786 -0.143222 
-0.019246 -0.143478 
-0.024645 -0.162743 
-0.002891 -0.208381 
-0.005081 -0.206016 
-0.000000 -0.207404 
-0.023058 -0.204898 
-0.013465 -0.204346 
-0.018830 -0.212464 
-0.000000 -0.197102 
-0.007023 -0.198987 
-0.008601 -0.187664 
-0.026274 -0.179775 
-0.018531 -0.180842 
-0.025657 -0.193913 
0.010624 -0.105131 
0.010586 -0.130946 
0.024645 -0.162743 
0.019246 -0.143478 
0.020786 -0.143222 
0.010366 -0.153400 
0.009727 -0.172376 
0.015873 -0.260021 
0.019914 -0.240594 
-0.001707 -0.258711 
0.030583 -0.210111 
0.031418 -0.221925 
0.033044 -0.227367 
0.009351 -0.203472 
0.024425 -0.214308 
0.026304 -0.186980 
0.005081 -0.206016 
0.002891 -0.208381 
0.008601 -0.187664 
0.007023 -0.198987 
0.018830 -0.212464 
0.013465 -0.204346 
0.023058 -0.204898 
0.026274 -0.179775 
0.025657 -0.193913 
0.018531 -0.180842 
0.012684 -0.274632 
0.027295 -0.258187 
0.029810 -0.248598 
0.031628 -0.254152 
0.028651 -0.259018 
0.033180 -0.242973 
0.030537 -0.230683 
-0.011255 -0.213641 
0.001680 -0.224700 
-0.003527 -0.215574 
0.007206 -0.225432 
0.005229 -0.227268 
-0.003200 -0.217458 
0.019524 -0.237637 
0.013519 -0.233987 
0.023298 -0.241873 
0.005320 -0.211442 
0.000506 -0.205667 
0.022716 -0.222129 
0.013357 -0.216293 
0.000280 -0.211268 
0.007036 -0.216021 
0.007746 -0.221130 
0.025042 -0.239031 
0.016794 -0.230037 
0.024834 -0.231671 
-0.030823 -0.190285 
-0.024271 -0.200414 
-0.047751 -0.165337 
-0.036719 -0.184495 
-0.055673 -0.157702 
-0.018551 -0.204988 
-0.013703 -0.205730 
-0.040307 -0.041431 
-0.057326 -0.081669 
-0.056519 -0.054848 
-0.037871 -0.143409 
-0.049908 -0.113688 
-0.039684 -0.112397 
-0.070179 -0.114398 
-0.060444 -0.114815 
-0.056232 -0.142353 
-0.003964 -0.199212 
-0.001901 -0.197523 
-0.009709 -0.204196 
-0.006503 -0.201684 
-0.017815 -0.166687 
-0.012718 -0.186905 
-0.024627 -0.168210 
-0.039772 -0.168595 
-0.031987 -0.169140 
-0.023571 -0.189778 
0.000000 0.000000 
-0.029813 -0.038388 
-0.016657 -0.037814 
-0.022473 -0.037858 
0.000000 0.000000 
-0.035306 -0.076564 
-0.030293 -0.111244 
-0.000000 -0.037624 
-0.003642 -0.037800 
0.000000 0.000000 
-0.006904 -0.108805 
-0.005942 -0.074619 
-0.000000 -0.108442 
0.000000 0.000000 
-0.007507 -0.037845 
-0.011772 -0.037841 
-0.003987 -0.183672 
-0.000000 -0.197005 
-0.021121 -0.141011 
-0.011538 -0.165181 
-0.000000 -0.163625 
-0.005668 -0.164088 
-0.006726 -0.138954 
-0.018946 -0.075309 
-0.014082 -0.109411 
-0.021804 -0.110240 
0.000000 0.000000 
0.003642 -0.037800 
0.011772 -0.037841 
0.007507 -0.037845 
0.000000 0.000000 
0.005942 -0.074619 
0.006904 -0.108805 
0.040307 -0.041431 
0.029813 -0.038388 
0.000000 0.000000 
0.030293 -0.111244 
0.035306 -0.076564 
0.039684 -0.112397 
0.000000 0.000000 
0.022473 -0.037858 
0.016657 -0.037814 
0.003987 -0.183672 
0.001901 -0.197523 
0.006726 -0.138954 
0.005668 -0.164088 
0.017815 -0.166687 
0.011538 -0.165181 
0.021121 -0.141011 
0.018946 -0.075309 
0.021804 -0.110240 
0.014082 -0.109411 
0.056519 -0.054848 
0.057326 -0.081669 
0.056232 -0.142353 
0.060444 -0.114815 
0.070179 -0.114398 
0.049908 -0.113688 
0.037871 -0.143409 
0.011255 -0.213641 
0.024271 -0.200414 
0.030823 -0.190285 
0.013703 -0.205730 
0.018551 -0.204988 
0.003200 -0.217458 
0.055673 -0.157702 
0.036719 -0.184495 
0.047751 -0.165337 
0.003964 -0.199212 
-0.000506 -0.205667 
0.024627 -0.168210 
0.012718 -0.186905 
-0.000280 -0.211268 
0.006503 -0.201684 
0.009709 -0.204196 
0.039772 -0.168595 
0.023571 -0.189778 
0.031987 -0.169140 
0.003527 -0.215574 
-0.001680 -0.224700 
-0.023298 -0.241873 
-0.013519 -0.233987 
-0.019524 -0.237637 
-0.005229 -0.227268 
-0.007206 -0.225432 
-0.027295 -0.258187 
-0.012684 -0.274632 
-0.030537 -0.230683 
-0.033180 -0.242973 
-0.028651 -0.259018 
-0.031628 -0.254152 
-0.029810 -0.248598 
-0.005320 -0.211442 
-0.007746 -0.221130 
-0.007036 -0.216021 
-0.013357 -0.216293 
-0.022716 -0.222129 
-0.025042 -0.239031 
-0.024834 -0.231671 
-0.016794 -0.230037 
0.002508 -0.267287 
-0.007647 -0.259833 
-0.006238 -0.267985 
-0.011761 -0.238920 
-0.009392 -0.250384 
0.000843 -0.248639 
-0.024123 -0.251367 
-0.017723 -0.251180 
-0.025857 -0.241758 
-0.022591 -0.179523 
-0.020833 -0.194109 
-0.014008 -0.187054 
-0.029168 -0.205955 
-0.025783 -0.200404 
-0.028841 -0.193772 
-0.004251 -0.220983 
-0.018216 -0.209447 
-0.014870 -0.225036 
-0.031183 -0.221808 
-0.032126 -0.218762 
-0.029544 -0.214203 
-0.030911 -0.232681 
-0.032812 -0.224905 
-0.032808 -0.234335 
-0.030873 -0.205336 
-0.032183 -0.215104 
-0.031242 -0.210840 
-0.022300 -0.228108 
-0.028699 -0.218414 
-0.027495 -0.230615 
-0.000000 -0.113624 
-0.005461 -0.114846 
-0.005496 -0.101127 
-0.005363 -0.139636 
-0.005422 -0.127680 
-0.000000 -0.138630 
-0.014979 -0.111617 
-0.010606 -0.118456 
-0.015137 -0.124321 
-0.004665 -0.178517 
-0.004924 -0.170177 
-0.000000 -0.177835 
-0.015136 -0.157785 
-0.010106 -0.163334 
-0.014815 -0.167306 
-0.000000 -0.160068 
-0.005124 -0.160900 
-0.005268 -0.150714 
-0.019900 -0.156807 
-0.022972 -0.153255 
-0.023338 -0.165846 
-0.018810 -0.132241 
-0.021454 -0.141971 
-0.020224 -0.130967 
-0.022993 -0.162118 
-0.022403 -0.152377 
-0.019474 -0.153994 
-0.010518 -0.142598 
-0.015275 -0.147429 
-0.015260 -0.136267 
-0.000925 -0.207082 
-0.001492 -0.207618 
-0.000000 -0.206997 
-0.007459 -0.207764 
-0.004011 -0.207806 
-0.005857 -0.209318 
-0.000000 -0.206593 
-0.002044 -0.206890 
-0.002577 -0.204945 
-0.025693 -0.211066 
-0.021124 -0.209127 
-0.023554 -0.214549 
-0.015089 -0.199899 
-0.018286 -0.204185 
-0.019973 -0.199305 
-0.014082 -0.211081 
-0.016310 -0.208124 
-0.011646 -0.207770 
-0.000000 -0.191712 
-0.003974 -0.192259 
-0.004347 -0.185889 
-0.003082 -0.201829 
-0.003550 -0.197586 
-0.000000 -0.201406 
-0.012676 -0.190553 
-0.007864 -0.193841 
-0.011593 -0.196414 
-0.008964 -0.205064 
-0.010349 -0.201265 
-0.006090 -0.203061 
-0.025940 -0.174350 
-0.023184 -0.171142 
-0.025750 -0.171601 
-0.027703 -0.182230 
-0.028665 -0.189437 
-0.009225 -0.180497 
-0.017646 -0.188108 
-0.013582 -0.183724 
-0.014297 -0.175963 
-0.019133 -0.172712 
-0.027335 -0.206784 
-0.028883 -0.195946 
-0.028418 -0.201735 
-0.024584 -0.199815 
-0.021336 -0.193525 
-0.022965 -0.179409 
-0.022342 -0.186881 
-0.026233 -0.187222 
0.005496 -0.101127 
0.005461 -0.114846 
0.015137 -0.124321 
0.010606 -0.118456 
0.014979 -0.111617 
0.005422 -0.127680 
0.005363 -0.139636 
0.023338 -0.165846 
0.022972 -0.153255 
0.019900 -0.156807 
0.019474 -0.153994 
0.022403 -0.152377 
0.022993 -0.162118 
0.020224 -0.130967 
0.021454 -0.141971 
0.018810 -0.132241 
0.004924 -0.170177 
0.004665 -0.178517 
0.005268 -0.150714 
0.005124 -0.160900 
0.014815 -0.167306 
0.010106 -0.163334 
0.015136 -0.157785 
0.015260 -0.136267 
0.015275 -0.147429 
0.010518 -0.142598 
0.006238 -0.267985 
0.007647 -0.259833 
-0.002508 -0.267287 
0.025857 -0.241758 
0.017723 -0.251180 
0.024123 -0.251367 
-0.000843 -0.248639 
0.009392 -0.250384 
0.011761 -0.238920 
0.029544 -0.214203 
0.032126 -0.218762 
0.031183 -0.221808 
0.031242 -0.210840 
0.032183 -0.215104 
0.030873 -0.205336 
0.032808 -0.234335 
0.032812 -0.224905 
0.030911 -0.232681 
0.014008 -0.187054 
0.020833 -0.194109 
0.022591 -0.179523 
0.014870 -0.225036 
0.018216 -0.209447 
0.004251 -0.220983 
0.028841 -0.193772 
0.025783 -0.200404 
0.029168 -0.205955 
0.027495 -0.230615 
0.028699 -0.218414 
0.022300 -0.228108 
0.001492 -0.207618 
0.000925 -0.207082 
0.002577 -0.204945 
0.002044 -0.206890 
0.005857 -0.209318 
0.004011 -0.207806 
0.007459 -0.207764 
0.004347 -0.185889 
0.003974 -0.192259 
0.011593 -0.196414 
0.007864 -0.193841 
0.012676 -0.190553 
0.003550 -0.197586 
0.003082 -0.201829 
0.023554 -0.214549 
0.021124 -0.209127 
0.025693 -0.211066 
0.011646 -0.207770 
0.016310 -0.208124 
0.014082 -0.211081 
0.019973 -0.199305 
0.018286 -0.204185 
0.015089 -0.199899 
0.006090 -0.203061 
0.010349 -0.201265 
0.008964 -0.205064 
0.025940 -0.174350 
0.028665 -0.189437 
0.027703 -0.182230 
0.025750 -0.171601 
0.023184 -0.171142 
0.027335 -0.206784 
0.021336 -0.193525 
0.024584 -0.199815 
0.028418 -0.201735 
0.028883 -0.195946 
0.009225 -0.180497 
0.019133 -0.172712 
0.014297 -0.175963 
0.013582 -0.183724 
0.017646 -0.188108 
0.026233 -0.187222 
0.022342 -0.186881 
0.022965 -0.179409 
0.004829 -0.275791 
0.014280 -0.267617 
0.025856 -0.263933 
0.020927 -0.266215 
0.019270 -0.272098 
0.022481 -0.259431 
0.028652 -0.251075 
0.028451 -0.249538 
0.030109 -0.253633 
0.028344 -0.253778 
0.032277 -0.247774 
0.031400 -0.251534 
0.030702 -0.245935 
0.027313 -0.263983 
0.030346 -0.257476 
0.028977 -0.260960 
0.032246 -0.229300 
0.029454 -0.224223 
0.032292 -0.242940 
0.033370 -0.235565 
0.031090 -0.236667 
0.032750 -0.236352 
0.032741 -0.242618 
0.030311 -0.256395 
0.032575 -0.249253 
0.031422 -0.250360 
-0.014065 -0.209455 
-0.007300 -0.215466 
-0.010281 -0.209642 
-0.002474 -0.221777 
-0.004701 -0.219419 
-0.008768 -0.216282 
0.002957 -0.221269 
-0.000713 -0.221095 
0.005602 -0.226394 
0.002903 -0.220405 
0.002062 -0.221892 
-0.001940 -0.216356 
0.010824 -0.231072 
0.006407 -0.226773 
0.011691 -0.230026 
-0.004749 -0.217956 
0.000895 -0.222768 
-0.000612 -0.222809 
0.023573 -0.243027 
0.021674 -0.240814 
0.025573 -0.245256 
0.011530 -0.231416 
0.016937 -0.236209 
0.014626 -0.232241 
0.020035 -0.238213 
0.018735 -0.238086 
0.015028 -0.234837 
0.003658 -0.226666 
0.009529 -0.231002 
0.007792 -0.229540 
0.001724 -0.207682 
0.000276 -0.205191 
0.007544 -0.211367 
0.004176 -0.209674 
0.000654 -0.206605 
0.002435 -0.208783 
0.003023 -0.210305 
0.025533 -0.220244 
0.020979 -0.217197 
0.014764 -0.219824 
0.018029 -0.218970 
0.019456 -0.223205 
0.016225 -0.214867 
0.011643 -0.213010 
-0.000221 -0.213094 
0.003690 -0.216396 
0.003438 -0.218510 
0.003452 -0.212156 
0.003685 -0.214229 
0.000573 -0.209501 
0.011899 -0.222752 
0.007533 -0.218585 
0.011245 -0.219711 
0.009031 -0.213864 
0.010277 -0.216693 
0.006286 -0.213595 
0.027047 -0.245374 
0.020848 -0.236909 
0.024416 -0.241170 
0.028025 -0.243737 
0.028519 -0.240670 
0.007645 -0.223478 
0.016511 -0.226906 
0.012208 -0.225628 
0.012146 -0.228129 
0.016651 -0.232578 
0.027032 -0.225977 
0.028524 -0.236483 
0.028030 -0.231485 
0.024008 -0.227036 
0.020473 -0.227360 
0.021185 -0.234476 
0.021055 -0.231202 
0.025181 -0.235764 
-0.024015 -0.197078 
-0.020780 -0.203053 
-0.033986 -0.188675 
-0.027449 -0.196151 
-0.037504 -0.182990 
-0.017789 -0.207330 
-0.015063 -0.210140 
-0.056599 -0.151801 
-0.051732 -0.162187 
-0.060684 -0.147993 
-0.033249 -0.187177 
-0.042474 -0.175356 
-0.038744 -0.177783 
-0.050048 -0.166742 
-0.046246 -0.171753 
-0.040289 -0.180562 
-0.008486 -0.212092 
-0.006808 -0.211295 
-0.012605 -0.211721 
-0.010415 -0.212301 
-0.021466 -0.198198 
-0.016018 -0.205735 
-0.024347 -0.197377 
-0.030614 -0.192826 
-0.027398 -0.195655 
-0.021303 -0.203286 
-0.029332 -0.022209 
-0.048066 -0.046422 
-0.042651 -0.033632 
-0.051282 -0.079575 
-0.051239 -0.062532 
-0.044907 -0.059958 
-0.064700 -0.072218 
-0.058065 -0.066616 
-0.063388 -0.084409 
-0.033448 -0.142919 
-0.039406 -0.128558 
-0.034736 -0.127995 
-0.049162 -0.129396 
-0.044232 -0.129047 
-0.042413 -0.143716 
-0.043505 -0.095700 
-0.044711 -0.113031 
-0.048869 -0.096585 
-0.068166 -0.126395 
-0.063735 -0.128280 
-0.060673 -0.140527 
-0.065570 -0.100404 
-0.065497 -0.114955 
-0.070618 -0.101494 
-0.051660 -0.143346 
-0.059017 -0.129209 
-0.054123 -0.129503 
-0.054443 -0.097704 
-0.055194 -0.114322 
-0.060084 -0.099028 
-0.000740 -0.202296 
-0.000393 -0.201876 
-0.001676 -0.204232 
-0.001155 -0.203105 
-0.004521 -0.191957 
-0.002888 -0.198235 
-0.006136 -0.192816 
-0.005370 -0.210091 
-0.004157 -0.208646 
-0.011721 -0.196086 
-0.008014 -0.202992 
-0.013893 -0.197104 
-0.003152 -0.207104 
-0.002333 -0.205596 
-0.023420 -0.155244 
-0.021150 -0.167479 
-0.027248 -0.155933 
-0.010373 -0.185922 
-0.015444 -0.177483 
-0.012647 -0.176610 
-0.021450 -0.179149 
-0.018376 -0.178357 
-0.015202 -0.187885 
-0.005160 -0.200390 
-0.009714 -0.194963 
-0.007858 -0.193843 
-0.052398 -0.154363 
-0.043819 -0.156783 
-0.048122 -0.155948 
-0.043753 -0.167399 
-0.035078 -0.179250 
-0.031223 -0.156522 
-0.024667 -0.179759 
-0.028243 -0.168797 
-0.035328 -0.156931 
-0.039539 -0.157059 
-0.011602 -0.205159 
-0.026662 -0.189626 
-0.018763 -0.198311 
-0.016239 -0.197893 
-0.020627 -0.189443 
-0.035839 -0.169120 
-0.028019 -0.180072 
-0.031496 -0.179954 
0.000000 0.000000 
-0.023355 -0.019495 
-0.016740 -0.018511 
-0.019573 -0.018726 
0.000000 0.000000 
-0.034469 -0.039295 
-0.039349 -0.058546 
-0.009172 -0.018694 
-0.010727 -0.018617 
0.000000 0.000000 
-0.026083 -0.057128 
-0.019422 -0.037814 
-0.022439 -0.056972 
0.000000 0.000000 
-0.012461 -0.018542 
-0.014432 -0.018490 
-0.034873 -0.111802 
-0.030248 -0.127399 
-0.040216 -0.077186 
-0.038419 -0.095007 
-0.029123 -0.093981 
-0.033629 -0.094450 
-0.030769 -0.076130 
-0.025892 -0.038006 
-0.030061 -0.057371 
-0.034448 -0.057788 
-0.000000 -0.018826 
-0.000972 -0.018896 
0.000000 0.000000 
-0.002466 -0.056337 
-0.001804 -0.037741 
-0.000000 -0.056198 
0.000000 0.000000 
-0.001975 -0.018918 
-0.003013 -0.018916 
-0.003456 -0.124215 
-0.003437 -0.108594 
-0.000000 -0.124065 
-0.009002 -0.074766 
-0.006581 -0.092138 
-0.009959 -0.092349 
-0.000000 -0.091808 
-0.003274 -0.091960 
-0.002954 -0.074478 
0.000000 0.000000 
-0.006451 -0.018820 
-0.007755 -0.018763 
-0.004096 -0.018897 
-0.005237 -0.018865 
0.000000 0.000000 
-0.012985 -0.056681 
-0.009577 -0.037848 
-0.010197 -0.056602 
-0.004967 -0.056438 
-0.007534 -0.056522 
-0.005536 -0.037831 
-0.000956 -0.197111 
-0.000000 -0.201844 
-0.006033 -0.184252 
-0.002984 -0.191316 
-0.000000 -0.190791 
-0.001489 -0.190923 
-0.001986 -0.183304 
-0.025065 -0.141669 
-0.019741 -0.154520 
-0.012799 -0.153170 
-0.016205 -0.153814 
-0.017335 -0.140385 
-0.014616 -0.165902 
-0.009970 -0.175804 
-0.000000 -0.151752 
-0.003133 -0.151898 
-0.003350 -0.138686 
-0.002436 -0.174249 
-0.002823 -0.163770 
-0.000000 -0.174106 
-0.010162 -0.139336 
-0.006290 -0.152191 
-0.009503 -0.152621 
-0.007393 -0.175118 
-0.008564 -0.164565 
-0.004890 -0.174591 
-0.014121 -0.037827 
-0.015470 -0.075107 
-0.015932 -0.056765 
-0.019070 -0.056858 
-0.022630 -0.075537 
-0.006942 -0.124456 
-0.014141 -0.125197 
-0.010492 -0.124786 
-0.010441 -0.109078 
-0.013445 -0.092598 
-0.025954 -0.126800 
-0.024881 -0.093572 
-0.025942 -0.110723 
-0.021848 -0.126220 
-0.017917 -0.125680 
-0.017072 -0.092884 
-0.017860 -0.109801 
-0.020873 -0.093209 
0.000000 0.000000 
0.000972 -0.018896 
0.003013 -0.018916 
0.001975 -0.018918 
0.000000 0.000000 
0.001804 -0.037741 
0.002466 -0.056337 
0.007755 -0.018763 
0.006451 -0.018820 
0.000000 0.000000 
0.010197 -0.056602 
0.009577 -0.037848 
0.012985 -0.056681 
0.000000 0.000000 
0.005237 -0.018865 
0.004096 -0.018897 
0.003437 -0.108594 
0.003456 -0.124215 
0.002954 -0.074478 
0.003274 -0.091960 
0.009959 -0.092349 
0.006581 -0.092138 
0.009002 -0.074766 
0.005536 -0.037831 
0.007534 -0.056522 
0.004967 -0.056438 
0.029332 -0.022209 
0.023355 -0.019495 
0.000000 0.000000 
0.039349 -0.058546 
0.034469 -0.039295 
0.044907 -0.059958 
0.000000 0.000000 
0.019573 -0.018726 
0.016740 -0.018511 
0.030248 -0.127399 
0.034873 -0.111802 
0.034736 -0.127995 
0.030769 -0.076130 
0.033629 -0.094450 
0.029123 -0.093981 
0.043505 -0.095700 
0.038419 -0.095007 
0.040216 -0.077186 
0.000000 0.000000 
0.010727 -0.018617 
0.009172 -0.018694 
0.014432 -0.018490 
0.012461 -0.018542 
0.000000 0.000000 
0.022439 -0.056972 
0.019422 -0.037814 
0.026083 -0.057128 
0.034448 -0.057788 
0.030061 -0.057371 
0.025892 -0.038006 
0.000956 -0.197111 
0.000393 -0.201876 
0.001986 -0.183304 
0.001489 -0.190923 
0.004521 -0.191957 
0.002984 -0.191316 
0.006033 -0.184252 
0.003350 -0.138686 
0.003133 -0.151898 
0.009503 -0.152621 
0.006290 -0.152191 
0.010162 -0.139336 
0.002823 -0.163770 
0.002436 -0.174249 
0.023420 -0.155244 
0.019741 -0.154520 
0.025065 -0.141669 
0.009970 -0.175804 
0.014616 -0.165902 
0.012647 -0.176610 
0.017335 -0.140385 
0.016205 -0.153814 
0.012799 -0.153170 
0.004890 -0.174591 
0.008564 -0.164565 
0.007393 -0.175118 
0.014121 -0.037827 
0.022630 -0.075537 
0.019070 -0.056858 
0.015932 -0.056765 
0.015470 -0.075107 
0.025954 -0.126800 
0.017917 -0.125680 
0.021848 -0.126220 
0.025942 -0.110723 
0.024881 -0.093572 
0.006942 -0.124456 
0.013445 -0.092598 
0.010441 -0.109078 
0.010492 -0.124786 
0.014141 -0.125197 
0.020873 -0.093209 
0.017860 -0.109801 
0.017072 -0.092884 
0.042651 -0.033632 
0.048066 -0.046422 
0.063388 -0.084409 
0.058065 -0.066616 
0.064700 -0.072218 
0.051239 -0.062532 
0.051282 -0.079575 
0.060673 -0.140527 
0.063735 -0.128280 
0.068166 -0.126395 
0.054123 -0.129503 
0.059017 -0.129209 
0.051660 -0.143346 
0.070618 -0.101494 
0.065497 -0.114955 
0.065570 -0.100404 
0.039406 -0.128558 
0.033448 -0.142919 
0.048869 -0.096585 
0.044711 -0.113031 
0.042413 -0.143716 
0.044232 -0.129047 
0.049162 -0.129396 
0.060084 -0.099028 
0.055194 -0.114322 
0.054443 -0.097704 
0.014065 -0.209455 
0.020780 -0.203053 
0.024015 -0.197078 
0.015063 -0.210140 
0.017789 -0.207330 
0.008768 -0.216282 
0.037504 -0.182990 
0.027449 -0.196151 
0.033986 -0.188675 
0.006808 -0.211295 
0.008486 -0.212092 
0.001940 -0.216356 
0.024347 -0.197377 
0.016018 -0.205735 
0.021466 -0.198198 
0.004749 -0.217956 
0.010415 -0.212301 
0.012605 -0.211721 
0.060684 -0.147993 
0.051732 -0.162187 
0.056599 -0.151801 
0.040289 -0.180562 
0.046246 -0.171753 
0.050048 -0.166742 
0.038744 -0.177783 
0.042474 -0.175356 
0.033249 -0.187177 
0.021303 -0.203286 
0.027398 -0.195655 
0.030614 -0.192826 
0.000740 -0.202296 
-0.000276 -0.205191 
0.006136 -0.192816 
0.002888 -0.198235 
-0.000654 -0.206605 
0.001155 -0.203105 
0.001676 -0.204232 
0.027248 -0.155933 
0.021150 -0.167479 
0.015202 -0.187885 
0.018376 -0.178357 
0.021450 -0.179149 
0.015444 -0.177483 
0.010373 -0.185922 
0.000221 -0.213094 
0.004157 -0.208646 
0.005370 -0.210091 
0.002333 -0.205596 
0.003152 -0.207104 
-0.000573 -0.209501 
0.013893 -0.197104 
0.008014 -0.202992 