# vtk DataFile Version 2.0
Unstructured Grid Example
ASCII
DATASET UNSTRUCTURED_GRID

POINTS 64 float
0.000000 0.000000 0.000000 
0.031250 0.000000 0.000000 
0.031250 0.000000 0.000000 
0.062500 0.000000 0.000000 
0.062500 0.000000 0.000000 
0.093750 0.000000 0.000000 
0.093750 0.000000 0.000000 
0.125000 0.000000 0.000000 
0.187500 0.000000 0.000000 
0.218750 0.000000 0.000000 
0.218750 0.000000 0.000000 
0.250000 0.000000 0.000000 
0.125000 0.000000 0.000000 
0.156250 0.000000 0.000000 
0.156250 0.000000 0.000000 
0.187500 0.000000 0.000000 
0.437500 -6.355684 0.000000 
0.468750 -6.081030 0.000000 
0.468750 -6.194688 0.000000 
0.500000 -6.128369 0.000000 
0.375000 -7.150274 0.000000 
0.406250 -6.111112 0.000000 
0.406250 -6.650866 0.000000 
0.437500 -6.070767 0.000000 
0.250000 18.941583 0.000000 
0.281250 -37.883167 0.000000 
0.281250 -28.765792 0.000000 
0.312500 0.706834 0.000000 
0.312500 -10.762182 0.000000 
0.343750 -5.827760 0.000000 
0.343750 -8.141248 0.000000 
0.375000 -6.135206 0.000000 
0.500000 -6.128369 0.000000 
0.531250 -6.194688 0.000000 
0.531250 -6.081030 0.000000 
0.562500 -6.355684 0.000000 
0.562500 -6.070767 0.000000 
0.593750 -6.650866 0.000000 
0.593750 -6.111112 0.000000 
0.625000 -7.150274 0.000000 
0.687500 0.706834 0.000000 
0.718750 -28.765792 0.000000 
0.718750 -37.883167 0.000000 
0.750000 18.941583 0.000000 
0.625000 -6.135206 0.000000 
0.656250 -8.141248 0.000000 
0.656250 -5.827760 0.000000 
0.687500 -10.762182 0.000000 
0.937500 0.000000 0.000000 
0.968750 0.000000 0.000000 
0.968750 0.000000 0.000000 
1.000000 0.000000 0.000000 
0.875000 0.000000 0.000000 
0.906250 0.000000 0.000000 
0.906250 0.000000 0.000000 
0.937500 0.000000 0.000000 
0.750000 0.000000 0.000000 
0.781250 0.000000 0.000000 
0.781250 0.000000 0.000000 
0.812500 0.000000 0.000000 
0.812500 0.000000 0.000000 
0.843750 0.000000 0.000000 
0.843750 0.000000 0.000000 
0.875000 0.000000 0.000000 

CELLS 32 96
2  0 1 
2  2 3 
2  4 5 
2  6 7 
2  8 9 
2  10 11 
2  12 13 
2  14 15 
2  16 17 
2  18 19 
2  20 21 
2  22 23 
2  24 25 
2  26 27 
2  28 29 
2  30 31 
2  32 33 
2  34 35 
2  36 37 
2  38 39 
2  40 41 
2  42 43 
2  44 45 
2  46 47 
2  48 49 
2  50 51 
2  52 53 
2  54 55 
2  56 57 
2  58 59 
2  60 61 
2  62 63 

CELL_TYPES 32
3
3
3
3
3
3
3
3
3
3
3
3
3
3
3
3
3
3
3
3
3
3
3
3
3
3
3
3
3
3
3
3

POINT_DATA 64

SCALARS lambda_h float 1
LOOKUP_TABLE default
0.000000 
0.000000 
0.000000 
0.000000 
0.000000 
0.000000 
0.000000 
0.000000 
0.000000 
0.000000 
0.000000 
0.000000 
0.000000 
0.000000 
0.000000 
0.000000 
-6.355684 
-6.081030 
-6.194688 
-6.128369 
-7.150274 
-6.111112 
-6.650866 
-6.070767 
18.941583 
-37.883167 
-28.765792 
0.706834 
-10.762182 
-5.827760 
-8.141248 
-6.135206 
-6.128369 
-6.194688 
-6.081030 
-6.355684 
-6.070767 
-6.650866 
-6.111112 
-7.150274 
0.706834 
-28.765792 
-37.883167 
18.941583 
-6.135206 
-8.141248 
-5.827760 
-10.762182 
0.000000 
0.000000 
0.000000 
0.000000 
0.000000 
0.000000 
0.000000 
0.000000 
0.000000 
0.000000 
0.000000 
0.000000 
0.000000 
0.000000 
0.000000 
0.000000 

