# vtk DataFile Version 2.0
Unstructured Grid Example
ASCII
DATASET UNSTRUCTURED_GRID

POINTS 128 float
0.000000 0.000000 0.000000 
0.015625 0.000000 0.000000 
0.015625 0.000000 0.000000 
0.031250 0.000000 0.000000 
0.031250 0.000000 0.000000 
0.046875 0.000000 0.000000 
0.046875 0.000000 0.000000 
0.062500 0.000000 0.000000 
0.093750 0.000000 0.000000 
0.109375 0.000000 0.000000 
0.109375 0.000000 0.000000 
0.125000 0.000000 0.000000 
0.062500 0.000000 0.000000 
0.078125 0.000000 0.000000 
0.078125 0.000000 0.000000 
0.093750 0.000000 0.000000 
0.218750 0.000000 0.000000 
0.234375 0.000000 0.000000 
0.234375 0.000000 0.000000 
0.250000 0.000000 0.000000 
0.187500 0.000000 0.000000 
0.203125 0.000000 0.000000 
0.203125 0.000000 0.000000 
0.218750 0.000000 0.000000 
0.125000 0.000000 0.000000 
0.140625 0.000000 0.000000 
0.140625 0.000000 0.000000 
0.156250 0.000000 0.000000 
0.156250 0.000000 0.000000 
0.171875 0.000000 0.000000 
0.171875 0.000000 0.000000 
0.187500 0.000000 0.000000 
0.468750 -6.118945 0.000000 
0.484375 -6.069223 0.000000 
0.484375 -6.109463 0.000000 
0.500000 -6.038466 0.000000 
0.437500 -6.246726 0.000000 
0.453125 -6.083682 0.000000 
0.453125 -6.173689 0.000000 
0.468750 -6.066712 0.000000 
0.375000 -6.844045 0.000000 
0.390625 -6.326955 0.000000 
0.390625 -6.630813 0.000000 
0.406250 -6.236329 0.000000 
0.406250 -6.468031 0.000000 
0.421875 -6.167409 0.000000 
0.421875 -6.342854 0.000000 
0.437500 -6.117140 0.000000 
0.250000 26.092667 0.000000 
0.265625 -52.185334 0.000000 
0.265625 -40.240375 0.000000 
0.281250 2.202750 0.000000 
0.281250 -14.476274 0.000000 
0.296875 -6.882326 0.000000 
0.296875 -10.535172 0.000000 
0.312500 -7.170582 0.000000 
0.343750 -7.516447 0.000000 
0.359375 -6.591473 0.000000 
0.359375 -7.127914 0.000000 
0.375000 -6.443565 0.000000 
0.312500 -8.943287 0.000000 
0.328125 -6.989762 0.000000 
0.328125 -8.073752 0.000000 
0.343750 -6.775308 0.000000 
0.500000 -6.038466 0.000000 
0.515625 -6.109463 0.000000 
0.515625 -6.069223 0.000000 
0.531250 -6.118945 0.000000 
0.531250 -6.066712 0.000000 
0.546875 -6.173689 0.000000 
0.546875 -6.083682 0.000000 
0.562500 -6.246726 0.000000 
0.593750 -6.236329 0.000000 
0.609375 -6.630813 0.000000 
0.609375 -6.326955 0.000000 
0.625000 -6.844045 0.000000 
0.562500 -6.117140 0.000000 
0.578125 -6.342854 0.000000 
0.578125 -6.167409 0.000000 
0.593750 -6.468031 0.000000 
0.718750 2.202750 0.000000 
0.734375 -40.240375 0.000000 
0.734375 -52.185334 0.000000 
0.750000 26.092667 0.000000 
0.687500 -7.170582 0.000000 
0.703125 -10.535172 0.000000 
0.703125 -6.882326 0.000000 
0.718750 -14.476274 0.000000 
0.625000 -6.443565 0.000000 
0.640625 -7.127914 0.000000 
0.640625 -6.591473 0.000000 
0.656250 -7.516447 0.000000 
0.656250 -6.775308 0.000000 
0.671875 -8.073752 0.000000 
0.671875 -6.989762 0.000000 
0.687500 -8.943287 0.000000 
0.968750 0.000000 0.000000 
0.984375 0.000000 0.000000 
0.984375 0.000000 0.000000 
1.000000 0.000000 0.000000 
0.937500 0.000000 0.000000 
0.953125 0.000000 0.000000 
0.953125 0.000000 0.000000 
0.968750 0.000000 0.000000 
0.875000 0.000000 0.000000 
0.890625 0.000000 0.000000 
0.890625 0.000000 0.000000 
0.906250 0.000000 0.000000 
0.906250 0.000000 0.000000 
0.921875 0.000000 0.000000 
0.921875 0.000000 0.000000 
0.937500 0.000000 0.000000 
0.750000 0.000000 0.000000 
0.765625 0.000000 0.000000 
0.765625 0.000000 0.000000 
0.781250 0.000000 0.000000 
0.781250 0.000000 0.000000 
0.796875 0.000000 0.000000 
0.796875 0.000000 0.000000 
0.812500 0.000000 0.000000 
0.843750 0.000000 0.000000 
0.859375 0.000000 0.000000 
0.859375 0.000000 0.000000 
0.875000 0.000000 0.000000 
0.812500 0.000000 0.000000 
0.828125 0.000000 0.000000 
0.828125 0.000000 0.000000 
0.843750 0.000000 0.000000 

CELLS 64 192
2  0 1 
2  2 3 
2  4 5 
2  6 7 
2  8 9 
2  10 11 
2  12 13 
2  14 15 
2  16 17 
2  18 19 
2  20 21 
2  22 23 
2  24 25 
2  26 27 
2  28 29 
2  30 31 
2  32 33 
2  34 35 
2  36 37 
2  38 39 
2  40 41 
2  42 43 
2  44 45 
2  46 47 
2  48 49 
2  50 51 
2  52 53 
2  54 55 
2  56 57 
2  58 59 
2  60 61 
2  62 63 
2  64 65 
2  66 67 
2  68 69 
2  70 71 
2  72 73 
2  74 75 
2  76 77 
2  78 79 
2  80 81 
2  82 83 
2  84 85 
2  86 87 
2  88 89 
2  90 91 
2  92 93 
2  94 95 
2  96 97 
2  98 99 
2  100 101 
2  102 103 
2  104 105 
2  106 107 
2  108 109 
2  110 111 
2  112 113 
2  114 115 
2  116 117 
2  118 119 
2  120 121 
2  122 123 
2  124 125 
2  126 127 

CELL_TYPES 64
3
3
3
3
3
3
3
3
3
3
3
3
3
3
3
3
3
3
3
3
3
3
3
3
3
3
3
3
3
3
3
3
3
3
3
3
3
3
3
3
3
3
3
3
3
3
3
3
3
3
3
3
3
3
3
3
3
3
3
3
3
3
3
3

POINT_DATA 128

SCALARS lambda_h float 1
LOOKUP_TABLE default
0.000000 
0.000000 
0.000000 
0.000000 
0.000000 
0.000000 
0.000000 
0.000000 
0.000000 
0.000000 
0.000000 
0.000000 
0.000000 
0.000000 
0.000000 
0.000000 
0.000000 
0.000000 
0.000000 
0.000000 
0.000000 
0.000000 
0.000000 
0.000000 
0.000000 
0.000000 
0.000000 
0.000000 
0.000000 
0.000000 
0.000000 
0.000000 
-6.118945 
-6.069223 
-6.109463 
-6.038466 
-6.246726 
-6.083682 
-6.173689 
-6.066712 
-6.844045 
-6.326955 
-6.630813 
-6.236329 
-6.468031 
-6.167409 
-6.342854 
-6.117140 
26.092667 
-52.185334 
-40.240375 
2.202750 
-14.476274 
-6.882326 
-10.535172 
-7.170582 
-7.516447 
-6.591473 
-7.127914 
-6.443565 
-8.943287 
-6.989762 
-8.073752 
-6.775308 
-6.038466 
-6.109463 
-6.069223 
-6.118945 
-6.066712 
-6.173689 
-6.083682 
-6.246726 
-6.236329 
-6.630813 
-6.326955 
-6.844045 
-6.117140 
-6.342854 
-6.167409 
-6.468031 
2.202750 
-40.240375 
-52.185334 
26.092667 
-7.170582 
-10.535172 
-6.882326 
-14.476274 
-6.443565 
-7.127914 
-6.591473 
-7.516447 
-6.775308 
-8.073752 
-6.989762 
-8.943287 
0.000000 
0.000000 
0.000000 
0.000000 
0.000000 
0.000000 
0.000000 
0.000000 
0.000000 
0.000000 
0.000000 
0.000000 
0.000000 
0.000000 
0.000000 
0.000000 
0.000000 
0.000000 
0.000000 
0.000000 
0.000000 
0.000000 
0.000000 
0.000000 
0.000000 
0.000000 
0.000000 
0.000000 
0.000000 
0.000000 
0.000000 
0.000000 

