# vtk DataFile Version 2.0
Unstructured Grid Example
ASCII
DATASET UNSTRUCTURED_GRID

POINTS 256 float
0.000000 0.000000 0.000000 
0.007812 0.000000 0.000000 
0.007812 0.000000 0.000000 
0.015625 0.000000 0.000000 
0.015625 0.000000 0.000000 
0.023438 0.000000 0.000000 
0.023438 0.000000 0.000000 
0.031250 0.000000 0.000000 
0.046875 0.000000 0.000000 
0.054688 0.000000 0.000000 
0.054688 0.000000 0.000000 
0.062500 0.000000 0.000000 
0.031250 0.000000 0.000000 
0.039062 0.000000 0.000000 
0.039062 0.000000 0.000000 
0.046875 0.000000 0.000000 
0.109375 0.000000 0.000000 
0.117188 0.000000 0.000000 
0.117188 0.000000 0.000000 
0.125000 0.000000 0.000000 
0.093750 0.000000 0.000000 
0.101562 0.000000 0.000000 
0.101562 0.000000 0.000000 
0.109375 0.000000 0.000000 
0.062500 0.000000 0.000000 
0.070312 0.000000 0.000000 
0.070312 0.000000 0.000000 
0.078125 0.000000 0.000000 
0.078125 0.000000 0.000000 
0.085938 0.000000 0.000000 
0.085938 0.000000 0.000000 
0.093750 0.000000 0.000000 
0.234375 0.000000 0.000000 
0.242188 0.000000 0.000000 
0.242188 0.000000 0.000000 
0.250000 0.000000 0.000000 
0.218750 0.000000 0.000000 
0.226562 0.000000 0.000000 
0.226562 0.000000 0.000000 
0.234375 0.000000 0.000000 
0.187500 0.000000 0.000000 
0.195312 0.000000 0.000000 
0.195312 0.000000 0.000000 
0.203125 0.000000 0.000000 
0.203125 0.000000 0.000000 
0.210938 0.000000 0.000000 
0.210938 0.000000 0.000000 
0.218750 0.000000 0.000000 
0.125000 0.000000 0.000000 
0.132812 0.000000 0.000000 
0.132812 0.000000 0.000000 
0.140625 0.000000 0.000000 
0.140625 0.000000 0.000000 
0.148438 0.000000 0.000000 
0.148438 0.000000 0.000000 
0.156250 0.000000 0.000000 
0.171875 0.000000 0.000000 
0.179688 0.000000 0.000000 
0.179688 0.000000 0.000000 
0.187500 0.000000 0.000000 
0.156250 0.000000 0.000000 
0.164062 0.000000 0.000000 
0.164062 0.000000 0.000000 
0.171875 0.000000 0.000000 
0.484375 -6.047468 0.000000 
0.492188 -6.037348 0.000000 
0.492188 -6.056258 0.000000 
0.500000 -6.009648 0.000000 
0.468750 -6.074694 0.000000 
0.476562 -6.040237 0.000000 
0.476562 -6.059350 0.000000 
0.484375 -6.036467 0.000000 
0.437500 -6.176807 0.000000 
0.445312 -6.093354 0.000000 
0.445312 -6.144568 0.000000 
0.453125 -6.074380 0.000000 
0.453125 -6.117029 0.000000 
0.460938 -6.059268 0.000000 
0.460938 -6.093835 0.000000 
0.468750 -6.047895 0.000000 
0.375000 -6.683171 0.000000 
0.382812 -6.424883 0.000000 
0.382812 -6.586043 0.000000 
0.390625 -6.360852 0.000000 
0.390625 -6.501481 0.000000 
0.398438 -6.304786 0.000000 
0.398438 -6.427652 0.000000 
0.406250 -6.255747 0.000000 
0.421875 -6.257235 0.000000 
0.429688 -6.143763 0.000000 
0.429688 -6.214185 0.000000 
0.437500 -6.116392 0.000000 
0.406250 -6.363090 0.000000 
0.414062 -6.212968 0.000000 
0.414062 -6.306606 0.000000 
0.421875 -6.175813 0.000000 
0.250000 36.397077 0.000000 
0.257812 -72.794154 0.000000 
0.257812 -56.585508 0.000000 
0.265625 3.979785 0.000000 
0.265625 -19.935588 0.000000 
0.273438 -8.754762 0.000000 
0.273438 -14.192520 0.000000 
0.281250 -9.060073 0.000000 
0.296875 -9.556049 0.000000 
0.304688 -7.972745 0.000000 
0.304688 -8.909016 0.000000 
0.312500 -7.683508 0.000000 
0.281250 -11.801853 0.000000 
0.289062 -8.708960 0.000000 
0.289062 -10.451567 0.000000 
0.296875 -8.316639 0.000000 
0.359375 -6.925007 0.000000 
0.367188 -6.581684 0.000000 
0.367188 -6.795175 0.000000 
0.375000 -6.498025 0.000000 
0.343750 -7.254679 0.000000 
0.351562 -6.787956 0.000000 
0.351562 -7.076494 0.000000 
0.359375 -6.677602 0.000000 
0.312500 -8.417437 0.000000 
0.320312 -7.441159 0.000000 
0.320312 -8.031388 0.000000 
0.328125 -7.236979 0.000000 
0.328125 -7.720839 0.000000 
0.335938 -7.063669 0.000000 
0.335938 -7.466347 0.000000 
0.343750 -6.915483 0.000000 
0.500000 -6.009648 0.000000 
0.507812 -6.056258 0.000000 
0.507812 -6.037348 0.000000 
0.515625 -6.047468 0.000000 
0.515625 -6.036467 0.000000 
0.523438 -6.059350 0.000000 
0.523438 -6.040237 0.000000 
0.531250 -6.074694 0.000000 
0.546875 -6.074380 0.000000 
0.554688 -6.144568 0.000000 
0.554688 -6.093354 0.000000 
0.562500 -6.176807 0.000000 
0.531250 -6.047895 0.000000 
0.539062 -6.093835 0.000000 
0.539062 -6.059268 0.000000 
0.546875 -6.117029 0.000000 
0.609375 -6.360852 0.000000 
0.617188 -6.586043 0.000000 
0.617188 -6.424883 0.000000 
0.625000 -6.683171 0.000000 
0.593750 -6.255747 0.000000 
0.601562 -6.427652 0.000000 
0.601562 -6.304786 0.000000 
0.609375 -6.501481 0.000000 
0.562500 -6.116392 0.000000 
0.570312 -6.214185 0.000000 
0.570312 -6.143763 0.000000 
0.578125 -6.257235 0.000000 
0.578125 -6.175813 0.000000 
0.585938 -6.306606 0.000000 
0.585938 -6.212968 0.000000 
0.593750 -6.363090 0.000000 
0.734375 3.979785 0.000000 
0.742188 -56.585508 0.000000 
0.742188 -72.794154 0.000000 
0.750000 36.397077 0.000000 
0.718750 -9.060073 0.000000 
0.726562 -14.192520 0.000000 
0.726562 -8.754762 0.000000 
0.734375 -19.935588 0.000000 
0.687500 -7.683508 0.000000 
0.695312 -8.909016 0.000000 
0.695312 -7.972745 0.000000 
0.703125 -9.556049 0.000000 
0.703125 -8.316639 0.000000 
0.710938 -10.451567 0.000000 
0.710938 -8.708960 0.000000 
0.718750 -11.801853 0.000000 
0.625000 -6.498025 0.000000 
0.632812 -6.795175 0.000000 
0.632812 -6.581684 0.000000 
0.640625 -6.925007 0.000000 
0.640625 -6.677602 0.000000 
0.648438 -7.076494 0.000000 
0.648438 -6.787956 0.000000 
0.656250 -7.254679 0.000000 
0.671875 -7.236979 0.000000 
0.679688 -8.031388 0.000000 
0.679688 -7.441159 0.000000 
0.687500 -8.417437 0.000000 
0.656250 -6.915483 0.000000 
0.664062 -7.466347 0.000000 
0.664062 -7.063669 0.000000 
0.671875 -7.720839 0.000000 
0.984375 0.000000 0.000000 
0.992188 0.000000 0.000000 
0.992188 0.000000 0.000000 
1.000000 0.000000 0.000000 
0.968750 0.000000 0.000000 
0.976562 0.000000 0.000000 
0.976562 0.000000 0.000000 
0.984375 0.000000 0.000000 
0.937500 0.000000 0.000000 
0.945312 0.000000 0.000000 
0.945312 0.000000 0.000000 
0.953125 0.000000 0.000000 
0.953125 0.000000 0.000000 
0.960938 0.000000 0.000000 
0.960938 0.000000 0.000000 
0.968750 0.000000 0.000000 
0.875000 0.000000 0.000000 
0.882812 0.000000 0.000000 
0.882812 0.000000 0.000000 
0.890625 0.000000 0.000000 
0.890625 0.000000 0.000000 
0.898438 0.000000 0.000000 
0.898438 0.000000 0.000000 
0.906250 0.000000 0.000000 
0.921875 0.000000 0.000000 
0.929688 0.000000 0.000000 
0.929688 0.000000 0.000000 
0.937500 0.000000 0.000000 
0.906250 0.000000 0.000000 
0.914062 0.000000 0.000000 
0.914062 0.000000 0.000000 
0.921875 0.000000 0.000000 
0.750000 0.000000 0.000000 
0.757812 0.000000 0.000000 
0.757812 0.000000 0.000000 
0.765625 0.000000 0.000000 
0.765625 0.000000 0.000000 
0.773438 0.000000 0.000000 
0.773438 0.000000 0.000000 
0.781250 0.000000 0.000000 
0.796875 0.000000 0.000000 
0.804688 0.000000 0.000000 
0.804688 0.000000 0.000000 
0.812500 0.000000 0.000000 
0.781250 0.000000 0.000000 
0.789062 0.000000 0.000000 
0.789062 0.000000 0.000000 
0.796875 0.000000 0.000000 
0.859375 0.000000 0.000000 
0.867188 0.000000 0.000000 
0.867188 0.000000 0.000000 
0.875000 0.000000 0.000000 
0.843750 0.000000 0.000000 
0.851562 0.000000 0.000000 
0.851562 0.000000 0.000000 
0.859375 0.000000 0.000000 
0.812500 0.000000 0.000000 
0.820312 0.000000 0.000000 
0.820312 0.000000 0.000000 
0.828125 0.000000 0.000000 
0.828125 0.000000 0.000000 
0.835938 0.000000 0.000000 
0.835938 0.000000 0.000000 
0.843750 0.000000 0.000000 

CELLS 128 384
2  0 1 
2  2 3 
2  4 5 
2  6 7 
2  8 9 
2  10 11 
2  12 13 
2  14 15 
2  16 17 
2  18 19 
2  20 21 
2  22 23 
2  24 25 
2  26 27 
2  28 29 
2  30 31 
2  32 33 
2  34 35 
2  36 37 
2  38 39 
2  40 41 
2  42 43 
2  44 45 
2  46 47 
2  48 49 
2  50 51 
2  52 53 
2  54 55 
2  56 57 
2  58 59 
2  60 61 
2  62 63 
2  64 65 
2  66 67 
2  68 69 
2  70 71 
2  72 73 
2  74 75 
2  76 77 
2  78 79 
2  80 81 
2  82 83 
2  84 85 
2  86 87 
2  88 89 
2  90 91 
2  92 93 
2  94 95 
2  96 97 
2  98 99 
2  100 101 
2  102 103 
2  104 105 
2  106 107 
2  108 109 
2  110 111 
2  112 113 
2  114 115 
2  116 117 
2  118 119 
2  120 121 
2  122 123 
2  124 125 
2  126 127 
2  128 129 
2  130 131 
2  132 133 
2  134 135 
2  136 137 
2  138 139 
2  140 141 
2  142 143 
2  144 145 
2  146 147 
2  148 149 
2  150 151 
2  152 153 
2  154 155 
2  156 157 
2  158 159 
2  160 161 
2  162 163 
2  164 165 
2  166 167 
2  168 169 
2  170 171 
2  172 173 
2  174 175 
2  176 177 
2  178 179 
2  180 181 
2  182 183 
2  184 185 
2  186 187 
2  188 189 
2  190 191 
2  192 193 
2  194 195 
2  196 197 
2  198 199 
2  200 201 
2  202 203 
2  204 205 
2  206 207 
2  208 209 
2  210 211 
2  212 213 
2  214 215 
2  216 217 
2  218 219 
2  220 221 
2  222 223 
2  224 225 
2  226 227 
2  228 229 
2  230 231 
2  232 233 
2  234 235 
2  236 237 
2  238 239 
2  240 241 
2  242 243 
2  244 245 
2  246 247 
2  248 249 
2  250 251 
2  252 253 
2  254 255 

CELL_TYPES 128
3
3
3
3
3
3
3
3
3
3
3
3
3
3
3
3
3
3
3
3
3
3
3
3
3
3
3
3
3
3
3
3
3
3
3
3
3
3
3
3
3
3
3
3
3
3
3
3
3
3
3
3
3
3
3
3
3
3
3
3
3
3
3
3
3
3
3
3
3
3
3
3
3
3
3
3
3
3
3
3
3
3
3
3
3
3
3
3
3
3
3
3
3
3
3
3
3
3
3
3
3
3
3
3
3
3
3
3
3
3
3
3
3
3
3
3
3
3
3
3
3
3
3
3
3
3
3
3

POINT_DATA 256

SCALARS lambda_h float 1
LOOKUP_TABLE default
0.000000 
0.000000 
0.000000 
0.000000 
0.000000 
0.000000 
0.000000 
0.000000 
0.000000 
0.000000 
0.000000 
0.000000 
0.000000 
0.000000 
0.000000 
0.000000 
0.000000 
0.000000 
0.000000 
0.000000 
0.000000 
0.000000 
0.000000 
0.000000 
0.000000 
0.000000 
0.000000 
0.000000 
0.000000 
0.000000 
0.000000 
0.000000 
0.000000 
0.000000 
0.000000 
0.000000 
0.000000 
0.000000 
0.000000 
0.000000 
0.000000 
0.000000 
0.000000 
0.000000 
0.000000 
0.000000 
0.000000 
0.000000 
0.000000 
0.000000 
0.000000 
0.000000 
0.000000 
0.000000 
0.000000 
0.000000 
0.000000 
0.000000 
0.000000 
0.000000 
0.000000 
0.000000 
0.000000 
0.000000 
-6.047468 
-6.037348 
-6.056258 
-6.009648 
-6.074694 
-6.040237 
-6.059350 
-6.036467 
-6.176807 
-6.093354 
-6.144568 
-6.074380 
-6.117029 
-6.059268 
-6.093835 
-6.047895 
-6.683171 
-6.424883 
-6.586043 
-6.360852 
-6.501481 
-6.304786 
-6.427652 
-6.255747 
-6.257235 
-6.143763 
-6.214185 
-6.116392 
-6.363090 
-6.212968 
-6.306606 
-6.175813 
36.397077 
-72.794154 
-56.585508 
3.979785 
-19.935588 
-8.754762 
-14.192520 
-9.060073 
-9.556049 
-7.972745 
-8.909016 
-7.683508 
-11.801853 
-8.708960 
-10.451567 
-8.316639 
-6.925007 
-6.581684 
-6.795175 
-6.498025 
-7.254679 
-6.787956 
-7.076494 
-6.677602 
-8.417437 
-7.441159 
-8.031388 
-7.236979 
-7.720839 
-7.063669 
-7.466347 
-6.915483 
-6.009648 
-6.056258 
-6.037348 
-6.047468 
-6.036467 
-6.059350 
-6.040237 
-6.074694 
-6.074380 
-6.144568 
-6.093354 
-6.176807 
-6.047895 
-6.093835 
-6.059268 
-6.117029 
-6.360852 
-6.586043 
-6.424883 
-6.683171 
-6.255747 
-6.427652 
-6.304786 
-6.501481 
-6.116392 
-6.214185 
-6.143763 
-6.257235 
-6.175813 
-6.306606 
-6.212968 
-6.363090 
3.979785 
-56.585508 
-72.794154 
36.397077 
-9.060073 
-14.192520 
-8.754762 
-19.935588 
-7.683508 
-8.909016 
-7.972745 
-9.556049 
-8.316639 
-10.451567 
-8.708960 
-11.801853 
-6.498025 
-6.795175 
-6.581684 
-6.925007 
-6.677602 
-7.076494 
-6.787956 
-7.254679 
-7.236979 
-8.031388 
-7.441159 
-8.417437 
-6.915483 
-7.466347 
-7.063669 
-7.720839 
0.000000 
0.000000 
0.000000 
0.000000 
0.000000 
0.000000 
0.000000 
0.000000 
0.000000 
0.000000 
0.000000 
0.000000 
0.000000 
0.000000 
0.000000 
0.000000 
0.000000 
0.000000 
0.000000 
0.000000 
0.000000 
0.000000 
0.000000 
0.000000 
0.000000 
0.000000 
0.000000 
0.000000 
0.000000 
0.000000 
0.000000 
0.000000 
0.000000 
0.000000 
0.000000 
0.000000 
0.000000 
0.000000 
0.000000 
0.000000 
0.000000 
0.000000 
0.000000 
0.000000 
0.000000 
0.000000 
0.000000 
0.000000 
0.000000 
0.000000 
0.000000 
0.000000 
0.000000 
0.000000 
0.000000 
0.000000 
0.000000 
0.000000 
0.000000 
0.000000 
0.000000 
0.000000 
0.000000 
0.000000 

