# vtk DataFile Version 2.0
Unstructured Grid Example
ASCII
DATASET UNSTRUCTURED_GRID

POINTS 16641 float
0.018128 -0.211577 0.000000 
0.981872 -0.211577 0.000000 
1.000000 1.000000 0.000000 
0.000000 1.000000 0.000000 
0.500000 -0.100000 0.000000 
0.980697 0.353389 0.000000 
0.500000 1.000000 0.000000 
0.019303 0.353389 0.000000 
0.500000 0.359433 0.000000 
0.277594 -0.120426 0.000000 
0.500000 0.109451 0.000000 
0.240723 0.088987 0.000000 
0.722406 -0.120426 0.000000 
0.759277 0.088987 0.000000 
1.003602 0.063258 0.000000 
0.744778 0.351419 0.000000 
0.958968 0.656321 0.000000 
0.734097 0.658677 0.000000 
0.750000 1.000000 0.000000 
0.500000 0.661365 0.000000 
0.250000 1.000000 0.000000 
0.265903 0.658677 0.000000 
0.041032 0.656321 0.000000 
0.255222 0.351419 0.000000 
-0.003602 0.063258 0.000000 
0.145655 -0.189646 0.000000 
0.243118 -0.024114 0.000000 
0.120457 -0.061120 0.000000 
0.500000 0.001890 0.000000 
0.374187 -0.001520 0.000000 
0.382391 -0.100000 0.000000 
0.372463 0.224020 0.000000 
0.370210 0.104602 0.000000 
0.500000 0.227712 0.000000 
0.617609 -0.100000 0.000000 
0.625813 -0.001520 0.000000 
0.879543 -0.061120 0.000000 
0.756882 -0.024114 0.000000 
0.854345 -0.189646 0.000000 
0.629790 0.104602 0.000000 
0.627537 0.224020 0.000000 
0.999646 -0.079234 0.000000 
0.883796 0.069902 0.000000 
0.863731 0.347374 0.000000 
0.875879 0.205225 0.000000 
0.994696 0.207584 0.000000 
0.753467 0.214422 0.000000 
0.623214 0.357079 0.000000 
0.967225 0.502414 0.000000 
0.852642 0.497422 0.000000 
0.853153 0.825129 0.000000 
0.847161 0.656374 0.000000 
0.962436 0.817107 0.000000 
0.737181 0.499702 0.000000 
0.619424 0.503108 0.000000 
0.875000 1.000000 0.000000 
0.738448 0.826650 0.000000 
0.500000 0.827369 0.000000 
0.620023 0.827178 0.000000 
0.625000 1.000000 0.000000 
0.617997 0.660611 0.000000 
0.500000 0.504559 0.000000 
0.375000 1.000000 0.000000 
0.379977 0.827178 0.000000 
0.146847 0.825129 0.000000 
0.261552 0.826650 0.000000 
0.125000 1.000000 0.000000 
0.382003 0.660611 0.000000 
0.380576 0.503108 0.000000 
0.037564 0.817107 0.000000 
0.152839 0.656374 0.000000 
0.136269 0.347374 0.000000 
0.147358 0.497422 0.000000 
0.032775 0.502414 0.000000 
0.262819 0.499702 0.000000 
0.376786 0.357079 0.000000 
0.005304 0.207584 0.000000 
0.124121 0.205225 0.000000 
0.116204 0.069902 0.000000 
0.000354 -0.079234 0.000000 
0.246533 0.214422 0.000000 
0.080966 -0.201889 0.000000 
0.130572 -0.126254 0.000000 
0.069703 -0.138227 0.000000 
0.250525 -0.074519 0.000000 
0.189992 -0.106310 0.000000 
0.212124 -0.169429 0.000000 
0.177301 0.016589 0.000000 
0.180499 -0.044535 0.000000 
0.240461 0.030755 0.000000 
0.500000 -0.049655 0.000000 
0.439762 -0.049899 0.000000 
0.440903 -0.100000 0.000000 
0.435854 0.053611 0.000000 
0.437533 0.001193 0.000000 
0.500000 0.054672 0.000000 
0.325678 -0.100000 0.000000 
0.379239 -0.050969 0.000000 
0.316993 -0.055119 0.000000 
0.437174 0.291092 0.000000 
0.436152 0.226772 0.000000 
0.500000 0.291860 0.000000 
0.305154 0.098088 0.000000 
0.370863 0.162593 0.000000 
0.306576 0.157205 0.000000 
0.500000 0.166977 0.000000 
0.435410 0.165882 0.000000 
0.435208 0.108281 0.000000 
0.309023 -0.008700 0.000000 
0.371104 0.049989 0.000000 
0.305616 0.042604 0.000000 
0.559097 -0.100000 0.000000 
0.560238 -0.049899 0.000000 
0.683007 -0.055119 0.000000 
0.620761 -0.050969 0.000000 
0.674322 -0.100000 0.000000 
0.562467 0.001193 0.000000 
0.564146 0.053611 0.000000 
0.930297 -0.138227 0.000000 
0.869428 -0.126254 0.000000 
0.919034 -0.201889 0.000000 
0.759539 0.030755 0.000000 
0.819501 -0.044535 0.000000 
0.822699 0.016589 0.000000 
0.787876 -0.169429 0.000000 
0.810008 -0.106310 0.000000 
0.749475 -0.074519 0.000000 
0.563848 0.226772 0.000000 
0.562826 0.291092 0.000000 
0.564792 0.108281 0.000000 
0.564590 0.165882 0.000000 
0.693424 0.157205 0.000000 
0.629137 0.162593 0.000000 
0.694846 0.098088 0.000000 
0.690977 -0.008700 0.000000 
0.694384 0.042604 0.000000 
0.628896 0.049989 0.000000 
0.991548 -0.147359 0.000000 
0.939521 -0.072015 0.000000 
0.944159 0.064233 0.000000 
0.944066 -0.004366 0.000000 
1.003720 -0.008507 0.000000 
0.883837 0.004131 0.000000 
0.822305 0.078812 0.000000 
0.922352 0.348477 0.000000 
0.929205 0.275691 0.000000 
0.987935 0.280188 0.000000 
0.809997 0.277745 0.000000 
0.869963 0.275369 0.000000 
0.804585 0.348744 0.000000 
1.000229 0.135327 0.000000 
0.935658 0.204154 0.000000 
0.940962 0.133713 0.000000 
0.625446 0.288868 0.000000 
0.561716 0.358843 0.000000 
0.757021 0.150243 0.000000 
0.690840 0.219709 0.000000 
0.684291 0.354440 0.000000 
0.687646 0.285482 0.000000 
0.749213 0.281490 0.000000 
0.880780 0.136807 0.000000 
0.815176 0.209152 0.000000 
0.819514 0.142891 0.000000 
0.973607 0.427380 0.000000 
0.915724 0.422678 0.000000 
0.905378 0.576048 0.000000 
0.909874 0.498469 0.000000 
0.962123 0.578664 0.000000 
0.857777 0.421352 0.000000 
0.799475 0.422192 0.000000 
0.919457 0.910747 0.000000 
0.908200 0.822543 0.000000 
0.972819 0.902008 0.000000 
0.791005 0.657500 0.000000 
0.848266 0.739529 0.000000 
0.792276 0.740814 0.000000 
0.958635 0.735641 0.000000 
0.903402 0.737656 0.000000 
0.902916 0.655661 0.000000 
0.621124 0.428545 0.000000 
0.560672 0.429930 0.000000 
0.740623 0.424174 0.000000 
0.681156 0.426491 0.000000 
0.676905 0.579344 0.000000 
0.678589 0.501514 0.000000 
0.734869 0.577918 0.000000 
0.848887 0.575714 0.000000 
0.792159 0.576565 0.000000 
0.795164 0.498125 0.000000 
0.937500 1.000000 0.000000 
0.862478 0.912487 0.000000 
0.743589 0.912908 0.000000 
0.803508 0.912834 0.000000 
0.812500 1.000000 0.000000 
0.796447 0.826160 0.000000 
0.735226 0.741724 0.000000 
0.500000 0.912983 0.000000 
0.561185 0.912975 0.000000 
0.562500 1.000000 0.000000 
0.559399 0.743274 0.000000 
0.560108 0.827318 0.000000 
0.500000 0.743391 0.000000 
0.687500 1.000000 0.000000 
0.622260 0.912957 0.000000 
0.683107 0.912935 0.000000 
0.559827 0.504181 0.000000 
0.500000 0.430414 0.000000 
0.676388 0.659750 0.000000 
0.618323 0.580555 0.000000 
0.500000 0.581642 0.000000 
0.559282 0.581359 0.000000 
0.559123 0.661169 0.000000 
0.679545 0.826958 0.000000 
0.618560 0.742942 0.000000 
0.677247 0.742420 0.000000 
0.437500 1.000000 0.000000 
0.438815 0.912975 0.000000 
0.316893 0.912935 0.000000 
0.377740 0.912957 0.000000 
0.312500 1.000000 0.000000 
0.439892 0.827318 0.000000 
0.440601 0.743274 0.000000 
0.080543 0.910747 0.000000 
0.137522 0.912487 0.000000 
0.062500 1.000000 0.000000 
0.264774 0.741724 0.000000 
0.203553 0.826160 0.000000 
0.207724 0.740814 0.000000 
0.187500 1.000000 0.000000 
0.196492 0.912834 0.000000 
0.256411 0.912908 0.000000 
0.440173 0.504181 0.000000 
0.439328 0.429930 0.000000 
0.440877 0.661169 0.000000 
0.440718 0.581359 0.000000 
0.323095 0.579344 0.000000 
0.381677 0.580555 0.000000 
0.323612 0.659750 0.000000 
0.320455 0.826958 0.000000 
0.322753 0.742420 0.000000 
0.381440 0.742942 0.000000 
0.027181 0.902008 0.000000 
0.091800 0.822543 0.000000 
0.097084 0.655661 0.000000 
0.096598 0.737656 0.000000 
0.041365 0.735641 0.000000 
0.151734 0.739529 0.000000 
0.208995 0.657500 0.000000 
0.077648 0.348477 0.000000 
0.084276 0.422678 0.000000 
0.026393 0.427380 0.000000 
0.200525 0.422192 0.000000 
0.142223 0.421352 0.000000 
0.195415 0.348744 0.000000 
0.037877 0.578664 0.000000 
0.090126 0.498469 0.000000 
0.094622 0.576048 0.000000 
0.378876 0.428545 0.000000 
0.438284 0.358843 0.000000 
0.265131 0.577918 0.000000 
0.321411 0.501514 0.000000 
0.315709 0.354440 0.000000 
0.318844 0.426491 0.000000 
0.259377 0.424174 0.000000 
0.151113 0.575714 0.000000 
0.204836 0.498125 0.000000 
0.207841 0.576565 0.000000 
0.012065 0.280188 0.000000 
0.070795 0.275691 0.000000 
0.059038 0.133713 0.000000 
0.064342 0.204154 0.000000 
-0.000229 0.135327 0.000000 
0.130037 0.275369 0.000000 
0.190003 0.277745 0.000000 
0.060479 -0.072015 0.000000 
0.008452 -0.147359 0.000000 
0.177695 0.078812 0.000000 
0.116163 0.004131 0.000000 
-0.003720 -0.008507 0.000000 
0.055934 -0.004366 0.000000 
0.055841 0.064233 0.000000 
0.374554 0.288868 0.000000 
0.250787 0.281490 0.000000 
0.312354 0.285482 0.000000 
0.309160 0.219709 0.000000 
0.242979 0.150243 0.000000 
0.119220 0.136807 0.000000 
0.180486 0.142891 0.000000 
0.184824 0.209152 0.000000 
0.049378 -0.206787 0.000000 
0.075414 -0.170449 0.000000 
0.044295 -0.175219 0.000000 
0.137840 -0.158393 0.000000 
0.106632 -0.165045 0.000000 
0.113057 -0.196370 0.000000 
0.094760 -0.100191 0.000000 
0.100256 -0.132892 0.000000 
0.124717 -0.093726 0.000000 
0.257920 -0.097192 0.000000 
0.228444 -0.121305 0.000000 
0.245748 -0.152577 0.000000 
0.214388 -0.062861 0.000000 
0.219464 -0.091515 0.000000 
0.246018 -0.050007 0.000000 
0.178704 -0.181018 0.000000 
0.199184 -0.138070 0.000000 
0.168820 -0.149766 0.000000 
0.208471 0.053505 0.000000 
0.208577 0.023703 0.000000 
0.240293 0.059481 0.000000 
0.150365 -0.053586 0.000000 
0.178346 -0.014033 0.000000 
0.147841 -0.021823 0.000000 
0.241349 0.002860 0.000000 
0.209455 -0.005557 0.000000 
0.211286 -0.034353 0.000000 
0.160503 -0.117657 0.000000 
0.184146 -0.075179 0.000000 
0.154446 -0.085508 0.000000 
0.500000 -0.075024 0.000000 
0.470277 -0.075042 0.000000 
0.470419 -0.100000 0.000000 
0.469366 -0.024115 0.000000 
0.469891 -0.049710 0.000000 
0.500000 -0.024007 0.000000 
0.411527 -0.100000 0.000000 
0.440592 -0.075115 0.000000 
0.410984 -0.075260 0.000000 
0.467733 0.081476 0.000000 
0.467969 0.054412 0.000000 
0.500000 0.081759 0.000000 
0.406034 0.000185 0.000000 
0.436569 0.027177 0.000000 
0.404602 0.025913 0.000000 
0.500000 0.028085 0.000000 
0.468335 0.027865 0.000000 
0.468818 0.001723 0.000000 
0.299515 -0.100000 0.000000 
0.322548 -0.077161 0.000000 
0.291653 -0.080930 0.000000 
0.381483 -0.075522 0.000000 
0.352076 -0.076023 0.000000 
0.353663 -0.100000 0.000000 
0.344849 -0.028575 0.000000 
0.348536 -0.052303 0.000000 
0.376583 -0.026386 0.000000 
0.438657 -0.024467 0.000000 
0.407779 -0.025156 0.000000 
0.409575 -0.050275 0.000000 
[...]
POINT_DATA 16641

SCALARS u_h float 2
LOOKUP_TABLE default
0.018128 -0.211577 
-0.018128 -0.211577 
0.000000 0.000000 
0.000000 0.000000 
0.000000 -0.100000 
-0.019303 -0.146611 
0.000000 0.000000 
0.019303 -0.146611 
-0.000000 -0.140567 
0.027594 -0.120426 
0.000000 -0.140549 
-0.009277 -0.161013 
-0.027594 -0.120426 
0.009277 -0.161013 
0.003602 -0.186742 
-0.005222 -0.148581 
-0.041032 -0.093679 
-0.015903 -0.091323 
0.000000 0.000000 
-0.000000 -0.088635 
0.000000 0.000000 
0.015903 -0.091323 
0.041032 -0.093679 
0.005222 -0.148581 
-0.003602 -0.186742 
0.020655 -0.189646 
-0.006882 -0.149114 
-0.004543 -0.186120 
0.000000 -0.123110 
-0.000813 -0.126520 
0.007391 -0.100000 
-0.002537 -0.150980 
-0.004790 -0.145398 
-0.000000 -0.147288 
-0.007391 -0.100000 
0.000813 -0.126520 
0.004543 -0.186120 
0.006882 -0.149114 
-0.020655 -0.189646 
0.004790 -0.145398 
0.002537 -0.150980 
-0.000354 -0.204234 
0.008796 -0.180098 
-0.011269 -0.152626 
0.000879 -0.169775 
-0.005304 -0.167416 
0.003467 -0.160578 
-0.001786 -0.142921 
-0.032775 -0.122586 
-0.022358 -0.127578 
-0.021847 -0.049871 
-0.027839 -0.093626 
-0.037564 -0.057893 
-0.012819 -0.125298 
-0.005576 -0.121892 
0.000000 0.000000 
-0.011552 -0.048350 
-0.000000 -0.047631 
-0.004977 -0.047822 
0.000000 0.000000 
-0.007003 -0.089389 
-0.000000 -0.120441 
0.000000 0.000000 
0.004977 -0.047822 
0.021847 -0.049871 
0.011552 -0.048350 
0.000000 0.000000 
0.007003 -0.089389 
0.005576 -0.121892 
0.037564 -0.057893 
0.027839 -0.093626 
0.011269 -0.152626 
0.022358 -0.127578 
0.032775 -0.122586 
0.012819 -0.125298 
0.001786 -0.142921 
0.005304 -0.167416 
-0.000879 -0.169775 
-0.008796 -0.180098 
0.000354 -0.204234 
-0.003467 -0.160578 
0.018466 -0.201889 
0.005572 -0.188754 
0.007203 -0.200727 
0.000525 -0.137019 
0.002492 -0.168810 
0.024624 -0.169429 
-0.010199 -0.170911 
-0.007001 -0.169535 
-0.009539 -0.156745 
0.000000 -0.112155 
0.002262 -0.112399 
0.003403 -0.100000 
-0.001646 -0.133889 
0.000033 -0.123807 
0.000000 -0.132828 
0.013178 -0.100000 
0.004239 -0.113469 
0.004493 -0.117619 
-0.000326 -0.146408 
-0.001348 -0.148228 
-0.000000 -0.145640 
-0.007346 -0.151912 
-0.004137 -0.149907 
-0.005924 -0.155295 
-0.000000 -0.145523 
-0.002090 -0.146618 
-0.002292 -0.141719 
-0.003477 -0.133700 
-0.003896 -0.137511 
-0.006884 -0.144896 
-0.003403 -0.100000 
-0.002262 -0.112399 
-0.004493 -0.117619 
-0.004239 -0.113469 
-0.013178 -0.100000 
-0.000033 -0.123807 
0.001646 -0.133889 
-0.007203 -0.200727 
-0.005572 -0.188754 
-0.018466 -0.201889 
0.009539 -0.156745 
0.007001 -0.169535 
0.010199 -0.170911 
-0.024624 -0.169429 
-0.002492 -0.168810 
-0.000525 -0.137019 
0.001348 -0.148228 
0.000326 -0.146408 
0.002292 -0.141719 
0.002090 -0.146618 
0.005924 -0.155295 
0.004137 -0.149907 
0.007346 -0.151912 
0.003477 -0.133700 
0.006884 -0.144896 
0.003896 -0.137511 
-0.008452 -0.209859 
0.002021 -0.197015 
0.006659 -0.185767 
0.006566 -0.191866 
0.003720 -0.196007 
0.008837 -0.183369 
0.009805 -0.171188 
-0.015148 -0.151523 
-0.008295 -0.161809 
-0.012065 -0.157312 
-0.002503 -0.159755 
-0.005037 -0.162131 
-0.007915 -0.151256 
0.000229 -0.177173 
-0.001842 -0.170846 
0.003462 -0.178787 
0.000446 -0.148632 
-0.000784 -0.141157 
0.007021 -0.162257 
0.003340 -0.155291 
-0.003209 -0.145560 
0.000146 -0.152018 
-0.000787 -0.156010 
0.005780 -0.175693 
0.002676 -0.165848 
0.007014 -0.169609 
-0.026393 -0.135120 
-0.021776 -0.139822 
-0.032122 -0.111452 
-0.027626 -0.126531 
-0.037877 -0.108836 
-0.017223 -0.141148 
-0.013025 -0.140308 
-0.018043 -0.026753 
-0.029300 -0.052457 
-0.027181 -0.035492 
-0.021495 -0.092500 
-0.026734 -0.072971 
-0.020224 -0.071686 
-0.041365 -0.076859 
-0.034098 -0.074844 
-0.034584 -0.094339 
-0.003876 -0.133955 
-0.001828 -0.132570 
-0.009377 -0.138326 
-0.006344 -0.136009 
-0.010595 -0.108156 
-0.008911 -0.123486 
-0.015131 -0.109582 
-0.026113 -0.111786 
-0.020341 -0.110935 
-0.017336 -0.126875 
0.000000 0.000000 
-0.012522 -0.025013 
-0.006411 -0.024592 
-0.008992 -0.024666 
0.000000 0.000000 
-0.016053 -0.048840 
-0.014774 -0.070776 
-0.000000 -0.024517 
-0.001315 -0.024525 
0.000000 0.000000 
-0.003101 -0.069226 
-0.002392 -0.047682 
-0.000000 -0.069109 
0.000000 0.000000 
-0.002740 -0.024543 
-0.004393 -0.024565 
-0.002673 -0.120819 
-0.000000 -0.132086 
-0.011112 -0.090250 
-0.006677 -0.106945 
-0.000000 -0.105858 
-0.003218 -0.106141 
-0.003377 -0.088831 
-0.007955 -0.048042 
-0.006440 -0.069558 
-0.010253 -0.070080 
0.000000 0.000000 
0.001315 -0.024525 
0.004393 -0.024565 
0.002740 -0.024543 
0.000000 0.000000 
0.002392 -0.047682 
0.003101 -0.069226 
0.018043 -0.026753 
0.012522 -0.025013 
0.000000 0.000000 
0.014774 -0.070776 
0.016053 -0.048840 
0.020224 -0.071686 
0.000000 0.000000 
0.008992 -0.024666 
0.006411 -0.024592 
0.002673 -0.120819 
0.001828 -0.132570 
0.003377 -0.088831 
0.003218 -0.106141 
0.010595 -0.108156 
0.006677 -0.106945 
0.011112 -0.090250 
0.007955 -0.048042 
0.010253 -0.070080 
0.006440 -0.069558 
0.027181 -0.035492 
0.029300 -0.052457 
0.034584 -0.094339 
0.034098 -0.074844 
0.041365 -0.076859 
0.026734 -0.072971 
0.021495 -0.092500 
0.015148 -0.151523 
0.021776 -0.139822 
0.026393 -0.135120 
0.013025 -0.140308 
0.017223 -0.141148 
0.007915 -0.151256 
0.037877 -0.108836 
0.027626 -0.126531 
0.032122 -0.111452 
0.003876 -0.133955 
0.000784 -0.141157 
0.015131 -0.109582 
0.008911 -0.123486 
0.003209 -0.145560 
0.006344 -0.136009 
0.009377 -0.138326 
0.026113 -0.111786 
0.017336 -0.126875 
0.020341 -0.110935 
0.012065 -0.157312 
0.008295 -0.161809 
-0.003462 -0.178787 
0.001842 -0.170846 
-0.000229 -0.177173 
0.005037 -0.162131 
0.002503 -0.159755 
-0.002021 -0.197015 
0.008452 -0.209859 
-0.009805 -0.171188 
-0.008837 -0.183369 
-0.003720 -0.196007 
-0.006566 -0.191866 
-0.006659 -0.185767 
-0.000446 -0.148632 
0.000787 -0.156010 
-0.000146 -0.152018 
-0.003340 -0.155291 
-0.007021 -0.162257 
-0.005780 -0.175693 
-0.007014 -0.169609 
-0.002676 -0.165848 
0.018128 -0.206787 
0.012914 -0.201699 
0.013045 -0.206469 
0.012840 -0.189643 
0.012882 -0.196295 
0.019307 -0.196370 
0.001010 -0.193941 
0.006506 -0.195392 
-0.000283 -0.187476 
0.007920 -0.128442 
0.009694 -0.152555 
0.026998 -0.152577 
-0.004362 -0.156611 
0.000714 -0.154015 
-0.003982 -0.143757 
0.022454 -0.181018 
0.011684 -0.169320 
0.012570 -0.181016 
-0.010279 -0.165245 
-0.010173 -0.163797 
-0.009707 -0.159269 
-0.005885 -0.178586 
-0.009154 -0.170283 
-0.008409 -0.178073 
-0.008651 -0.153390 
-0.009295 -0.161807 
-0.007464 -0.159353 
0.004253 -0.180157 
-0.003354 -0.168929 
-0.001804 -0.179258 
0.000000 -0.106274 
0.001527 -0.106292 
0.001669 -0.100000 
0.000616 -0.117865 
0.001141 -0.112210 
0.000000 -0.117757 
0.005277 -0.100000 
0.003092 -0.106365 
0.004734 -0.106510 
-0.001017 -0.137274 
-0.000781 -0.133088 
0.000000 -0.136991 
-0.000216 -0.124815 
-0.000931 -0.129073 
-0.001648 -0.130337 
0.000000 -0.128165 
-0.000415 -0.128385 
0.000068 -0.123277 
0.018265 -0.100000 
0.010048 -0.108411 
0.010403 -0.112180 
0.006483 -0.106772 
0.008326 -0.107273 
0.009913 -0.100000 
0.001099 -0.122325 
0.004786 -0.114803 
0.001583 -0.120136 
0.001157 -0.118217 
0.001529 -0.118906 
0.003325 -0.112775 
0.000100 -0.143694 
-0.000176 -0.145833 
-0.000000 -0.143524 
-0.001975 -0.149388 
-0.000859 -0.147750 
-0.001230 -0.148799 
-0.000000 -0.146895 
-0.000441 -0.147110 
-0.000683 -0.147524 
-0.008447 -0.156202 
-0.006820 -0.154038 
-0.007711 -0.157831 
-0.004616 -0.148081 
-0.005762 -0.150763 
-0.006092 -0.148292 
-0.004144 -0.153089 
-0.005087 -0.152357 
-0.003424 -0.150873 
-0.000000 -0.143415 
-0.001131 -0.143702 
-0.001129 -0.140840 
-0.000890 -0.147081 
-0.001045 -0.145797 
-0.000000 -0.146824 
-0.003512 -0.143222 
-0.002277 -0.144563 
-0.003442 -0.146017 
-0.002621 -0.149116 
-0.003127 -0.147988 
-0.001768 -0.147847 
0.002744 -0.124045 
-0.001888 -0.129300 
-0.000170 -0.126273 
-0.002168 -0.133171 
-0.005343 -0.140276 
-0.002093 -0.138136 
-0.004579 -0.141869 
-0.003274 -0.139638 
-0.002668 -0.135316 
-0.002658 -0.132366 
-0.008703 -0.153715 
-0.007313 -0.145889 
-0.008371 -0.150311 
-0.007406 -0.148883 
-0.005984 -0.144928 
-0.004006 -0.135438 
-0.005330 -0.140649 
-0.005636 -0.139871 
-0.001669 -0.100000 
-0.001527 -0.106292 
-0.004734 -0.106510 
-0.003092 -0.106365 
-0.005277 -0.100000 
-0.001141 -0.112210 
-0.000616 -0.117865 
-0.010403 -0.112180 
-0.010048 -0.108411 
-0.018265 -0.100000 
-0.001583 -0.120136 
-0.004786 -0.114803 
-0.001099 -0.122325 
-0.009913 -0.100000 
-0.008326 -0.107273 
-0.006483 -0.106772 
0.000781 -0.133088 
0.001017 -0.137274 
-0.000068 -0.123277 
0.000415 -0.128385 
0.001648 -0.130337 
0.000931 -0.129073 
0.000216 -0.124815 
-0.003325 -0.112775 
-0.001529 -0.118906 
-0.001157 -0.118217 
-0.013045 -0.206469 
-0.012914 -0.201699 
-0.018128 -0.206787 
0.000283 -0.187476 
-0.006506 -0.195392 
-0.001010 -0.193941 
-0.019307 -0.196370 
-0.012882 -0.196295 
-0.012840 -0.189643 
0.009707 -0.159269 
0.010173 -0.163797 
0.010279 -0.165245 
0.007464 -0.159353 
0.009295 -0.161807 
0.008651 -0.153390 
0.008409 -0.178073 
0.009154 -0.170283 
0.005885 -0.178586 
-0.026998 -0.152577 
-0.009694 -0.152555 
-0.007920 -0.128442 
-0.012570 -0.181016 
-0.011684 -0.169320 
-0.022454 -0.181018 
0.003982 -0.143757 
-0.000714 -0.154015 
0.004362 -0.156611 
0.001804 -0.179258 
0.003354 -0.168929 
-0.004253 -0.180157 
0.000176 -0.145833 
-0.000100 -0.143694 
0.000683 -0.147524 
0.000441 -0.147110 
0.001230 -0.148799 
0.000859 -0.147750 
0.001975 -0.149388 
0.001129 -0.140840 
0.001131 -0.143702 
0.003442 -0.146017 
0.002277 -0.144563 
0.003512 -0.143222 
0.001045 -0.145797 
0.000890 -0.147081 
0.007711 -0.157831 
0.006820 -0.154038 
0.008447 -0.156202 
0.003424 -0.150873 
0.005087 -0.152357 
0.004144 -0.153089 
0.006092 -0.148292 
0.005762 -0.150763 
0.004616 -0.148081 
0.001768 -0.147847 
0.003127 -0.147988 
0.002621 -0.149116 
-0.002744 -0.124045 
0.005343 -0.140276 
0.002168 -0.133171 
0.000170 -0.126273 
0.001888 -0.129300 
0.008703 -0.153715 
0.005984 -0.144928 
0.007406 -0.148883 
0.008371 -0.150311 
0.007313 -0.145889 
0.002093 -0.138136 
0.002658 -0.132366 
0.002668 -0.135316 
0.003274 -0.139638 
0.004579 -0.141869 
0.005636 -0.139871 
0.005330 -0.140649 
0.004006 -0.135438 
-0.013309 -0.211187 
-0.007809 -0.205344 
0.000880 -0.200921 
-0.003018 -0.203454 
-0.003995 -0.207491 
-0.002078 -0.199109 
0.003227 -0.192184 
0.005254 -0.186936 
0.005741 -0.190816 
0.004137 -0.191439 
0.008281 -0.185900 
0.007103 -0.188926 
0.007843 -0.183432 
0.002239 -0.200330 
0.005250 -0.194489 
0.003652 -0.197890 
0.010363 -0.171249 
0.009745 -0.166108 
0.007328 -0.184766 
0.009700 -0.177557 
0.009471 -0.175942 
0.009994 -0.176886 
0.009267 -0.181842 
0.004904 -0.194575 
0.007763 -0.188158 
0.006126 -0.190246 
-0.017210 -0.149634 
-0.013657 -0.155033 
-0.015665 -0.152054 
-0.009866 -0.157635 
-0.011712 -0.156833 
-0.013156 -0.152464 
-0.008582 -0.162422 
-0.010134 -0.160179 
-0.006717 -0.165095 
-0.004018 -0.154329 
-0.005214 -0.155810 
-0.006482 -0.150017 
-0.001999 -0.166178 
-0.003671 -0.161193 
-0.000813 -0.164894 
-0.009515 -0.152173 
-0.006596 -0.156956 
-0.008152 -0.157619 
0.002252 -0.181978 
0.001954 -0.178685 
0.003942 -0.182887 
-0.003495 -0.169803 
-0.000567 -0.174327 
-0.002330 -0.172324 
0.002373 -0.174410 
0.001008 -0.174944 
-0.000376 -0.170766 
-0.006586 -0.162397 
-0.003394 -0.166768 
-0.004976 -0.166474 
-0.000228 -0.144208 
-0.000378 -0.140699 
0.001529 -0.150231 
0.000424 -0.147351 
-0.001244 -0.141907 
-0.000410 -0.145050 
-0.000671 -0.146191 
0.008352 -0.162004 
0.006588 -0.158638 
0.003506 -0.157865 
0.005162 -0.158645 
0.005367 -0.161780 
0.004739 -0.155708 
0.003004 -0.152968 
-0.004134 -0.147062 
-0.002188 -0.150900 
-0.003012 -0.152651 
-0.001039 -0.147588 
-0.001537 -0.149182 
-0.002433 -0.144156 
0.001394 -0.158653 
-0.000230 -0.153985 
0.001688 -0.156309 
0.001726 -0.152005 
0.001789 -0.154058 
0.000362 -0.150208 
0.005393 -0.182390 
0.003506 -0.172939 
0.004744 -0.177719 
0.006613 -0.180717 
0.007586 -0.178067 
-0.001541 -0.157978 
0.003196 -0.163292 
0.000886 -0.160965 
0.000152 -0.163099 
0.001901 -0.168071 
0.008677 -0.166360 
0.008279 -0.174640 
0.008652 -0.170657 
0.007172 -0.165982 
0.005317 -0.164962 
0.004385 -0.170739 
0.004992 -0.168013 
0.006545 -0.172919 
-0.022902 -0.140986 
-0.020713 -0.143955 
-0.027296 -0.131664 
-0.024097 -0.137974 
-0.029707 -0.128994 
-0.018525 -0.145860 
-0.016380 -0.146868 
-0.036778 -0.102634 
-0.035064 -0.110517 
-0.039746 -0.101447 
-0.024983 -0.127339 
-0.030082 -0.119229 
-0.027260 -0.119847 
-0.035525 -0.115874 
-0.032855 -0.117962 
-0.030239 -0.125002 
-0.010539 -0.146091 
-0.008870 -0.145041 
-0.014315 -0.147141 
-0.012360 -0.146834 
-0.017566 -0.134450 
-0.015065 -0.140929 
-0.019927 -0.134632 
-0.024833 -0.133387 
-0.022362 -0.134325 
-0.019471 -0.140828 
-0.012366 -0.014825 
-0.022241 -0.029583 
-0.017715 -0.021608 
-0.025364 -0.050871 
-0.024640 -0.040006 
-0.020875 -0.038421 
-0.033440 -0.047278 
-0.028992 -0.042849 
-0.033493 -0.054820 
-0.018597 -0.091906 
-0.021198 -0.082376 
-0.018280 -0.081824 
-0.027698 -0.083615 
-0.024344 -0.082974 
-0.024587 -0.093084 
-0.021506 -0.061000 
-0.023346 -0.072266 
-0.024823 -0.061707 
-0.041619 -0.085499 
-0.038298 -0.085396 
-0.037896 -0.094277 
-0.036318 -0.065780 
-0.037835 -0.075928 
-0.040093 -0.067693 
-0.031198 -0.094074 
-0.034780 -0.084917 
-0.031206 -0.084282 
-0.028462 -0.062695 
-0.030348 -0.073831 
-0.032351 -0.064050 
-0.001324 -0.137272 
-0.000649 -0.136864 
-0.002865 -0.138836 
-0.002054 -0.137938 
-0.003494 -0.127598 
-0.002811 -0.133161 
-0.004788 -0.128299 
-0.007362 -0.143804 
-0.006016 -0.142481 
-0.009390 -0.131132 
-0.007784 -0.137167 
-0.011213 -0.132154 
-0.004827 -0.141164 
-0.003782 -0.139928 
-0.013285 -0.100117 
-0.012779 -0.108858 
-0.015735 -0.100758 
-0.007179 -0.122639 
-0.009882 -0.116159 
-0.007981 -0.115417 
-0.014142 -0.117769 
-0.011933 -0.116957 
-0.010788 -0.124389 
-0.005046 -0.134919 
-0.007719 -0.130110 
-0.006190 -0.129149 
-0.033657 -0.103168 
-0.027276 -0.103012 
-0.030463 -0.103244 
-0.029116 -0.111825 
-0.024446 -0.119969 
-0.018369 -0.101405 
-0.016513 -0.118543 
-0.017655 -0.110290 
-0.021186 -0.102026 
-0.024166 -0.102580 
-0.011125 -0.139404 
-0.019797 -0.127384 
-0.015312 -0.133904 
-0.013189 -0.133106 
-0.015004 -0.126151 
-0.023172 -0.111458 
-0.019035 -0.119219 
-0.021690 -0.119724 
0.000000 0.000000 
-0.009459 -0.013131 
-0.006462 -0.012428 
-0.007716 -0.012611 
0.000000 0.000000 
-0.014915 -0.025542 
-0.017733 -0.037576 
-0.003309 -0.012378 
-0.003930 -0.012364 
0.000000 0.000000 
-0.010902 -0.036707 
-0.007614 -0.024616 
-0.009192 -0.036602 
0.000000 0.000000 
-0.004641 -0.012356 
-0.005469 -0.012367 
-0.017371 -0.071198 
-0.015594 -0.081314 
-0.018760 -0.049246 
-0.018518 -0.060482 
-0.013425 -0.059766 
-0.015835 -0.060085 
-0.013668 -0.048560 
-0.010599 -0.024774 
-0.012849 -0.036863 
-0.015096 -0.037120 
-0.000000 -0.012424 
-0.000335 -0.012424 
0.000000 0.000000 
-0.000937 -0.036268 
-0.000650 -0.024519 
-0.000000 -0.036261 
0.000000 0.000000 
-0.000677 -0.012423 
-0.001033 -0.012421 
-0.001632 -0.079178 
-0.001536 -0.069139 
-0.000000 -0.079138 
-0.003648 -0.047741 
-0.002798 -0.058674 
-0.004266 -0.058772 
-0.000000 -0.058593 
-0.001385 -0.058614 
-0.001184 -0.047645 
0.000000 0.000000 
-0.002265 -0.012403 
-0.002758 -0.012392 
-0.001411 -0.012418 
-0.001819 -0.012412 
0.000000 0.000000 
-0.005075 -0.036403 
-0.003530 -0.024554 
-0.003941 -0.036356 
-0.001893 -0.036287 
-0.002887 -0.036316 
-0.002006 -0.024533 
-0.000900 -0.132208 
-0.000000 -0.136730 
-0.004082 -0.121276 
-0.002282 -0.127077 
-0.000000 -0.126647 
-0.001127 -0.126756 
-0.001322 -0.120537 
-0.013412 -0.090767 
-0.011015 -0.099508 
-0.006946 -0.098474 
-0.008908 -0.098954 
-0.008983 -0.089787 
-0.008567 -0.107510 
-0.006213 -0.114763 
-0.000000 -0.097556 
-0.001659 -0.097617 
-0.001673 -0.088685 
-0.001480 -0.113583 
-0.001594 -0.105930 
-0.000000 -0.113500 
-0.005144 -0.089068 
-0.003350 -0.097795 
-0.005102 -0.098083 
-0.004558 -0.114227 
-0.004903 -0.106483 
-0.002989 -0.113829 
-0.005347 -0.024577 
-0.006403 -0.047923 
-0.006311 -0.036459 
-0.007673 -0.036523 
-0.009660 -0.048183 
-0.003295 -0.079293 
-0.006836 -0.079735 
-0.005019 -0.079480 
-0.004726 -0.069366 
-0.005816 -0.058904 
-0.013128 -0.080847 
-0.011251 -0.059498 
-0.012410 -0.070406 
-0.010863 -0.080425 
-0.008774 -0.080052 
-0.007478 -0.059070 
-0.008272 -0.069797 
-0.009279 -0.059268 
0.000000 0.000000 
0.000335 -0.012424 
0.001033 -0.012421 
0.000677 -0.012423 
0.000000 0.000000 
0.000650 -0.024519 
0.000937 -0.036268 
0.002758 -0.012392 
0.002265 -0.012403 
0.000000 0.000000 
0.003941 -0.036356 
0.003530 -0.024554 
0.005075 -0.036403 
0.000000 0.000000 
0.001819 -0.012412 
0.001411 -0.012418 
0.001536 -0.069139 
0.001632 -0.079178 
0.001184 -0.047645 
0.001385 -0.058614 
0.004266 -0.058772 
0.002798 -0.058674 
0.003648 -0.047741 
0.002006 -0.024533 
0.002887 -0.036316 
0.001893 -0.036287 
0.012366 -0.014825 
0.009459 -0.013131 
0.000000 0.000000 
0.017733 -0.037576 
0.014915 -0.025542 
0.020875 -0.038421 
0.000000 0.000000 
0.007716 -0.012611 
0.006462 -0.012428 
0.015594 -0.081314 
0.017371 -0.071198 
0.018280 -0.081824 
0.013668 -0.048560 
0.015835 -0.060085 
0.013425 -0.059766 
0.021506 -0.061000 
0.018518 -0.060482 
0.018760 -0.049246 
0.000000 0.000000 
0.003930 -0.012364 
0.003309 -0.012378 
0.005469 -0.012367 
0.004641 -0.012356 
0.000000 0.000000 
0.009192 -0.036602 
0.007614 -0.024616 
0.010902 -0.036707 
0.015096 -0.037120 
0.012849 -0.036863 
0.010599 -0.024774 
0.000900 -0.132208 
0.000649 -0.136864 
0.001322 -0.120537 
0.001127 -0.126756 
0.003494 -0.127598 
0.002282 -0.127077 
0.004082 -0.121276 
0.001673 -0.088685 
0.001659 -0.097617 
0.005102 -0.098083 
0.003350 -0.097795 
0.005144 -0.089068 
0.001594 -0.105930 
0.001480 -0.113583 
0.013285 -0.100117 
0.011015 -0.099508 
0.013412 -0.090767 
0.006213 -0.114763 
0.008567 -0.107510 
0.007981 -0.115417 
0.008983 -0.089787 
0.008908 -0.098954 
0.006946 -0.098474 
0.002989 -0.113829 
0.004903 -0.106483 
0.004558 -0.114227 
0.005347 -0.024577 
0.009660 -0.048183 
0.007673 -0.036523 
0.006311 -0.036459 
0.006403 -0.047923 
0.013128 -0.080847 
0.008774 -0.080052 
0.010863 -0.080425 
0.012410 -0.070406 
0.011251 -0.059498 
0.003295 -0.079293 
0.005816 -0.058904 
0.004726 -0.069366 
0.005019 -0.079480 
0.006836 -0.079735 
0.009279 -0.059268 
0.008272 -0.069797 
0.007478 -0.059070 
0.017715 -0.021608 
0.022241 -0.029583 
0.033493 -0.054820 
0.028992 -0.042849 
0.033440 -0.047278 
0.024640 -0.040006 
0.025364 -0.050871 
0.037896 -0.094277 
0.038298 -0.085396 
0.041619 -0.085499 
0.031206 -0.084282 
0.034780 -0.084917 
0.031198 -0.094074 
0.040093 -0.067693 
0.037835 -0.075928 
0.036318 -0.065780 
0.021198 -0.082376 
0.018597 -0.091906 
0.024823 -0.061707 
0.023346 -0.072266 
0.024587 -0.093084 
0.024344 -0.082974 
0.027698 -0.083615 
0.032351 -0.064050 
0.030348 -0.073831 
0.028462 -0.062695 
0.017210 -0.149634 
0.020713 -0.143955 
0.022902 -0.140986 
0.016380 -0.146868 
0.018525 -0.145860 
0.013156 -0.152464 
0.029707 -0.128994 
0.024097 -0.137974 
0.027296 -0.131664 
0.008870 -0.145041 
0.010539 -0.146091 
0.006482 -0.150017 
0.019927 -0.134632 
0.015065 -0.140929 
0.017566 -0.134450 
0.009515 -0.152173 
0.012360 -0.146834 
0.014315 -0.147141 
0.039746 -0.101447 
0.035064 -0.110517 
0.036778 -0.102634 
0.030239 -0.125002 
0.032855 -0.117962 
0.035525 -0.115874 
0.027260 -0.119847 
0.030082 -0.119229 
0.024983 -0.127339 
0.019471 -0.140828 
0.022362 -0.134325 
0.024833 -0.133387 
0.001324 -0.137272 
0.000378 -0.140699 
0.004788 -0.128299 
0.002811 -0.133161 
0.001244 -0.141907 
0.002054 -0.137938 
0.002865 -0.138836 
0.015735 -0.100758 
0.012779 -0.108858 
0.010788 -0.124389 
0.011933 -0.116957 
0.014142 -0.117769 
0.009882 -0.116159 
0.007179 -0.122639 
0.004134 -0.147062 
0.006016 -0.142481 
0.007362 -0.143804 
0.003782 -0.139928 
0.004827 -0.141164 
0.002433 -0.144156 
0.011213 -0.132154 