# vtk DataFile Version 2.0
Unstructured Grid Example
ASCII
DATASET UNSTRUCTURED_GRID

POINTS 9 float
-0.023106 -0.169925 0.000000 
1.023106 -0.169925 0.000000 
1.000000 1.000000 0.000000 
0.000000 1.000000 0.000000 
0.500000 0.009808 0.000000 
0.978182 0.377210 0.000000 
0.500000 1.000000 0.000000 
0.021818 0.377210 0.000000 
0.500000 0.396310 0.000000 

CELLS 8 32
3  0 4 8 
3  4 1 8 
3  1 5 8 
3  5 2 8 
3  2 6 8 
3  6 3 8 
3  3 7 8 
3  7 0 8 

CELL_TYPES 8
5
5
5
5
5
5
5
5

POINT_DATA 9

SCALARS u_h float 2
LOOKUP_TABLE default
-0.023106 -0.169925 
0.023106 -0.169925 
0.000000 0.000000 
0.000000 0.000000 
-0.000000 0.009808 
-0.021818 -0.122790 
0.000000 0.000000 
0.021818 -0.122790 
-0.000000 -0.103690 

CELL_DATA 8

SCALARS epsilon float 4
LOOKUP_TABLE default
0.045145 -0.151754 0.000000 0.232059
0.045145 -0.151754 0.000000 -0.232059
-0.044153 0.087269 0.000000 -0.064061
-0.042521 0.218454 0.000000 0.006612
0.000000 0.186511 0.000000 0.000000
0.000000 0.186511 0.000000 0.000000
-0.042521 0.218454 0.000000 -0.006612
-0.044153 0.087269 0.000000 0.064061

SCALARS sigma float 4
LOOKUP_TABLE default
-1.770449 -7.310756 -2.494837 3.644771
-1.770449 -7.310756 -2.494837 -3.644771
-0.463946 1.704281 0.340752 -1.006609
0.816868 4.793025 1.541179 0.037363
1.717606 4.534479 1.717606 0.000000
1.717606 4.534479 1.717606 0.000000
0.816868 4.793025 1.541179 -0.037363
-0.463946 1.704281 0.340752 1.006609

