# vtk DataFile Version 2.0
Unstructured Grid Example
ASCII
DATASET UNSTRUCTURED_GRID

POINTS 1089 float
0.019076 -0.216342 0.000000 
0.980924 -0.216342 0.000000 
1.000000 1.000000 0.000000 
0.000000 1.000000 0.000000 
0.500000 -0.100000 0.000000 
0.979992 0.350743 0.000000 
0.500000 1.000000 0.000000 
0.020008 0.350743 0.000000 
0.500000 0.357739 0.000000 
0.274930 -0.140973 0.000000 
0.500000 0.108393 0.000000 
0.240707 0.085347 0.000000 
0.725070 -0.140973 0.000000 
0.759293 0.085347 0.000000 
1.002189 0.058890 0.000000 
0.744718 0.349487 0.000000 
0.958721 0.654954 0.000000 
0.734125 0.657812 0.000000 
0.750000 1.000000 0.000000 
0.500000 0.660680 0.000000 
0.250000 1.000000 0.000000 
0.265875 0.657812 0.000000 
0.041279 0.654954 0.000000 
0.255282 0.349487 0.000000 
-0.002189 0.058890 0.000000 
0.146036 -0.195151 0.000000 
0.243189 -0.030286 0.000000 
0.121876 -0.066546 0.000000 
0.500000 0.001570 0.000000 
0.373870 -0.002839 0.000000 
0.384327 -0.100000 0.000000 
0.372269 0.222187 0.000000 
0.369825 0.102685 0.000000 
0.500000 0.226245 0.000000 
0.615673 -0.100000 0.000000 
0.626130 -0.002839 0.000000 
0.878124 -0.066546 0.000000 
0.756811 -0.030286 0.000000 
0.853964 -0.195151 0.000000 
0.630175 0.102685 0.000000 
0.627731 0.222187 0.000000 
0.998370 -0.083529 0.000000 
0.882778 0.065515 0.000000 
0.863349 0.344997 0.000000 
0.875318 0.201969 0.000000 
0.993700 0.203886 0.000000 
0.753443 0.211808 0.000000 
0.623295 0.355530 0.000000 
0.966773 0.500388 0.000000 
0.852411 0.495751 0.000000 
0.853353 0.824723 0.000000 
0.847102 0.655354 0.000000 
0.962576 0.816551 0.000000 
0.737122 0.498324 0.000000 
0.619417 0.501929 0.000000 
0.875000 1.000000 0.000000 
0.738540 0.826241 0.000000 
0.500000 0.827043 0.000000 
0.620063 0.826797 0.000000 
0.625000 1.000000 0.000000 
0.618023 0.659841 0.000000 
0.500000 0.503450 0.000000 
0.375000 1.000000 0.000000 
0.379937 0.826797 0.000000 
0.146647 0.824723 0.000000 
0.261460 0.826241 0.000000 
0.125000 1.000000 0.000000 
0.381977 0.659841 0.000000 
0.380583 0.501929 0.000000 
0.037424 0.816551 0.000000 
0.152898 0.655354 0.000000 
0.136651 0.344997 0.000000 
0.147589 0.495751 0.000000 
0.033227 0.500388 0.000000 
0.262878 0.498324 0.000000 
0.376705 0.355530 0.000000 
0.006300 0.203886 0.000000 
0.124682 0.201969 0.000000 
0.117222 0.065515 0.000000 
0.001630 -0.083529 0.000000 
0.246557 0.211808 0.000000 
0.081764 -0.206796 0.000000 
0.131565 -0.131671 0.000000 
0.070602 -0.142989 0.000000 
0.251310 -0.084882 0.000000 
0.191549 -0.113714 0.000000 
0.211335 -0.176525 0.000000 
0.178139 0.011318 0.000000 
0.181822 -0.051074 0.000000 
0.240431 0.026230 0.000000 
0.500000 -0.049754 0.000000 
0.440145 -0.049999 0.000000 
0.441660 -0.100000 0.000000 
0.435640 0.052606 0.000000 
0.437499 0.000663 0.000000 
0.500000 0.053977 0.000000 
0.330387 -0.100000 0.000000 
0.379795 -0.051377 0.000000 
0.316568 -0.057717 0.000000 
0.437064 0.289527 0.000000 
0.436014 0.225197 0.000000 
0.500000 0.290302 0.000000 
0.304799 0.095354 0.000000 
0.370585 0.160683 0.000000 
0.306349 0.154749 0.000000 
0.500000 0.165661 0.000000 
0.435230 0.164373 0.000000 
0.434984 0.106949 0.000000 
0.308292 -0.011924 0.000000 
0.370637 0.048210 0.000000 
0.305082 0.039581 0.000000 
0.558340 -0.100000 0.000000 
0.559855 -0.049999 0.000000 
0.683432 -0.057717 0.000000 
0.620205 -0.051377 0.000000 
0.669613 -0.100000 0.000000 
0.562501 0.000663 0.000000 
0.564360 0.052606 0.000000 
0.929398 -0.142989 0.000000 
0.868435 -0.131671 0.000000 
0.918236 -0.206796 0.000000 
0.759569 0.026230 0.000000 
0.818178 -0.051074 0.000000 
0.821861 0.011318 0.000000 
0.788665 -0.176525 0.000000 
0.808451 -0.113714 0.000000 
0.748690 -0.084882 0.000000 
0.563986 0.225197 0.000000 
0.562936 0.289527 0.000000 
0.565016 0.106949 0.000000 
0.564770 0.164373 0.000000 
0.693651 0.154749 0.000000 
0.629415 0.160683 0.000000 
0.695201 0.095354 0.000000 
0.691708 -0.011924 0.000000 
0.694918 0.039581 0.000000 
0.629363 0.048210 0.000000 
0.990640 -0.151723 0.000000 
0.938215 -0.076755 0.000000 
0.942880 0.059941 0.000000 
0.942635 -0.008963 0.000000 
1.002239 -0.012912 0.000000 
0.882544 -0.000871 0.000000 
0.821753 0.074540 0.000000 
0.921800 0.345914 0.000000 
0.928574 0.272695 0.000000 
0.987108 0.276988 0.000000 
0.809772 0.275199 0.000000 
0.869528 0.272576 0.000000 
0.804377 0.346582 0.000000 
0.999020 0.131217 0.000000 
0.934862 0.200708 0.000000 
0.939936 0.129823 0.000000 
0.625578 0.287160 0.000000 
0.561780 0.357363 0.000000 
0.757013 0.147189 0.000000 
0.690983 0.217509 0.000000 
0.684331 0.352724 0.000000 
0.687730 0.283526 0.000000 
0.749174 0.279237 0.000000 
0.880021 0.133021 0.000000 
0.814892 0.206161 0.000000 
0.819128 0.139348 0.000000 
0.973047 0.425022 0.000000 
0.915286 0.420489 0.000000 
0.905122 0.574555 0.000000 
0.909530 0.496631 0.000000 
0.961765 0.576970 0.000000 
0.857475 0.419342 0.000000 
0.799300 0.420366 0.000000 
0.919907 0.910680 0.000000 
0.908420 0.822133 0.000000 
0.973228 0.902388 0.000000 
0.791005 0.656567 0.000000 
0.848331 0.738827 0.000000 
0.792360 0.740157 0.000000 
0.958543 0.734621 0.000000 
0.903402 0.736878 0.000000 
0.902766 0.654518 0.000000 
0.621132 0.427172 0.000000 
0.560664 0.428598 0.000000 
0.740550 0.422528 0.000000 
0.681145 0.425004 0.000000 
0.676907 0.578308 0.000000 
0.678570 0.500252 0.000000 
0.734846 0.576800 0.000000 
0.848732 0.574370 0.000000 
0.792084 0.575344 0.000000 
0.795032 0.496608 0.000000 
0.937500 1.000000 0.000000 
0.862681 0.912296 0.000000 
0.743650 0.912701 0.000000 
0.803612 0.912625 0.000000 
0.812500 1.000000 0.000000 
0.796585 0.825747 0.000000 
0.735301 0.741098 0.000000 
0.500000 0.912822 0.000000 
0.561200 0.912794 0.000000 
0.562500 1.000000 0.000000 
0.559418 0.742733 0.000000 
0.560129 0.826959 0.000000 
0.500000 0.742892 0.000000 
0.687500 1.000000 0.000000 
0.622285 0.912764 0.000000 
0.683146 0.912734 0.000000 
0.559817 0.503046 0.000000 
0.500000 0.429056 0.000000 
0.676421 0.658937 0.000000 
0.618329 0.579580 0.000000 
0.500000 0.580754 0.000000 
0.559284 0.580429 0.000000 
0.559136 0.660438 0.000000 
0.679606 0.826561 0.000000 
0.618599 0.742370 0.000000 
0.677306 0.741821 0.000000 
0.437500 1.000000 0.000000 
0.438800 0.912794 0.000000 
0.316854 0.912734 0.000000 
0.377715 0.912764 0.000000 
0.312500 1.000000 0.000000 
0.439871 0.826959 0.000000 
0.440582 0.742733 0.000000 
0.080093 0.910680 0.000000 
0.137319 0.912296 0.000000 
0.062500 1.000000 0.000000 
0.264699 0.741098 0.000000 
0.203415 0.825747 0.000000 
0.207640 0.740157 0.000000 
0.187500 1.000000 0.000000 
0.196388 0.912625 0.000000 
0.256350 0.912701 0.000000 
0.440183 0.503046 0.000000 
0.439336 0.428598 0.000000 
0.440864 0.660438 0.000000 
0.440716 0.580429 0.000000 
0.323093 0.578308 0.000000 
0.381671 0.579580 0.000000 
0.323579 0.658937 0.000000 
0.320394 0.826561 0.000000 
0.322694 0.741821 0.000000 
0.381401 0.742370 0.000000 
0.026772 0.902388 0.000000 
0.091580 0.822133 0.000000 
0.097234 0.654518 0.000000 
0.096598 0.736878 0.000000 
0.041457 0.734621 0.000000 
0.151669 0.738827 0.000000 
0.208995 0.656567 0.000000 
0.078200 0.345914 0.000000 
0.084714 0.420489 0.000000 
0.026953 0.425022 0.000000 
0.200700 0.420366 0.000000 
0.142525 0.419342 0.000000 
0.195623 0.346582 0.000000 
0.038235 0.576970 0.000000 
0.090470 0.496631 0.000000 
0.094878 0.574555 0.000000 
0.378868 0.427172 0.000000 
0.438220 0.357363 0.000000 
0.265154 0.576800 0.000000 
0.321430 0.500252 0.000000 
0.315669 0.352724 0.000000 
0.318855 0.425004 0.000000 
0.259450 0.422528 0.000000 
0.151268 0.574370 0.000000 
0.204968 0.496608 0.000000 
0.207916 0.575344 0.000000 
0.012892 0.276988 0.000000 
0.071426 0.272695 0.000000 
0.060064 0.129823 0.000000 
0.065138 0.200708 0.000000 
0.000980 0.131217 0.000000 
0.130472 0.272576 0.000000 
0.190228 0.275199 0.000000 
0.061785 -0.076755 0.000000 
0.009360 -0.151723 0.000000 
0.178247 0.074540 0.000000 
0.117456 -0.000871 0.000000 
-0.002239 -0.012912 0.000000 
0.057365 -0.008963 0.000000 
0.057120 0.059941 0.000000 
0.374422 0.287160 0.000000 
0.250826 0.279237 0.000000 
0.312270 0.283526 0.000000 
0.309017 0.217509 0.000000 
0.242987 0.147189 0.000000 
0.119979 0.133021 0.000000 
0.180872 0.139348 0.000000 
0.185108 0.206161 0.000000 
0.050261 -0.211526 0.000000 
0.076172 -0.175254 0.000000 
0.045104 -0.179871 0.000000 
0.138410 -0.163771 0.000000 
0.107303 -0.170075 0.000000 
0.113699 -0.201521 0.000000 
0.095940 -0.105223 0.000000 
0.101172 -0.137900 0.000000 
0.126019 -0.099199 0.000000 
0.259635 -0.112320 0.000000 
0.229957 -0.131322 0.000000 
0.243653 -0.162140 0.000000 
0.215681 -0.070897 0.000000 
0.221245 -0.100864 0.000000 
0.246302 -0.057720 0.000000 
0.178656 -0.187086 0.000000 
0.199919 -0.145278 0.000000 
0.169347 -0.155750 0.000000 
0.208796 0.049015 0.000000 
0.209003 0.018627 0.000000 
0.240266 0.055452 0.000000 
0.151814 -0.059551 0.000000 
0.179400 -0.019918 0.000000 
0.149143 -0.027438 0.000000 
0.241340 -0.002336 0.000000 
0.210048 -0.011386 0.000000 
0.212155 -0.041161 0.000000 
0.161700 -0.123792 0.000000 
0.185720 -0.082300 0.000000 
0.155917 -0.091669 0.000000 
0.500000 -0.075083 0.000000 
0.470582 -0.075054 0.000000 
0.470764 -0.100000 0.000000 
0.469458 -0.024315 0.000000 
0.470093 -0.049782 0.000000 
0.500000 -0.024190 0.000000 
0.412785 -0.100000 0.000000 
0.441217 -0.075121 0.000000 
0.411942 -0.075276 0.000000 
0.467618 0.080481 0.000000 
0.467869 0.053608 0.000000 
0.500000 0.080872 0.000000 
0.405901 -0.000629 0.000000 
0.436416 0.026397 0.000000 
0.404318 0.024810 0.000000 
0.500000 0.027587 0.000000 
0.468273 0.027272 0.000000 
0.468819 0.001341 0.000000 
0.306904 -0.100000 0.000000 
0.323899 -0.078038 0.000000 
0.290614 -0.086576 0.000000 
0.382769 -0.075570 0.000000 
0.353605 -0.076204 0.000000 
0.356635 -0.100000 0.000000 
0.344518 -0.030298 0.000000 
0.348880 -0.053276 0.000000 
0.376585 -0.027280 0.000000 
0.438806 -0.024755 0.000000 
0.407916 -0.025642 0.000000 
0.410097 -0.050466 0.000000 
[...]
POINT_DATA 1089

SCALARS u_h float 2
LOOKUP_TABLE default
0.019076 -0.216342 
-0.019076 -0.216342 
0.000000 0.000000 
0.000000 0.000000 
-0.000000 -0.100000 
-0.020008 -0.149257 
0.000000 0.000000 
0.020008 -0.149257 
0.000000 -0.142261 
0.024930 -0.140973 
0.000000 -0.141607 
-0.009293 -0.164653 
-0.024930 -0.140973 
0.009293 -0.164653 
0.002189 -0.191110 
-0.005282 -0.150513 
-0.041279 -0.095046 
-0.015875 -0.092188 
0.000000 0.000000 
0.000000 -0.089320 
0.000000 0.000000 
0.015875 -0.092188 
0.041279 -0.095046 
0.005282 -0.150513 
-0.002189 -0.191110 
0.021036 -0.195151 
-0.006811 -0.155286 
-0.003124 -0.191546 
0.000000 -0.123430 
-0.001130 -0.127839 
0.009327 -0.100000 
-0.002731 -0.152813 
-0.005175 -0.147315 
0.000000 -0.148755 
-0.009327 -0.100000 
0.001130 -0.127839 
0.003124 -0.191546 
0.006811 -0.155286 
-0.021036 -0.195151 
0.005175 -0.147315 
0.002731 -0.152813 
-0.001630 -0.208529 
0.007778 -0.184485 
-0.011651 -0.155003 
0.000318 -0.173031 
-0.006300 -0.171114 
0.003443 -0.163192 
-0.001705 -0.144470 
-0.033227 -0.124612 
-0.022589 -0.129249 
-0.021647 -0.050277 
-0.027898 -0.094646 
-0.037424 -0.058449 
-0.012878 -0.126676 
-0.005583 -0.123071 
0.000000 0.000000 
-0.011460 -0.048759 
0.000000 -0.047957 
-0.004937 -0.048203 
0.000000 0.000000 
-0.006977 -0.090159 
0.000000 -0.121550 
0.000000 0.000000 
0.004937 -0.048203 
0.021647 -0.050277 
0.011460 -0.048759 
0.000000 0.000000 
0.006977 -0.090159 
0.005583 -0.123071 
0.037424 -0.058449 
0.027898 -0.094646 
0.011651 -0.155003 
0.022589 -0.129249 
0.033227 -0.124612 
0.012878 -0.126676 
0.001705 -0.144470 
0.006300 -0.171114 
-0.000318 -0.173031 
-0.007778 -0.184485 
0.001630 -0.208529 
-0.003443 -0.163192 
0.019264 -0.206796 
0.006565 -0.194171 
0.008102 -0.205489 
0.001310 -0.147382 
0.004049 -0.176214 
0.023835 -0.176525 
-0.009361 -0.176182 
-0.005678 -0.176074 
-0.009569 -0.161270 
-0.000000 -0.112254 
0.002645 -0.112499 
0.004160 -0.100000 
-0.001860 -0.134894 
-0.000001 -0.124337 
0.000000 -0.133523 
0.017887 -0.100000 
0.004795 -0.113877 
0.004068 -0.120217 
-0.000436 -0.147973 
-0.001486 -0.149803 
0.000000 -0.147198 
-0.007701 -0.154646 
-0.004415 -0.151817 
-0.006151 -0.157751 
0.000000 -0.146839 
-0.002270 -0.148127 
-0.002516 -0.143051 
-0.004208 -0.136924 
-0.004363 -0.139290 
-0.007418 -0.147919 
-0.004160 -0.100000 
-0.002645 -0.112499 
-0.004068 -0.120217 
-0.004795 -0.113877 
-0.017887 -0.100000 
0.000001 -0.124337 
0.001860 -0.134894 
-0.008102 -0.205489 
-0.006565 -0.194171 
-0.019264 -0.206796 
0.009569 -0.161270 
0.005678 -0.176074 
0.009361 -0.176182 
-0.023835 -0.176525 
-0.004049 -0.176214 
-0.001310 -0.147382 
0.001486 -0.149803 
0.000436 -0.147973 
0.002516 -0.143051 
0.002270 -0.148127 
0.006151 -0.157751 
0.004415 -0.151817 
0.007701 -0.154646 
0.004208 -0.136924 
0.007418 -0.147919 
0.004363 -0.139290 
-0.009360 -0.214223 
0.000715 -0.201755 
0.005380 -0.190059 
0.005135 -0.196463 
0.002239 -0.200412 
0.007544 -0.188371 
0.009253 -0.175460 
-0.015700 -0.154086 
-0.008926 -0.164805 
-0.012892 -0.160512 
-0.002728 -0.162301 
-0.005472 -0.164924 
-0.008123 -0.153418 
-0.000980 -0.181283 
-0.002638 -0.174292 
0.002436 -0.182677 
0.000578 -0.150340 
-0.000720 -0.142637 
0.007013 -0.165311 
0.003483 -0.157491 
-0.003169 -0.147276 
0.000230 -0.153974 
-0.000826 -0.158263 
0.005021 -0.179479 
0.002392 -0.168839 
0.006628 -0.173152 
-0.026953 -0.137478 
-0.022214 -0.142011 
-0.032378 -0.112945 
-0.027970 -0.128369 
-0.038235 -0.110530 
-0.017525 -0.143158 
-0.013200 -0.142134 
-0.017593 -0.026820 
-0.029080 -0.052867 
-0.026772 -0.035112 
-0.021495 -0.093433 
-0.026669 -0.073673 
-0.020140 -0.072343 
-0.041457 -0.077879 
-0.034098 -0.075622 
-0.034734 -0.095482 
-0.003868 -0.135328 
-0.001836 -0.133902 
-0.009450 -0.139972 
-0.006355 -0.137496 
-0.010593 -0.109192 
-0.008930 -0.124748 
-0.015154 -0.110700 
-0.026268 -0.113130 
-0.020416 -0.112156 
-0.017468 -0.128392 
0.000000 0.000000 
-0.012319 -0.025204 
-0.006350 -0.024799 
-0.008888 -0.024875 
0.000000 0.000000 
-0.015915 -0.049253 
-0.014699 -0.071402 
0.000000 -0.024678 
-0.001300 -0.024706 
0.000000 0.000000 
-0.003082 -0.069767 
-0.002371 -0.048041 
0.000000 -0.069608 
0.000000 0.000000 
-0.002715 -0.024736 
-0.004354 -0.024766 
-0.002683 -0.121954 
0.000000 -0.133444 
-0.011079 -0.091063 
-0.006671 -0.107920 
0.000000 -0.106746 
-0.003216 -0.107071 
-0.003364 -0.089562 
-0.007894 -0.048439 
-0.006401 -0.070130 
-0.010194 -0.070679 
0.000000 0.000000 
0.001300 -0.024706 
0.004354 -0.024766 
0.002715 -0.024736 
0.000000 0.000000 
0.002371 -0.048041 
0.003082 -0.069767 
0.017593 -0.026820 
0.012319 -0.025204 
0.000000 0.000000 
0.014699 -0.071402 
0.015915 -0.049253 
0.020140 -0.072343 
0.000000 0.000000 
0.008888 -0.024875 
0.006350 -0.024799 
0.002683 -0.121954 
0.001836 -0.133902 
0.003364 -0.089562 
0.003216 -0.107071 
0.010593 -0.109192 
0.006671 -0.107920 
0.011079 -0.091063 
0.007894 -0.048439 
0.010194 -0.070679 
0.006401 -0.070130 
0.026772 -0.035112 
0.029080 -0.052867 
0.034734 -0.095482 
0.034098 -0.075622 
0.041457 -0.077879 
0.026669 -0.073673 
0.021495 -0.093433 
0.015700 -0.154086 
0.022214 -0.142011 
0.026953 -0.137478 
0.013200 -0.142134 
0.017525 -0.143158 
0.008123 -0.153418 
0.038235 -0.110530 
0.027970 -0.128369 
0.032378 -0.112945 
0.003868 -0.135328 
0.000720 -0.142637 
0.015154 -0.110700 
0.008930 -0.124748 
0.003169 -0.147276 
0.006355 -0.137496 
0.009450 -0.139972 
0.026268 -0.113130 
0.017468 -0.128392 
0.020416 -0.112156 
0.012892 -0.160512 
0.008926 -0.164805 
-0.002436 -0.182677 
0.002638 -0.174292 
0.000980 -0.181283 
0.005472 -0.164924 
0.002728 -0.162301 
-0.000715 -0.201755 
0.009360 -0.214223 
-0.009253 -0.175460 
-0.007544 -0.188371 
-0.002239 -0.200412 
-0.005135 -0.196463 
-0.005380 -0.190059 
-0.000578 -0.150340 
0.000826 -0.158263 
-0.000230 -0.153974 
-0.003483 -0.157491 
-0.007013 -0.165311 
-0.005021 -0.179479 
-0.006628 -0.173152 
-0.002392 -0.168839 
0.019011 -0.211526 
0.013672 -0.206504 
0.013854 -0.211121 
0.013410 -0.195021 
0.013553 -0.201325 
0.019949 -0.201521 
0.002190 -0.198973 
0.007422 -0.200400 
0.001019 -0.192949 
0.009635 -0.143570 
0.011207 -0.162572 
0.024903 -0.162140 
-0.003069 -0.164647 
0.002495 -0.163364 
-0.003698 -0.151470 
0.022406 -0.187086 
0.012419 -0.176528 
0.013097 -0.187000 
-0.009954 -0.169735 
-0.009747 -0.168873 
-0.009734 -0.163298 
-0.004436 -0.184551 
-0.008100 -0.176168 
-0.007107 -0.183688 
-0.008660 -0.158586 
-0.008702 -0.167636 
-0.006595 -0.166161 
0.005450 -0.186292 
-0.001780 -0.176050 
-0.000333 -0.185419 
-0.000000 -0.106333 
0.001832 -0.106304 
0.002014 -0.100000 
0.000708 -0.118065 
0.001343 -0.112282 
0.000000 -0.117940 
0.006535 -0.100000 
0.003717 -0.106371 
0.005692 -0.106526 
-0.001132 -0.138269 
-0.000881 -0.133892 
0.000000 -0.137878 
-0.000349 -0.125629 
-0.001084 -0.129853 
-0.001932 -0.131440 
0.000000 -0.128663 
-0.000477 -0.128978 
0.000069 -0.123659 
0.025654 -0.100000 
0.011399 -0.109288 
0.009364 -0.117826 
0.007769 -0.106820 
0.009855 -0.107454 
0.012885 -0.100000 
0.000768 -0.124048 
0.005130 -0.115776 
0.001585 -0.121030 
0.001306 -0.118505 
0.001666 -0.119392 
0.003847 -0.112966 
0.000030 -0.145241 
-0.000245 -0.147378 
0.000000 -0.145135 
-0.002153 -0.151075 
-0.000981 -0.149328 
-0.001383 -0.150460 
0.000000 -0.148411 
-0.000512 -0.148641 
-0.000760 -0.149025 
-0.008675 -0.159385 
-0.007105 -0.156630 
-0.007886 -0.160788 
-0.004946 -0.150006 
-0.006096 -0.153006 
-0.006495 -0.150597 
-0.004369 -0.155180 
-0.005361 -0.154528 
-0.003657 -0.152752 
0.000000 -0.144617 
-0.001239 -0.144988 
-0.001244 -0.141996 
-0.000976 -0.148535 
-0.001142 -0.147181 
0.000000 -0.148227 
-0.003832 -0.144810 
-0.002481 -0.146000 
-0.003725 -0.147669 
-0.002830 -0.150812 
-0.003371 -0.149675 
-0.001926 -0.149400 
0.001694 -0.129526 
-0.002449 -0.131425 
-0.000919 -0.129411 
-0.002978 -0.138134 
-0.005968 -0.144766 
-0.002326 -0.139326 
-0.005016 -0.143742 
-0.003620 -0.141120 
-0.003011 -0.136642 
-0.003104 -0.133972 
-0.008999 -0.157156 
-0.007800 -0.149974 
-0.008751 -0.154049 
-0.007844 -0.151762 
-0.006461 -0.147276 
-0.004600 -0.137739 
-0.005878 -0.143006 
-0.006274 -0.143021 
-0.002014 -0.100000 
-0.001832 -0.106304 
-0.005692 -0.106526 
-0.003717 -0.106371 
-0.006535 -0.100000 
-0.001343 -0.112282 
-0.000708 -0.118065 
-0.009364 -0.117826 
-0.011399 -0.109288 
-0.025654 -0.100000 
-0.001585 -0.121030 
-0.005130 -0.115776 
-0.000768 -0.124048 
-0.012885 -0.100000 
-0.009855 -0.107454 
-0.007769 -0.106820 
0.000881 -0.133892 
0.001132 -0.138269 
-0.000069 -0.123659 
0.000477 -0.128978 
0.001932 -0.131440 
0.001084 -0.129853 
0.000349 -0.125629 
-0.003847 -0.112966 
-0.001666 -0.119392 
-0.001306 -0.118505 
-0.013854 -0.211121 
-0.013672 -0.206504 
-0.019011 -0.211526 
-0.001019 -0.192949 
-0.007422 -0.200400 
-0.002190 -0.198973 
-0.019949 -0.201521 
-0.013553 -0.201325 
-0.013410 -0.195021 
0.009734 -0.163298 
0.009747 -0.168873 
0.009954 -0.169735 
0.006595 -0.166161 
0.008702 -0.167636 
0.008660 -0.158586 
0.007107 -0.183688 
0.008100 -0.176168 
0.004436 -0.184551 
-0.024903 -0.162140 
-0.011207 -0.162572 
-0.009635 -0.143570 
-0.013097 -0.187000 
-0.012419 -0.176528 
-0.022406 -0.187086 
0.003698 -0.151470 
-0.002495 -0.163364 
0.003069 -0.164647 
0.000333 -0.185419 
0.001780 -0.176050 
-0.005450 -0.186292 
0.000245 -0.147378 
-0.000030 -0.145241 
0.000760 -0.149025 
0.000512 -0.148641 
0.001383 -0.150460 
0.000981 -0.149328 
0.002153 -0.151075 
0.001244 -0.141996 
0.001239 -0.144988 
0.003725 -0.147669 
0.002481 -0.146000 
0.003832 -0.144810 
0.001142 -0.147181 
0.000976 -0.148535 
0.007886 -0.160788 
0.007105 -0.156630 
0.008675 -0.159385 
0.003657 -0.152752 
0.005361 -0.154528 
0.004369 -0.155180 
0.006495 -0.150597 
0.006096 -0.153006 
0.004946 -0.150006 
0.001926 -0.149400 
0.003371 -0.149675 
0.002830 -0.150812 
-0.001694 -0.129526 
0.005968 -0.144766 
0.002978 -0.138134 
0.000919 -0.129411 
0.002449 -0.131425 
0.008999 -0.157156 
0.006461 -0.147276 
0.007844 -0.151762 
0.008751 -0.154049 
0.007800 -0.149974 
0.002326 -0.139326 
0.003104 -0.133972 
0.003011 -0.136642 
0.003620 -0.141120 
0.005016 -0.143742 
0.006274 -0.143021 
0.005878 -0.143006 
0.004600 -0.137739 
-0.014158 -0.215751 
-0.008706 -0.209928 
-0.000407 -0.205447 
-0.004109 -0.207999 
-0.005079 -0.211770 
-0.003194 -0.203863 
0.001874 -0.197206 
0.003899 -0.191220 
0.004304 -0.195209 
0.002663 -0.195854 
0.006989 -0.190477 
0.005724 -0.193387 
0.006673 -0.187773 
0.000822 -0.204684 
0.003785 -0.198955 
0.002234 -0.202396 
0.009689 -0.175982 
0.009483 -0.170132 
0.005934 -0.190024 
0.008574 -0.182757 
0.008659 -0.180323 
0.009036 -0.181665 
0.008107 -0.186543 
0.003491 -0.199266 
0.006381 -0.192942 
0.004713 -0.195184 
-0.017842 -0.152266 
-0.014324 -0.157892 
-0.016428 -0.154982 
-0.010357 -0.160317 
-0.012291 -0.159608 
-0.013624 -0.154939 
-0.009487 -0.165879 
-0.010859 -0.163272 
-0.007520 -0.168421 
-0.004144 -0.156549 
-0.005426 -0.158158 
-0.006611 -0.152064 
-0.002488 -0.169195 
-0.004000 -0.163870 
-0.001182 -0.167792 
-0.009809 -0.154445 
-0.006900 -0.159426 
-0.008551 -0.160199 
0.000934 -0.186242 
0.000830 -0.182651 
0.002696 -0.187028 
-0.004392 -0.173356 
-0.001572 -0.178096 
-0.003430 -0.176243 
0.001585 -0.178004 
0.000103 -0.178615 
-0.001061 -0.174120 
-0.007122 -0.165295 
-0.003995 -0.169890 
-0.005680 -0.169694 
-0.000135 -0.145738 
-0.000340 -0.142219 
0.001690 -0.152007 
0.000554 -0.148970 
-0.001165 -0.143405 
-0.000305 -0.146614 
-0.000566 -0.147823 
0.008355 -0.165327 
0.006722 -0.161393 
0.003579 -0.160270 
0.005262 -0.161217 
0.005350 -0.164601 
0.004920 -0.158033 
0.003187 -0.154974 
-0.004137 -0.148883 
-0.002175 -0.152859 
-0.003061 -0.154740 
-0.000948 -0.149312 
-0.001476 -0.151017 
-0.002365 -0.145781 
0.001362 -0.161080 
-0.000198 -0.156086 
0.001739 -0.158558 
0.001874 -0.153921 
0.001901 -0.156134 
0.000480 -0.152030 
0.004238 -0.186489 
0.002855 -0.176451 
0.003837 -0.181560 
0.005576 -0.184809 
0.006704 -0.182145 
-0.001668 -0.160381 
0.003050 -0.166105 
0.000752 -0.163564 
-0.000097 -0.165857 
0.001476 -0.171209 
0.008458 -0.170004 
0.007592 -0.178659 
0.008193 -0.174537 
0.006984 -0.169308 
0.005153 -0.168015 
0.003889 -0.174141 
0.004663 -0.171263 
0.005963 -0.176613 
-0.023530 -0.143498 
-0.021278 -0.146404 
-0.027744 -0.133764 
-0.024600 -0.140247 
-0.030210 -0.131187 
-0.019018 -0.148232 
-0.016797 -0.149151 
-0.037038 -0.104047 
-0.035373 -0.112102 
-0.040052 -0.102977 
-0.025269 -0.129091 
-0.030383 -0.120894 
-0.027507 -0.121430 
-0.035930 -0.117733 
-0.033210 -0.119719 
-0.030639 -0.126931 
-0.010731 -0.148080 
-0.008997 -0.146928 
-0.014655 -0.149330 
-0.012624 -0.148925 
-0.017774 -0.136203 
-0.015301 -0.142848 
-0.020193 -0.136471 
-0.025222 -0.135398 
-0.022689 -0.136249 
-0.019842 -0.142928 
-0.011703 -0.014515 
-0.021732 -0.029546 
-0.017247 -0.020352 
-0.025143 -0.051276 
-0.024294 -0.040239 
-0.020574 -0.038678 
-0.033157 -0.047470 
-0.028644 -0.043038 
-0.033301 -0.055243 
-0.018579 -0.092803 
-0.021155 -0.083168 
-0.018229 -0.082590 
-0.027698 -0.084475 
-0.024319 -0.083797 
-0.024612 -0.094057 
-0.021375 -0.061536 
-0.023267 -0.072943 
-0.024688 -0.062255 
-0.041796 -0.086698 
-0.038431 -0.086448 
-0.038098 -0.095512 
-0.036259 -0.066428 
-0.037883 -0.076784 
-0.040080 -0.068507 
-0.031300 -0.095149 
-0.034863 -0.085879 
-0.031243 -0.085186 
-0.028335 -0.063261 
-0.030309 -0.074565 
-0.032250 -0.064643 
-0.001311 -0.138685 
-0.000661 -0.138310 
-0.002830 -0.140299 
-0.002024 -0.139361 
-0.003501 -0.128849 
-0.002808 -0.134502 
-0.004793 -0.129577 
-0.007433 -0.145589 
-0.006041 -0.144171 
-0.009430 -0.132570 
-0.007821 -0.138730 
-0.011283 -0.133665 
-0.004819 -0.142765 
-0.003754 -0.141452 
-0.013273 -0.101071 
-0.012786 -0.109932 
-0.015733 -0.101748 
-0.007189 -0.123855 
-0.009893 -0.117308 
-0.007985 -0.116526 
-0.014186 -0.119016 
-0.011956 -0.118152 
-0.010823 -0.125705 
-0.005043 -0.136342 
-0.007738 -0.131484 
-0.006198 -0.130469 
-0.033864 -0.104488 
-0.027386 -0.104193 
-0.030619 -0.104489 
-0.029320 -0.113239 
-0.024640 -0.121476 
-0.018384 -0.102435 
-0.016583 -0.119848 
-0.017699 -0.111457 
-0.021225 -0.103102 
-0.024237 -0.103706 
-0.011245 -0.141139 
-0.019976 -0.128977 
-0.015467 -0.135573 
-0.013298 -0.134694 
-0.015096 -0.127596 
-0.023284 -0.112738 
-0.019140 -0.120587 
-0.021837 -0.121159 
0.000000 0.000000 
-0.009162 -0.013155 
-0.006352 -0.012535 
-0.007548 -0.012702 
0.000000 0.000000 
-0.014613 -0.025696 
-0.017499 -0.037860 
-0.003275 -0.012484 
-0.003887 -0.012472 
0.000000 0.000000 
-0.010798 -0.037016 
-0.007535 -0.024826 
-0.009110 -0.036909 
0.000000 0.000000 
-0.004584 -0.012466 
-0.005392 -0.012478 
-0.017289 -0.071838 
-0.015541 -0.082057 
-0.018591 -0.049656 
-0.018399 -0.061011 
-0.013336 -0.060280 
-0.015732 -0.060608 
-0.013556 -0.048972 
-0.010457 -0.024980 
-0.012715 -0.037170 
-0.014920 -0.037420 
0.000000 -0.012505 
-0.000330 -0.012511 
0.000000 0.000000 
-0.000927 -0.036527 
-0.000642 -0.024692 
0.000000 -0.036504 
0.000000 0.000000 
-0.000668 -0.012514 
-0.001022 -0.012515 
-0.001624 -0.079793 
-0.001526 -0.069662 
0.000000 -0.079728 
-0.003618 -0.048113 
-0.002777 -0.059124 
-0.004235 -0.059236 
0.000000 -0.059004 
-0.001375 -0.059047 
-0.001173 -0.047990 
0.000000 0.000000 
-0.002244 -0.012505 
-0.002732 -0.012495 
-0.001397 -0.012514 
-0.001802 -0.012511 
0.000000 0.000000 
-0.005032 -0.036696 
-0.003499 -0.024751 
-0.003907 -0.036642 
-0.001874 -0.036557 
-0.002861 -0.036596 
-0.001987 -0.024720 
-0.000914 -0.133549 
0.000000 -0.138240 
-0.004090 -0.122430 
-0.002294 -0.128313 
0.000000 -0.127875 
-0.001138 -0.127987 
-0.001329 -0.121659 
-0.013380 -0.091604 
-0.010998 -0.100431 
-0.006930 -0.099345 
-0.008891 -0.099850 
-0.008953 -0.090577 
-0.008561 -0.108512 
-0.006216 -0.115841 
0.000000 -0.098341 
-0.001656 -0.098426 
-0.001667 -0.089395 
-0.001483 -0.114598 
-0.001594 -0.106840 
0.000000 -0.114495 
-0.005124 -0.089818 
-0.003342 -0.098624 
-0.005090 -0.098933 
-0.004561 -0.115279 
-0.004899 -0.107434 
-0.002993 -0.114861 
-0.005298 -0.024781 
-0.006354 -0.048312 
-0.006257 -0.036757 
-0.007607 -0.036827 
-0.009585 -0.048586 
-0.003278 -0.079928 
-0.006803 -0.080405 
-0.004994 -0.080133 
-0.004697 -0.069924 
-0.005775 -0.059380 
-0.013076 -0.081570 
-0.011175 -0.060004 
-0.012343 -0.071018 
-0.010815 -0.081129 
-0.008733 -0.080739 
-0.007426 -0.059557 
-0.008224 -0.070382 
-0.009216 -0.059764 
0.000000 0.000000 
0.000330 -0.012511 
0.001022 -0.012515 
0.000668 -0.012514 
0.000000 0.000000 
0.000642 -0.024692 
0.000927 -0.036527 
0.002732 -0.012495 
0.002244 -0.012505 
0.000000 0.000000 
0.003907 -0.036642 
0.003499 -0.024751 
0.005032 -0.036696 
0.000000 0.000000 
0.001802 -0.012511 
0.001397 -0.012514 
0.001526 -0.069662 
0.001624 -0.079793 
0.001173 -0.047990 
0.001375 -0.059047 
0.004235 -0.059236 
0.002777 -0.059124 
0.003618 -0.048113 
0.001987 -0.024720 
0.002861 -0.036596 
0.001874 -0.036557 
0.011703 -0.014515 
0.009162 -0.013155 
0.000000 0.000000 
0.017499 -0.037860 
0.014613 -0.025696 
0.020574 -0.038678 
0.000000 0.000000 
0.007548 -0.012702 
0.006352 -0.012535 
0.015541 -0.082057 
0.017289 -0.071838 
0.018229 -0.082590 
0.013556 -0.048972 
0.015732 -0.060608 
0.013336 -0.060280 
0.021375 -0.061536 
0.018399 -0.061011 
0.018591 -0.049656 
0.000000 0.000000 
0.003887 -0.012472 
0.003275 -0.012484 
0.005392 -0.012478 
0.004584 -0.012466 
0.000000 0.000000 
0.009110 -0.036909 
0.007535 -0.024826 
0.010798 -0.037016 
0.014920 -0.037420 
0.012715 -0.037170 
0.010457 -0.024980 
0.000914 -0.133549 
0.000661 -0.138310 
0.001329 -0.121659 
0.001138 -0.127987 
0.003501 -0.128849 
0.002294 -0.128313 
0.004090 -0.122430 
0.001667 -0.089395 
0.001656 -0.098426 
0.005090 -0.098933 
0.003342 -0.098624 
0.005124 -0.089818 
0.001594 -0.106840 
0.001483 -0.114598 
0.013273 -0.101071 
0.010998 -0.100431 
0.013380 -0.091604 
0.006216 -0.115841 
0.008561 -0.108512 
0.007985 -0.116526 
0.008953 -0.090577 
0.008891 -0.099850 
0.006930 -0.099345 
0.002993 -0.114861 
0.004899 -0.107434 
0.004561 -0.115279 
0.005298 -0.024781 
0.009585 -0.048586 
0.007607 -0.036827 
0.006257 -0.036757 
0.006354 -0.048312 
0.013076 -0.081570 
0.008733 -0.080739 
0.010815 -0.081129 
0.012343 -0.071018 
0.011175 -0.060004 
0.003278 -0.079928 
0.005775 -0.059380 
0.004697 -0.069924 
0.004994 -0.080133 
0.006803 -0.080405 
0.009216 -0.059764 
0.008224 -0.070382 
0.007426 -0.059557 
0.017247 -0.020352 
0.021732 -0.029546 
0.033301 -0.055243 
0.028644 -0.043038 
0.033157 -0.047470 
0.024294 -0.040239 
0.025143 -0.051276 
0.038098 -0.095512 
0.038431 -0.086448 
0.041796 -0.086698 
0.031243 -0.085186 
0.034863 -0.085879 
0.031300 -0.095149 
0.040080 -0.068507 
0.037883 -0.076784 
0.036259 -0.066428 
0.021155 -0.083168 
0.018579 -0.092803 
0.024688 -0.062255 
0.023267 -0.072943 
0.024612 -0.094057 
0.024319 -0.083797 
0.027698 -0.084475 
0.032250 -0.064643 
0.030309 -0.074565 
0.028335 -0.063261 
0.017842 -0.152266 
0.021278 -0.146404 
0.023530 -0.143498 
0.016797 -0.149151 
0.019018 -0.148232 
0.013624 -0.154939 
0.030210 -0.131187 
0.024600 -0.140247 
0.027744 -0.133764 
0.008997 -0.146928 
0.010731 -0.148080 
0.006611 -0.152064 
0.020193 -0.136471 
0.015301 -0.142848 
0.017774 -0.136203 
0.009809 -0.154445 
0.012624 -0.148925 
0.014655 -0.149330 
0.040052 -0.102977 
0.035373 -0.112102 
0.037038 -0.104047 
0.030639 -0.126931 
0.033210 -0.119719 
0.035930 -0.117733 
0.027507 -0.121430 
0.030383 -0.120894 
0.025269 -0.129091 
0.019842 -0.142928 
0.022689 -0.136249 
0.025222 -0.135398 
0.001311 -0.138685 
0.000340 -0.142219 
0.004793 -0.129577 
0.002808 -0.134502 
0.001165 -0.143405 
0.002024 -0.139361 
0.002830 -0.140299 
0.015733 -0.101748 
0.012786 -0.109932 
0.010823 -0.125705 
0.011956 -0.118152 
0.014186 -0.119016 
0.009893 -0.117308 
0.007189 -0.123855 
0.004137 -0.148883 
0.006041 -0.144171 
0.007433 -0.145589 
0.003754 -0.141452 
0.004819 -0.142765 
0.002365 -0.145781 
0.011283 -0.133665 
0.007821 -0.138730 