# vtk DataFile Version 2.0
Unstructured Grid Example
ASCII
DATASET UNSTRUCTURED_GRID

POINTS 4225 float
0.018470 -0.213202 0.000000 
0.981530 -0.213202 0.000000 
1.000000 1.000000 0.000000 
0.000000 1.000000 0.000000 
0.500000 -0.100000 0.000000 
0.980492 0.352519 0.000000 
0.500000 1.000000 0.000000 
0.019508 0.352519 0.000000 
0.500000 0.358906 0.000000 
0.276546 -0.128917 0.000000 
0.500000 0.109104 0.000000 
0.240703 0.087812 0.000000 
0.723454 -0.128917 0.000000 
0.759297 0.087812 0.000000 
1.003158 0.061779 0.000000 
0.744771 0.350775 0.000000 
0.958866 0.655891 0.000000 
0.734100 0.658383 0.000000 
0.750000 1.000000 0.000000 
0.500000 0.661128 0.000000 
0.250000 1.000000 0.000000 
0.265900 0.658383 0.000000 
0.041134 0.655891 0.000000 
0.255229 0.350775 0.000000 
-0.003158 0.061779 0.000000 
0.145846 -0.191554 0.000000 
0.243088 -0.025994 0.000000 
0.120945 -0.062957 0.000000 
0.500000 0.001777 0.000000 
0.374112 -0.001929 0.000000 
0.382902 -0.100000 0.000000 
0.372398 0.223424 0.000000 
0.370089 0.103989 0.000000 
0.500000 0.227240 0.000000 
0.617098 -0.100000 0.000000 
0.625888 -0.001929 0.000000 
0.879055 -0.062957 0.000000 
0.756912 -0.025994 0.000000 
0.854154 -0.191554 0.000000 
0.629911 0.103989 0.000000 
0.627602 0.223424 0.000000 
0.999181 -0.080737 0.000000 
0.883494 0.068455 0.000000 
0.863630 0.346583 0.000000 
0.875727 0.204150 0.000000 
0.994404 0.206365 0.000000 
0.753474 0.213563 0.000000 
0.623243 0.356569 0.000000 
0.967075 0.501765 0.000000 
0.852571 0.496865 0.000000 
0.853194 0.824991 0.000000 
0.847128 0.656032 0.000000 
0.962443 0.816903 0.000000 
0.737168 0.499238 0.000000 
0.619428 0.502715 0.000000 
0.875000 1.000000 0.000000 
0.738470 0.826511 0.000000 
0.500000 0.827253 0.000000 
0.620034 0.827048 0.000000 
0.625000 1.000000 0.000000 
0.618005 0.660350 0.000000 
0.500000 0.504193 0.000000 
0.375000 1.000000 0.000000 
0.379966 0.827048 0.000000 
0.146806 0.824991 0.000000 
0.261530 0.826511 0.000000 
0.125000 1.000000 0.000000 
0.381995 0.660350 0.000000 
0.380572 0.502715 0.000000 
0.037557 0.816903 0.000000 
0.152872 0.656032 0.000000 
0.136370 0.346583 0.000000 
0.147429 0.496865 0.000000 
0.032925 0.501765 0.000000 
0.262832 0.499238 0.000000 
0.376757 0.356569 0.000000 
0.005596 0.206365 0.000000 
0.124273 0.204150 0.000000 
0.116506 0.068455 0.000000 
0.000819 -0.080737 0.000000 
0.246526 0.213563 0.000000 
0.081255 -0.203569 0.000000 
0.130965 -0.128121 0.000000 
0.070066 -0.139871 0.000000 
0.250613 -0.077624 0.000000 
0.190569 -0.108836 0.000000 
0.212041 -0.171891 0.000000 
0.177539 0.014886 0.000000 
0.180910 -0.046686 0.000000 
0.240433 0.029322 0.000000 
0.500000 -0.049692 0.000000 
0.439887 -0.049943 0.000000 
0.441119 -0.100000 0.000000 
0.435792 0.053291 0.000000 
0.437531 0.001018 0.000000 
0.500000 0.054438 0.000000 
0.326937 -0.100000 0.000000 
0.379434 -0.051113 0.000000 
0.316955 -0.055840 0.000000 
0.437141 0.290588 0.000000 
0.436108 0.226265 0.000000 
0.500000 0.291368 0.000000 
0.305037 0.097203 0.000000 
0.370771 0.161977 0.000000 
0.306496 0.156405 0.000000 
0.500000 0.166550 0.000000 
0.435353 0.165398 0.000000 
0.435139 0.107856 0.000000 
0.308820 -0.009707 0.000000 
0.370967 0.049429 0.000000 
0.305453 0.041635 0.000000 
0.558881 -0.100000 0.000000 
0.560113 -0.049943 0.000000 
0.683045 -0.055840 0.000000 
0.620566 -0.051113 0.000000 
0.673063 -0.100000 0.000000 
0.562469 0.001018 0.000000 
0.564208 0.053291 0.000000 
0.929934 -0.139871 0.000000 
0.869035 -0.128121 0.000000 
0.918745 -0.203569 0.000000 
0.759567 0.029322 0.000000 
0.819090 -0.046686 0.000000 
0.822461 0.014886 0.000000 
0.787959 -0.171891 0.000000 
0.809431 -0.108836 0.000000 
0.749387 -0.077624 0.000000 
0.563892 0.226265 0.000000 
0.562859 0.290588 0.000000 
0.564861 0.107856 0.000000 
0.564647 0.165398 0.000000 
0.693504 0.156405 0.000000 
0.629229 0.161977 0.000000 
0.694963 0.097203 0.000000 
0.691180 -0.009707 0.000000 
0.694547 0.041635 0.000000 
0.629033 0.049429 0.000000 
0.991188 -0.148871 0.000000 
0.939053 -0.073640 0.000000 
0.943765 0.062793 0.000000 
0.943596 -0.005924 0.000000 
1.003226 -0.010028 0.000000 
0.883429 0.002467 0.000000 
0.822157 0.077430 0.000000 
0.922198 0.347627 0.000000 
0.929028 0.274699 0.000000 
0.987695 0.279136 0.000000 
0.809944 0.276902 0.000000 
0.869847 0.274444 0.000000 
0.804536 0.348023 0.000000 
0.999866 0.133958 0.000000 
0.935432 0.203012 0.000000 
0.940661 0.132418 0.000000 
0.625491 0.288310 0.000000 
0.561737 0.358366 0.000000 
0.757033 0.149247 0.000000 
0.690894 0.218988 0.000000 
0.684311 0.353870 0.000000 
0.687681 0.284837 0.000000 
0.749214 0.280744 0.000000 
0.880566 0.135560 0.000000 
0.815107 0.208169 0.000000 
0.819416 0.141736 0.000000 
0.973434 0.426614 0.000000 
0.915594 0.421955 0.000000 
0.905286 0.575558 0.000000 
0.909764 0.497865 0.000000 
0.961995 0.578128 0.000000 
0.857692 0.420682 0.000000 
0.799430 0.421580 0.000000 
0.919580 0.910713 0.000000 
0.908239 0.822404 0.000000 
0.972957 0.902035 0.000000 
0.790995 0.657185 0.000000 
0.848266 0.739293 0.000000 
0.792289 0.740591 0.000000 
0.958572 0.735317 0.000000 
0.903374 0.737397 0.000000 
0.902850 0.655285 0.000000 
0.621135 0.428090 0.000000 
0.560676 0.429496 0.000000 
0.740610 0.423622 0.000000 
0.681161 0.425994 0.000000 
0.676908 0.578994 0.000000 
0.678589 0.501090 0.000000 
0.734861 0.577540 0.000000 
0.848831 0.575265 0.000000 
0.792132 0.576154 0.000000 
0.795126 0.497615 0.000000 
0.937500 1.000000 0.000000 
0.862532 0.912424 0.000000 
0.743605 0.912839 0.000000 
0.803535 0.912764 0.000000 
0.812500 1.000000 0.000000 
0.796478 0.826020 0.000000 
0.735242 0.741511 0.000000 
0.500000 0.912925 0.000000 
0.561189 0.912912 0.000000 
0.562500 1.000000 0.000000 
0.559404 0.743089 0.000000 
0.560114 0.827194 0.000000 
0.500000 0.743215 0.000000 
0.687500 1.000000 0.000000 
0.622267 0.912891 0.000000 
0.683117 0.912867 0.000000 
0.559828 0.503806 0.000000 
0.500000 0.429981 0.000000 
0.676396 0.659475 0.000000 
0.618328 0.580228 0.000000 
0.500000 0.581341 0.000000 
0.559285 0.581047 0.000000 
0.559128 0.660921 0.000000 
0.679561 0.826823 0.000000 
0.618571 0.742748 0.000000 
0.677262 0.742217 0.000000 
0.437500 1.000000 0.000000 
0.438811 0.912912 0.000000 
0.316883 0.912867 0.000000 
0.377733 0.912891 0.000000 
0.312500 1.000000 0.000000 
0.439886 0.827194 0.000000 
0.440596 0.743089 0.000000 
0.080420 0.910713 0.000000 
0.137468 0.912424 0.000000 
0.062500 1.000000 0.000000 
0.264758 0.741511 0.000000 
0.203522 0.826020 0.000000 
0.207711 0.740591 0.000000 
0.187500 1.000000 0.000000 
0.196465 0.912764 0.000000 
0.256395 0.912839 0.000000 
0.440172 0.503806 0.000000 
0.439324 0.429496 0.000000 
0.440872 0.660921 0.000000 
0.440715 0.581047 0.000000 
0.323092 0.578994 0.000000 
0.381672 0.580228 0.000000 
0.323604 0.659475 0.000000 
0.320439 0.826823 0.000000 
0.322738 0.742217 0.000000 
0.381429 0.742748 0.000000 
0.027043 0.902035 0.000000 
0.091761 0.822404 0.000000 
0.097150 0.655285 0.000000 
0.096626 0.737397 0.000000 
0.041428 0.735317 0.000000 
0.151734 0.739293 0.000000 
0.209005 0.657185 0.000000 
0.077802 0.347627 0.000000 
0.084406 0.421955 0.000000 
0.026566 0.426614 0.000000 
0.200570 0.421580 0.000000 
0.142308 0.420682 0.000000 
0.195464 0.348023 0.000000 
0.038005 0.578128 0.000000 
0.090236 0.497865 0.000000 
0.094714 0.575558 0.000000 
0.378865 0.428090 0.000000 
0.438263 0.358366 0.000000 
0.265139 0.577540 0.000000 
0.321411 0.501090 0.000000 
0.315689 0.353870 0.000000 
0.318839 0.425994 0.000000 
0.259390 0.423622 0.000000 
0.151169 0.575265 0.000000 
0.204874 0.497615 0.000000 
0.207868 0.576154 0.000000 
0.012305 0.279136 0.000000 
0.070972 0.274699 0.000000 
0.059339 0.132418 0.000000 
0.064568 0.203012 0.000000 
0.000134 0.133958 0.000000 
0.130153 0.274444 0.000000 
0.190056 0.276902 0.000000 
0.060947 -0.073640 0.000000 
0.008812 -0.148871 0.000000 
0.177843 0.077430 0.000000 
0.116571 0.002467 0.000000 
-0.003226 -0.010028 0.000000 
0.056404 -0.005924 0.000000 
0.056235 0.062793 0.000000 
0.374509 0.288310 0.000000 
0.250786 0.280744 0.000000 
0.312319 0.284837 0.000000 
0.309106 0.218988 0.000000 
0.242967 0.149247 0.000000 
0.119434 0.135560 0.000000 
0.180584 0.141736 0.000000 
0.184893 0.208169 0.000000 
0.049693 -0.208404 0.000000 
0.075724 -0.172105 0.000000 
0.044615 -0.176817 0.000000 
0.138109 -0.160261 0.000000 
0.106924 -0.166786 0.000000 
0.113307 -0.198142 0.000000 
0.095200 -0.101918 0.000000 
0.100625 -0.134621 0.000000 
0.125191 -0.095597 0.000000 
0.258442 -0.102345 0.000000 
0.229106 -0.124783 0.000000 
0.245153 -0.155847 0.000000 
0.214762 -0.065465 0.000000 
0.220074 -0.094666 0.000000 
0.246008 -0.052299 0.000000 
0.178803 -0.183134 0.000000 
0.199523 -0.140541 0.000000 
0.169081 -0.151837 0.000000 
0.208548 0.052068 0.000000 
0.208681 0.022089 0.000000 
0.240269 0.058191 0.000000 
0.150846 -0.055585 0.000000 
0.178656 -0.015945 0.000000 
0.148253 -0.023683 0.000000 
0.241318 0.001241 0.000000 
0.209602 -0.007402 0.000000 
0.211513 -0.036516 0.000000 
0.160961 -0.119761 0.000000 
0.184674 -0.077566 0.000000 
0.154965 -0.087599 0.000000 
0.500000 -0.075045 0.000000 
0.470370 -0.075053 0.000000 
0.470520 -0.100000 0.000000 
0.469398 -0.024188 0.000000 
0.469956 -0.049742 0.000000 
0.500000 -0.024075 0.000000 
0.411873 -0.100000 0.000000 
0.440783 -0.075128 0.000000 
0.411277 -0.075281 0.000000 
0.467698 0.081155 0.000000 
0.467940 0.054151 0.000000 
0.500000 0.081465 0.000000 
0.406008 -0.000074 0.000000 
0.436528 0.026927 0.000000 
0.404525 0.025566 0.000000 
0.500000 0.027914 0.000000 
0.468319 0.027670 0.000000 
0.468821 0.001593 0.000000 
0.302111 -0.100000 0.000000 
0.323015 -0.077397 0.000000 
0.291504 -0.082300 0.000000 
0.381879 -0.075562 0.000000 
0.352562 -0.076104 0.000000 
0.354420 -0.100000 0.000000 
0.344792 -0.029093 0.000000 
0.348687 -0.052604 0.000000 
0.376611 -0.026668 0.000000 
0.438712 -0.024568 0.000000 
0.407838 -0.025318 0.000000 
0.409749 -0.050351 0.000000 
[...]
POINT_DATA 4225

SCALARS u_h float 2
LOOKUP_TABLE default
0.018470 -0.213202 
-0.018470 -0.213202 
0.000000 0.000000 
0.000000 0.000000 
0.000000 -0.100000 
-0.019508 -0.147481 
0.000000 0.000000 
0.019508 -0.147481 
0.000000 -0.141094 
0.026546 -0.128917 
0.000000 -0.140896 
-0.009297 -0.162188 
-0.026546 -0.128917 
0.009297 -0.162188 
0.003158 -0.188221 
-0.005229 -0.149225 
-0.041134 -0.094109 
-0.015900 -0.091617 
0.000000 0.000000 
0.000000 -0.088872 
0.000000 0.000000 
0.015900 -0.091617 
0.041134 -0.094109 
0.005229 -0.149225 
-0.003158 -0.188221 
0.020846 -0.191554 
-0.006912 -0.150994 
-0.004055 -0.187957 
0.000000 -0.123223 
-0.000888 -0.126929 
0.007902 -0.100000 
-0.002602 -0.151576 
-0.004911 -0.146011 
0.000000 -0.147760 
-0.007902 -0.100000 
0.000888 -0.126929 
0.004055 -0.187957 
0.006912 -0.150994 
-0.020846 -0.191554 
0.004911 -0.146011 
0.002602 -0.151576 
-0.000819 -0.205737 
0.008494 -0.181545 
-0.011370 -0.153417 
0.000727 -0.170850 
-0.005596 -0.168635 
0.003474 -0.161437 
-0.001757 -0.143431 
-0.032925 -0.123235 
-0.022429 -0.128135 
-0.021806 -0.050009 
-0.027872 -0.093968 
-0.037557 -0.058097 
-0.012832 -0.125762 
-0.005572 -0.122285 
0.000000 0.000000 
-0.011530 -0.048489 
0.000000 -0.047747 
-0.004966 -0.047952 
0.000000 0.000000 
-0.006995 -0.089650 
0.000000 -0.120807 
0.000000 0.000000 
0.004966 -0.047952 
0.021806 -0.050009 
0.011530 -0.048489 
0.000000 0.000000 
0.006995 -0.089650 
0.005572 -0.122285 
0.037557 -0.058097 
0.027872 -0.093968 
0.011370 -0.153417 
0.022429 -0.128135 
0.032925 -0.123235 
0.012832 -0.125762 
0.001757 -0.143431 
0.005596 -0.168635 
-0.000727 -0.170850 
-0.008494 -0.181545 
0.000819 -0.205737 
-0.003474 -0.161437 
0.018755 -0.203569 
0.005965 -0.190621 
0.007566 -0.202371 
0.000613 -0.140124 
0.003069 -0.171336 
0.024541 -0.171891 
-0.009961 -0.172614 
-0.006590 -0.171686 
-0.009567 -0.158178 
0.000000 -0.112192 
0.002387 -0.112443 
0.003619 -0.100000 
-0.001708 -0.134209 
0.000031 -0.123982 
0.000000 -0.133062 
0.014437 -0.100000 
0.004434 -0.113613 
0.004455 -0.118340 
-0.000359 -0.146912 
-0.001392 -0.148735 
0.000000 -0.146132 
-0.007463 -0.152797 
-0.004229 -0.150523 
-0.006004 -0.156095 
0.000000 -0.145950 
-0.002147 -0.147102 
-0.002361 -0.142144 
-0.003680 -0.134707 
-0.004033 -0.138071 
-0.007047 -0.145865 
-0.003619 -0.100000 
-0.002387 -0.112443 
-0.004455 -0.118340 
-0.004434 -0.113613 
-0.014437 -0.100000 
-0.000031 -0.123982 
0.001708 -0.134209 
-0.007566 -0.202371 
-0.005965 -0.190621 
-0.018755 -0.203569 
0.009567 -0.158178 
0.006590 -0.171686 
0.009961 -0.172614 
-0.024541 -0.171891 
-0.003069 -0.171336 
-0.000613 -0.140124 
0.001392 -0.148735 
0.000359 -0.146912 
0.002361 -0.142144 
0.002147 -0.147102 
0.006004 -0.156095 
0.004229 -0.150523 
0.007463 -0.152797 
0.003680 -0.134707 
0.007047 -0.145865 
0.004033 -0.138071 
-0.008812 -0.211371 
0.001553 -0.198640 
0.006265 -0.187207 
0.006096 -0.193424 
0.003226 -0.197528 
0.008429 -0.185033 
0.009657 -0.172570 
-0.015302 -0.152373 
-0.008472 -0.162801 
-0.012305 -0.158364 
-0.002556 -0.160598 
-0.005153 -0.163056 
-0.007964 -0.151977 
-0.000134 -0.178542 
-0.002068 -0.171988 
0.003161 -0.180082 
0.000491 -0.149190 
-0.000763 -0.141634 
0.007033 -0.163253 
0.003394 -0.156012 
-0.003189 -0.146130 
0.000181 -0.152663 
-0.000786 -0.156756 
0.005566 -0.176940 
0.002607 -0.166831 
0.006916 -0.170764 
-0.026566 -0.135886 
-0.021906 -0.140545 
-0.032214 -0.111942 
-0.027736 -0.127135 
-0.038005 -0.109372 
-0.017308 -0.141818 
-0.013070 -0.140920 
-0.017920 -0.026787 
-0.029261 -0.052596 
-0.027043 -0.035465 
-0.021505 -0.092815 
-0.026734 -0.073207 
-0.020211 -0.071909 
-0.041428 -0.077183 
-0.034126 -0.075103 
-0.034650 -0.094715 
-0.003865 -0.134410 
-0.001824 -0.133004 
-0.009390 -0.138878 
-0.006339 -0.136506 
-0.010592 -0.108506 
-0.008911 -0.123910 
-0.015139 -0.109960 
-0.026169 -0.112235 
-0.020368 -0.111346 
-0.017374 -0.127385 
0.000000 0.000000 
-0.012468 -0.025076 
-0.006395 -0.024661 
-0.008965 -0.024736 
0.000000 0.000000 
-0.016022 -0.048980 
-0.014758 -0.070989 
0.000000 -0.024575 
-0.001311 -0.024588 
0.000000 0.000000 
-0.003096 -0.069411 
-0.002386 -0.047806 
0.000000 -0.069285 
0.000000 0.000000 
-0.002733 -0.024609 
-0.004383 -0.024633 
-0.002672 -0.121194 
0.000000 -0.132519 
-0.011104 -0.090525 
-0.006672 -0.107272 
0.000000 -0.106159 
-0.003215 -0.106453 
-0.003372 -0.089079 
-0.007939 -0.048177 
-0.006429 -0.069752 
-0.010238 -0.070283 
0.000000 0.000000 
0.001311 -0.024588 
0.004383 -0.024633 
0.002733 -0.024609 
0.000000 0.000000 
0.002386 -0.047806 
0.003096 -0.069411 
0.017920 -0.026787 
0.012468 -0.025076 
0.000000 0.000000 
0.014758 -0.070989 
0.016022 -0.048980 
0.020211 -0.071909 
0.000000 0.000000 
0.008965 -0.024736 
0.006395 -0.024661 
0.002672 -0.121194 
0.001824 -0.133004 
0.003372 -0.089079 
0.003215 -0.106453 
0.010592 -0.108506 
0.006672 -0.107272 
0.011104 -0.090525 
0.007939 -0.048177 
0.010238 -0.070283 
0.006429 -0.069752 
0.027043 -0.035465 
0.029261 -0.052596 
0.034650 -0.094715 
0.034126 -0.075103 
0.041428 -0.077183 
0.026734 -0.073207 
0.021505 -0.092815 
0.015302 -0.152373 
0.021906 -0.140545 
0.026566 -0.135886 
0.013070 -0.140920 
0.017308 -0.141818 
0.007964 -0.151977 
0.038005 -0.109372 
0.027736 -0.127135 
0.032214 -0.111942 
0.003865 -0.134410 
0.000763 -0.141634 
0.015139 -0.109960 
0.008911 -0.123910 
0.003189 -0.146130 
0.006339 -0.136506 
0.009390 -0.138878 
0.026169 -0.112235 
0.017374 -0.127385 
0.020368 -0.111346 
0.012305 -0.158364 
0.008472 -0.162801 
-0.003161 -0.180082 
0.002068 -0.171988 
0.000134 -0.178542 
0.005153 -0.163056 
0.002556 -0.160598 
-0.001553 -0.198640 
0.008812 -0.211371 
-0.009657 -0.172570 
-0.008429 -0.185033 
-0.003226 -0.197528 
-0.006096 -0.193424 
-0.006265 -0.187207 
-0.000491 -0.149190 
0.000786 -0.156756 
-0.000181 -0.152663 
-0.003394 -0.156012 
-0.007033 -0.163253 
-0.005566 -0.176940 
-0.006916 -0.170764 
-0.002607 -0.166831 
0.018443 -0.208404 
0.013224 -0.203355 
0.013365 -0.208067 
0.013109 -0.191511 
0.013174 -0.198036 
0.019557 -0.198142 
0.001450 -0.195668 
0.006875 -0.197121 
0.000191 -0.189347 
0.008442 -0.133595 
0.010356 -0.156033 
0.026403 -0.155847 
-0.003988 -0.159215 
0.001324 -0.157166 
-0.003992 -0.146049 
0.022553 -0.183134 
0.012023 -0.171791 
0.012831 -0.183087 
-0.010202 -0.166682 
-0.010069 -0.165411 
-0.009731 -0.160559 
-0.005404 -0.180585 
-0.008844 -0.172195 
-0.007997 -0.179933 
-0.008682 -0.155009 
-0.009148 -0.163652 
-0.007237 -0.161516 
0.004711 -0.182261 
-0.002826 -0.171316 
-0.001285 -0.181349 
0.000000 -0.106295 
0.001620 -0.106303 
0.001770 -0.100000 
0.000648 -0.117938 
0.001206 -0.112242 
0.000000 -0.117825 
0.005623 -0.100000 
0.003283 -0.106378 
0.005027 -0.106531 
-0.001052 -0.137595 
-0.000810 -0.133349 
0.000000 -0.137285 
-0.000242 -0.125074 
-0.000972 -0.129323 
-0.001725 -0.130684 
0.000000 -0.128336 
-0.000431 -0.128580 
0.000071 -0.123407 
0.020861 -0.100000 
0.010515 -0.108647 
0.010254 -0.113550 
0.006879 -0.106812 
0.008812 -0.107354 
0.010670 -0.100000 
0.001042 -0.122843 
0.004937 -0.115104 
0.001611 -0.120418 
0.001212 -0.118318 
0.001588 -0.119068 
0.003499 -0.112851 
0.000080 -0.144185 
-0.000196 -0.146326 
0.000000 -0.144026 
-0.002033 -0.149933 
-0.000897 -0.148258 
-0.001279 -0.149337 
0.000000 -0.147379 
-0.000462 -0.147601 
-0.000707 -0.148007 
-0.008527 -0.157234 
-0.006917 -0.154879 
-0.007776 -0.158793 
-0.004722 -0.148699 
-0.005872 -0.151487 
-0.006221 -0.149033 
-0.004221 -0.153769 
-0.005179 -0.153061 
-0.003501 -0.151481 
0.000000 -0.143807 
-0.001165 -0.144116 
-0.001164 -0.141213 
-0.000917 -0.147549 
-0.001075 -0.146243 
0.000000 -0.147278 
-0.003611 -0.143727 
-0.002341 -0.145023 
-0.003532 -0.146545 
-0.002689 -0.149663 
-0.003205 -0.148530 
-0.001819 -0.148346 
0.002449 -0.125697 
-0.002032 -0.129953 
-0.000355 -0.127220 
-0.002403 -0.134734 
-0.005529 -0.141710 
-0.002163 -0.138515 
-0.004712 -0.142463 
-0.003379 -0.140107 
-0.002767 -0.135734 
-0.002780 -0.132867 
-0.008801 -0.154828 
-0.007462 -0.147201 
-0.008491 -0.151516 
-0.007545 -0.149811 
-0.006132 -0.145678 
-0.004175 -0.136159 
-0.005494 -0.141396 
-0.005824 -0.140872 
-0.001770 -0.100000 
-0.001620 -0.106303 
-0.005027 -0.106531 
-0.003283 -0.106378 
-0.005623 -0.100000 
-0.001206 -0.112242 
-0.000648 -0.117938 
-0.010254 -0.113550 
-0.010515 -0.108647 
-0.020861 -0.100000 
-0.001611 -0.120418 
-0.004937 -0.115104 
-0.001042 -0.122843 
-0.010670 -0.100000 
-0.008812 -0.107354 
-0.006879 -0.106812 
0.000810 -0.133349 
0.001052 -0.137595 
-0.000071 -0.123407 
0.000431 -0.128580 
0.001725 -0.130684 
0.000972 -0.129323 
0.000242 -0.125074 
-0.003499 -0.112851 
-0.001588 -0.119068 
-0.001212 -0.118318 
-0.013365 -0.208067 
-0.013224 -0.203355 
-0.018443 -0.208404 
-0.000191 -0.189347 
-0.006875 -0.197121 
-0.001450 -0.195668 
-0.019557 -0.198142 
-0.013174 -0.198036 
-0.013109 -0.191511 
0.009731 -0.160559 
0.010069 -0.165411 
0.010202 -0.166682 
0.007237 -0.161516 
0.009148 -0.163652 
0.008682 -0.155009 
0.007997 -0.179933 
0.008844 -0.172195 
0.005404 -0.180585 
-0.026403 -0.155847 
-0.010356 -0.156033 
-0.008442 -0.133595 
-0.012831 -0.183087 
-0.012023 -0.171791 
-0.022553 -0.183134 
0.003992 -0.146049 
-0.001324 -0.157166 
0.003988 -0.159215 
0.001285 -0.181349 
0.002826 -0.171316 
-0.004711 -0.182261 
0.000196 -0.146326 
-0.000080 -0.144185 
0.000707 -0.148007 
0.000462 -0.147601 
0.001279 -0.149337 
0.000897 -0.148258 
0.002033 -0.149933 
0.001164 -0.141213 
0.001165 -0.144116 
0.003532 -0.146545 
0.002341 -0.145023 
0.003611 -0.143727 
0.001075 -0.146243 
0.000917 -0.147549 
0.007776 -0.158793 
0.006917 -0.154879 
0.008527 -0.157234 
0.003501 -0.151481 
0.005179 -0.153061 
0.004221 -0.153769 
0.006221 -0.149033 
0.005872 -0.151487 
0.004722 -0.148699 
0.001819 -0.148346 
0.003205 -0.148530 
0.002689 -0.149663 
-0.002449 -0.125697 
0.005529 -0.141710 
0.002403 -0.134734 
0.000355 -0.127220 
0.002032 -0.129953 
0.008801 -0.154828 
0.006132 -0.145678 
0.007545 -0.149811 
0.008491 -0.151516 
0.007462 -0.147201 
0.002163 -0.138515 
0.002780 -0.132867 
0.002767 -0.135734 
0.003379 -0.140107 
0.004712 -0.142463 
0.005824 -0.140872 
0.005494 -0.141396 
0.004175 -0.136159 
-0.013635 -0.212752 
-0.008169 -0.206928 
0.000414 -0.202483 
-0.003436 -0.205025 
-0.004410 -0.208986 
-0.002502 -0.200746 
0.002750 -0.193895 
0.004833 -0.188382 
0.005281 -0.192308 
0.003661 -0.192949 
0.007877 -0.187430 
0.006666 -0.190429 
0.007488 -0.184877 
0.001747 -0.201847 
0.004765 -0.196016 
0.003163 -0.199439 
0.010177 -0.172777 
0.009684 -0.167404 
0.006870 -0.186529 
0.009358 -0.179265 
0.009239 -0.177373 
0.009712 -0.178449 
0.008913 -0.183397 
0.004421 -0.196174 
0.007316 -0.189766 
0.005650 -0.191917 
-0.017391 -0.150505 
-0.013847 -0.155978 
-0.015886 -0.153018 
-0.010000 -0.158525 
-0.011874 -0.157752 
-0.013284 -0.153286 
-0.008845 -0.163559 
-0.010341 -0.161201 
-0.006947 -0.166194 
-0.004043 -0.155067 
-0.005264 -0.156590 
-0.006508 -0.150700 
-0.002130 -0.167176 
-0.003755 -0.162079 
-0.000907 -0.165851 
-0.009590 -0.152930 
-0.006673 -0.157776 
-0.008258 -0.158475 
0.001848 -0.183409 
0.001620 -0.180008 
0.003564 -0.184276 
-0.003754 -0.170980 
-0.000861 -0.175580 
-0.002656 -0.173622 
0.002150 -0.175599 
0.000747 -0.176163 
-0.000567 -0.171876 
-0.006733 -0.163357 
-0.003560 -0.167802 
-0.005174 -0.167540 
-0.000200 -0.144701 
-0.000366 -0.141180 
0.001583 -0.150810 
0.000466 -0.147877 
-0.001217 -0.142396 
-0.000376 -0.145559 
-0.000635 -0.146727 
0.008367 -0.163082 
0.006641 -0.159537 
0.003541 -0.158655 
0.005205 -0.159487 
0.005376 -0.162704 
0.004805 -0.156467 
0.003068 -0.153623 
-0.004125 -0.147669 
-0.002174 -0.151550 
-0.003014 -0.153345 
-0.001004 -0.148157 
-0.001510 -0.149790 
-0.002406 -0.144694 
0.001398 -0.159454 
-0.000209 -0.154680 
0.001715 -0.157050 
0.001779 -0.152632 
0.001833 -0.154741 
0.000405 -0.150807 
0.005047 -0.183760 
0.003326 -0.174097 
0.004482 -0.178991 
0.006307 -0.182075 
0.007331 -0.179410 
-0.001566 -0.158774 
0.003168 -0.164216 
0.000861 -0.161822 
0.000092 -0.164009 
0.001790 -0.169104 
0.008629 -0.167540 
0.008087 -0.175953 
0.008532 -0.171917 
0.007132 -0.167065 
0.005284 -0.165961 
0.004253 -0.171856 
0.004910 -0.169077 
0.006387 -0.174129 
-0.023092 -0.141809 
-0.020880 -0.144761 
-0.027436 -0.132350 
-0.024250 -0.138719 
-0.029868 -0.129701 
-0.018667 -0.146645 
-0.016497 -0.147626 
-0.036877 -0.103090 
-0.035174 -0.111029 
-0.039862 -0.101929 
-0.025073 -0.127920 
-0.030183 -0.119775 
-0.027342 -0.120372 
-0.035664 -0.116466 
-0.032975 -0.118531 
-0.030369 -0.125629 
-0.010586 -0.146756 
-0.008898 -0.145673 
-0.014407 -0.147870 
-0.012429 -0.147532 
-0.017625 -0.135036 
-0.015129 -0.141571 
-0.020005 -0.135245 
-0.024952 -0.134049 
-0.022460 -0.134963 
-0.019579 -0.141525 
-0.012156 -0.014767 
-0.022088 -0.029586 
-0.017531 -0.021232 
-0.025321 -0.051008 
-0.024557 -0.040087 
-0.020803 -0.038510 
-0.033377 -0.047399 
-0.028911 -0.042924 
-0.033469 -0.054969 
-0.018599 -0.092210 
-0.021197 -0.082645 
-0.018274 -0.082084 
-0.027716 -0.083904 
-0.024351 -0.083252 
-0.024607 -0.093412 
-0.021483 -0.061182 
-0.023339 -0.072495 
-0.024803 -0.061892 
-0.041704 -0.085876 
-0.038366 -0.085738 
-0.037981 -0.094677 
-0.036335 -0.065998 
-0.037881 -0.076210 
-0.040126 -0.067960 
-0.031247 -0.094432 
-0.034830 -0.085235 
-0.031239 -0.084583 
-0.028448 -0.062885 
-0.030360 -0.074076 
-0.032350 -0.064249 
-0.001315 -0.137729 
-0.000648 -0.137325 
-0.002847 -0.139319 
-0.002038 -0.138404 
-0.003489 -0.128010 
-0.002803 -0.133601 
-0.004782 -0.128723 
-0.007373 -0.144401 
-0.006014 -0.143046 
-0.009395 -0.131615 
-0.007786 -0.137691 
-0.011227 -0.132662 
-0.004816 -0.141698 
-0.003766 -0.140434 
-0.013283 -0.100440 
-0.012781 -0.109221 
-0.015737 -0.101093 
-0.007176 -0.123046 
-0.009881 -0.116546 
-0.007978 -0.115789 
-0.014154 -0.118189 
-0.011937 -0.117360 
-0.010794 -0.124832 
-0.005037 -0.135393 
-0.007717 -0.130570 
-0.006185 -0.129590 
-0.033737 -0.103602 
-0.027321 -0.103407 
-0.030525 -0.103657 
-0.029189 -0.112293 
-0.024510 -0.120472 
-0.018379 -0.101753 
-0.016534 -0.118983 
-0.017670 -0.110684 
-0.021205 -0.102389 
-0.024197 -0.102958 
-0.011153 -0.139986 
-0.019850 -0.127918 
-0.015353 -0.134464 
-0.013216 -0.133640 
-0.015029 -0.126637 
-0.023212 -0.111888 
-0.019068 -0.119679 
-0.021737 -0.120205 
0.000000 0.000000 
-0.009360 -0.013148 
-0.006429 -0.012463 
-0.007662 -0.012643 
0.000000 0.000000 
-0.014833 -0.025596 
-0.017677 -0.037672 
-0.003300 -0.012413 
-0.003919 -0.012400 
0.000000 0.000000 
-0.010876 -0.036811 
-0.007594 -0.024686 
-0.009171 -0.036706 
0.000000 0.000000 
-0.004625 -0.012392 
-0.005447 -0.012404 
-0.017356 -0.071415 
-0.015585 -0.081567 
-0.018723 -0.049385 
-0.018495 -0.060662 
-0.013405 -0.059941 
-0.015814 -0.060263 
-0.013642 -0.048700 
-0.010561 -0.024843 
-0.012816 -0.036966 
-0.015054 -0.037221 
0.000000 -0.012453 
-0.000333 -0.012454 
0.000000 0.000000 
-0.000934 -0.036359 
-0.000648 -0.024580 
0.000000 -0.036348 
0.000000 0.000000 
-0.000674 -0.012455 
-0.001030 -0.012453 
-0.001629 -0.079389 
-0.001533 -0.069320 
0.000000 -0.079344 
-0.003640 -0.047868 
-0.002792 -0.058829 
-0.004257 -0.058930 
0.000000 -0.058739 
-0.001382 -0.058765 
-0.001181 -0.047765 
0.000000 0.000000 
-0.002259 -0.012437 
-0.002751 -0.012427 
-0.001407 -0.012450 
-0.001815 -0.012445 
0.000000 0.000000 
-0.005063 -0.036502 
-0.003522 -0.024621 
-0.003932 -0.036453 
-0.001887 -0.036380 
-0.002880 -0.036412 
-0.002001 -0.024597 
-0.000900 -0.132640 
0.000000 -0.137202 
-0.004079 -0.121659 
-0.002280 -0.127482 
0.000000 -0.127046 
-0.001127 -0.127157 
-0.001322 -0.120907 
-0.013406 -0.091050 
-0.011010 -0.099820 
-0.006939 -0.098768 
-0.008902 -0.099256 
-0.008975 -0.090054 
-0.008562 -0.107847 
-0.006209 -0.115124 
0.000000 -0.097825 
-0.001657 -0.097891 
-0.001670 -0.088928 
-0.001479 -0.113921 
-0.001592 -0.106236 
0.000000 -0.113833 
-0.005137 -0.089322 
-0.003346 -0.098075 
-0.005097 -0.098370 
-0.004554 -0.114578 
-0.004898 -0.106802 
-0.002987 -0.114172 
-0.005334 -0.024646 
-0.006390 -0.048055 
-0.006297 -0.036560 
-0.007656 -0.036626 
-0.009642 -0.048320 
-0.003290 -0.079510 
-0.006826 -0.079962 
-0.005012 -0.079702 
-0.004718 -0.069556 
-0.005805 -0.059066 
-0.013117 -0.081093 
-0.011233 -0.059670 
-0.012395 -0.070614 
-0.010851 -0.080664 
-0.008763 -0.080285 
-0.007464 -0.059235 
-0.008260 -0.069996 
-0.009263 -0.059436 
0.000000 0.000000 
0.000333 -0.012454 
0.001030 -0.012453 
0.000674 -0.012455 
0.000000 0.000000 
0.000648 -0.024580 
0.000934 -0.036359 
0.002751 -0.012427 
0.002259 -0.012437 
0.000000 0.000000 
0.003932 -0.036453 
0.003522 -0.024621 
0.005063 -0.036502 
0.000000 0.000000 
0.001815 -0.012445 
0.001407 -0.012450 
0.001533 -0.069320 
0.001629 -0.079389 
0.001181 -0.047765 
0.001382 -0.058765 
0.004257 -0.058930 
0.002792 -0.058829 
0.003640 -0.047868 
0.002001 -0.024597 
0.002880 -0.036412 
0.001887 -0.036380 
0.012156 -0.014767 
0.009360 -0.013148 
0.000000 0.000000 
0.017677 -0.037672 
0.014833 -0.025596 
0.020803 -0.038510 
0.000000 0.000000 
0.007662 -0.012643 
0.006429 -0.012463 
0.015585 -0.081567 
0.017356 -0.071415 
0.018274 -0.082084 
0.013642 -0.048700 
0.015814 -0.060263 
0.013405 -0.059941 
0.021483 -0.061182 
0.018495 -0.060662 
0.018723 -0.049385 
0.000000 0.000000 
0.003919 -0.012400 
0.003300 -0.012413 
0.005447 -0.012404 
0.004625 -0.012392 
0.000000 0.000000 
0.009171 -0.036706 
0.007594 -0.024686 
0.010876 -0.036811 
0.015054 -0.037221 
0.012816 -0.036966 
0.010561 -0.024843 
0.000900 -0.132640 
0.000648 -0.137325 
0.001322 -0.120907 
0.001127 -0.127157 
0.003489 -0.128010 
0.002280 -0.127482 
0.004079 -0.121659 
0.001670 -0.088928 
0.001657 -0.097891 
0.005097 -0.098370 
0.003346 -0.098075 
0.005137 -0.089322 
0.001592 -0.106236 
0.001479 -0.113921 
0.013283 -0.100440 
0.011010 -0.099820 
0.013406 -0.091050 
0.006209 -0.115124 
0.008562 -0.107847 
0.007978 -0.115789 
0.008975 -0.090054 
0.008902 -0.099256 
0.006939 -0.098768 
0.002987 -0.114172 
0.004898 -0.106802 
0.004554 -0.114578 
0.005334 -0.024646 
0.009642 -0.048320 
0.007656 -0.036626 
0.006297 -0.036560 
0.006390 -0.048055 
0.013117 -0.081093 
0.008763 -0.080285 
0.010851 -0.080664 
0.012395 -0.070614 
0.011233 -0.059670 
0.003290 -0.079510 
0.005805 -0.059066 
0.004718 -0.069556 
0.005012 -0.079702 
0.006826 -0.079962 
0.009263 -0.059436 
0.008260 -0.069996 
0.007464 -0.059235 
0.017531 -0.021232 
0.022088 -0.029586 
0.033469 -0.054969 
0.028911 -0.042924 
0.033377 -0.047399 
0.024557 -0.040087 
0.025321 -0.051008 
0.037981 -0.094677 
0.038366 -0.085738 
0.041704 -0.085876 
0.031239 -0.084583 
0.034830 -0.085235 
0.031247 -0.094432 
0.040126 -0.067960 
0.037881 -0.076210 
0.036335 -0.065998 
0.021197 -0.082645 
0.018599 -0.092210 
0.024803 -0.061892 
0.023339 -0.072495 
0.024607 -0.093412 
0.024351 -0.083252 
0.027716 -0.083904 
0.032350 -0.064249 
0.030360 -0.074076 
0.028448 -0.062885 
0.017391 -0.150505 
0.020880 -0.144761 
0.023092 -0.141809 
0.016497 -0.147626 
0.018667 -0.146645 
0.013284 -0.153286 
0.029868 -0.129701 
0.024250 -0.138719 
0.027436 -0.132350 
0.008898 -0.145673 
0.010586 -0.146756 
0.006508 -0.150700 
0.020005 -0.135245 
0.015129 -0.141571 
0.017625 -0.135036 
0.009590 -0.152930 
0.012429 -0.147532 
0.014407 -0.147870 
0.039862 -0.101929 
0.035174 -0.111029 
0.036877 -0.103090 
0.030369 -0.125629 
0.032975 -0.118531 
0.035664 -0.116466 
0.027342 -0.120372 
0.030183 -0.119775 
0.025073 -0.127920 
0.019579 -0.141525 
0.022460 -0.134963 
0.024952 -0.134049 
0.001315 -0.137729 
0.000366 -0.141180 
0.004782 -0.128723 
0.002803 -0.133601 
0.001217 -0.142396 
0.002038 -0.138404 
0.002847 -0.139319 
0.015737 -0.101093 
0.012781 -0.109221 
0.010794 -0.124832 
0.011937 -0.117360 
0.014154 -0.118189 
0.009881 -0.116546 
0.007176 -0.123046 
0.004125 -0.147669 
0.006014 -0.143046 
0.007373 -0.144401 
0.003766 -0.140434 
0.004816 -0.141698 
0.002406 -0.144694 
0.011227 -0.132662 
0.007786 -0.137691 
0.009395 -0.131615 