# vtk DataFile Version 2.0
Unstructured Grid Example
ASCII
DATASET UNSTRUCTURED_GRID

POINTS 1089 float
0.002707 -0.593605 0.000000 
0.997293 -0.593605 0.000000 
1.000000 1.000000 0.000000 
0.000000 1.000000 0.000000 
0.500000 -0.647419 0.000000 
0.889439 0.035317 0.000000 
0.500000 1.000000 0.000000 
0.110561 0.035317 0.000000 
0.500000 -0.005755 0.000000 
0.249357 -0.633904 0.000000 
0.500000 -0.366399 0.000000 
0.276772 -0.354387 0.000000 
0.750643 -0.633904 0.000000 
0.723228 -0.354387 0.000000 
0.945705 -0.315470 0.000000 
0.693558 0.002157 0.000000 
0.843576 0.461874 0.000000 
0.670642 0.461088 0.000000 
0.750000 1.000000 0.000000 
0.500000 0.463580 0.000000 
0.250000 1.000000 0.000000 
0.329358 0.461088 0.000000 
0.156424 0.461874 0.000000 
0.306442 0.002157 0.000000 
0.054295 -0.315470 0.000000 
0.125183 -0.616361 0.000000 
0.263061 -0.502376 0.000000 
0.145049 -0.485654 0.000000 
0.500000 -0.515477 0.000000 
0.381429 -0.512298 0.000000 
0.374542 -0.644446 0.000000 
0.395742 -0.195004 0.000000 
0.388414 -0.363457 0.000000 
0.500000 -0.197522 0.000000 
0.625458 -0.644446 0.000000 
0.618571 -0.512298 0.000000 
0.854951 -0.485654 0.000000 
0.736939 -0.502376 0.000000 
0.874817 -0.616361 0.000000 
0.611586 -0.363457 0.000000 
0.604258 -0.195004 0.000000 
0.972156 -0.462720 0.000000 
0.834839 -0.338631 0.000000 
0.791425 0.013489 0.000000 
0.813579 -0.173012 0.000000 
0.917875 -0.149948 0.000000 
0.708761 -0.187271 0.000000 
0.596495 -0.003312 0.000000 
0.862798 0.238967 0.000000 
0.770289 0.223220 0.000000 
0.766346 0.723851 0.000000 
0.755902 0.458923 0.000000 
0.846543 0.702260 0.000000 
0.679248 0.217333 0.000000 
0.589339 0.215295 0.000000 
0.875000 1.000000 0.000000 
0.681556 0.731024 0.000000 
0.500000 0.734475 0.000000 
0.591830 0.733045 0.000000 
0.625000 1.000000 0.000000 
0.585471 0.462676 0.000000 
0.500000 0.214846 0.000000 
0.375000 1.000000 0.000000 
0.408170 0.733045 0.000000 
0.233654 0.723851 0.000000 
0.318444 0.731024 0.000000 
0.125000 1.000000 0.000000 
0.414529 0.462676 0.000000 
0.410661 0.215295 0.000000 
0.153457 0.702260 0.000000 
0.244098 0.458923 0.000000 
0.208575 0.013489 0.000000 
0.229711 0.223220 0.000000 
0.137202 0.238967 0.000000 
0.320752 0.217333 0.000000 
0.403505 -0.003312 0.000000 
0.082125 -0.149948 0.000000 
0.186421 -0.173012 0.000000 
0.165161 -0.338631 0.000000 
0.027844 -0.462720 0.000000 
0.291239 -0.187271 0.000000 
0.063741 -0.605363 0.000000 
0.135206 -0.552904 0.000000 
0.074989 -0.542044 0.000000 
0.256280 -0.570063 0.000000 
0.195642 -0.562311 0.000000 
0.187089 -0.625959 0.000000 
0.212379 -0.423306 0.000000 
0.203995 -0.494846 0.000000 
0.269853 -0.430590 0.000000 
0.500000 -0.583471 0.000000 
0.438957 -0.582762 0.000000 
0.437277 -0.646958 0.000000 
0.442439 -0.442457 0.000000 
0.440692 -0.514705 0.000000 
0.500000 -0.443222 0.000000 
0.311874 -0.640083 0.000000 
0.377983 -0.580307 0.000000 
0.317077 -0.576072 0.000000 
0.449775 -0.103980 0.000000 
0.447877 -0.196882 0.000000 
0.500000 -0.104642 0.000000 
0.332603 -0.359718 0.000000 
0.392024 -0.281893 0.000000 
0.337987 -0.278410 0.000000 
0.500000 -0.284636 0.000000 
0.446020 -0.283953 0.000000 
0.444210 -0.365669 0.000000 
0.322214 -0.508196 0.000000 
0.384894 -0.440129 0.000000 
0.327364 -0.436187 0.000000 
0.562723 -0.646958 0.000000 
0.561043 -0.582762 0.000000 
0.682923 -0.576072 0.000000 
0.622017 -0.580307 0.000000 
0.688126 -0.640083 0.000000 
0.559308 -0.514705 0.000000 
0.557561 -0.442457 0.000000 
0.925011 -0.542044 0.000000 
0.864794 -0.552904 0.000000 
0.936259 -0.605363 0.000000 
0.730147 -0.430590 0.000000 
0.796005 -0.494846 0.000000 
0.787621 -0.423306 0.000000 
0.812911 -0.625959 0.000000 
0.804358 -0.562311 0.000000 
0.743720 -0.570063 0.000000 
0.552123 -0.196882 0.000000 
0.550225 -0.103980 0.000000 
0.555790 -0.365669 0.000000 
0.553980 -0.283953 0.000000 
0.662013 -0.278410 0.000000 
0.607976 -0.281893 0.000000 
0.667397 -0.359718 0.000000 
0.677786 -0.508196 0.000000 
0.672636 -0.436187 0.000000 
0.615106 -0.440129 0.000000 
0.984939 -0.530041 0.000000 
0.913714 -0.474907 0.000000 
0.890447 -0.328027 0.000000 
0.902225 -0.403647 0.000000 
0.959102 -0.391282 0.000000 
0.845012 -0.414324 0.000000 
0.779061 -0.347387 0.000000 
0.840524 0.022634 0.000000 
0.853241 -0.072648 0.000000 
0.903634 -0.059891 0.000000 
0.751832 -0.089992 0.000000 
0.802554 -0.082511 0.000000 
0.742398 0.006873 0.000000 
0.931945 -0.235084 0.000000 
0.865894 -0.162746 0.000000 
0.878330 -0.247803 0.000000 
0.600430 -0.102307 0.000000 
0.548204 -0.004677 0.000000 
0.716108 -0.273411 0.000000 
0.656460 -0.191844 0.000000 
0.644931 -0.001124 0.000000 
0.650744 -0.099568 0.000000 
0.701211 -0.095556 0.000000 
0.824362 -0.258291 0.000000 
0.761155 -0.181082 0.000000 
0.770246 -0.266761 0.000000 
0.875618 0.134572 0.000000 
0.828009 0.123198 0.000000 
0.806368 0.341099 0.000000 
0.816394 0.229293 0.000000 
0.851701 0.348171 0.000000 
0.780463 0.115287 0.000000 
0.733139 0.109911 0.000000 
0.838274 0.856745 0.000000 
0.806315 0.715024 0.000000 
0.870907 0.833248 0.000000 
0.713164 0.459971 0.000000 
0.755696 0.587590 0.000000 
0.714090 0.591137 0.000000 
0.840540 0.579809 0.000000 
0.797486 0.583115 0.000000 
0.799240 0.458869 0.000000 
0.592714 0.102421 0.000000 
0.546281 0.101514 0.000000 
0.686090 0.106310 0.000000 
0.639299 0.103937 0.000000 
0.630156 0.335421 0.000000 
0.634193 0.216037 0.000000 
0.673709 0.335556 0.000000 
0.761644 0.337626 0.000000 
0.717483 0.336114 0.000000 
0.724584 0.219533 0.000000 
0.937500 1.000000 0.000000 
0.798479 0.865707 0.000000 
0.704378 0.869363 0.000000 
0.752842 0.868416 0.000000 
0.812500 1.000000 0.000000 
0.724781 0.728618 0.000000 
0.672101 0.593491 0.000000 
0.500000 0.870980 0.000000 
0.551854 0.870125 0.000000 
0.562500 1.000000 0.000000 
0.543382 0.596652 0.000000 
0.546030 0.733642 0.000000 
0.500000 0.597265 0.000000 
0.687500 1.000000 0.000000 
0.603388 0.869902 0.000000 
0.654353 0.869728 0.000000 
0.544622 0.214923 0.000000 
0.500000 0.101135 0.000000 
0.628106 0.461994 0.000000 
0.586716 0.335465 0.000000 
0.500000 0.335748 0.000000 
0.543336 0.335590 0.000000 
0.542749 0.463194 0.000000 
0.637109 0.732294 0.000000 
0.586641 0.595947 0.000000 
0.629595 0.594979 0.000000 
0.437500 1.000000 0.000000 
0.448146 0.870125 0.000000 
0.345647 0.869728 0.000000 
0.396612 0.869902 0.000000 
0.312500 1.000000 0.000000 
0.453970 0.733642 0.000000 
0.456618 0.596652 0.000000 
0.161726 0.856745 0.000000 
0.201521 0.865707 0.000000 
0.062500 1.000000 0.000000 
0.327899 0.593491 0.000000 
0.275219 0.728618 0.000000 
0.285910 0.591137 0.000000 
0.187500 1.000000 0.000000 
0.247158 0.868416 0.000000 
0.295622 0.869363 0.000000 
0.455378 0.214923 0.000000 
0.453719 0.101514 0.000000 
0.457251 0.463194 0.000000 
0.456664 0.335590 0.000000 
0.369844 0.335421 0.000000 
0.413284 0.335465 0.000000 
0.371894 0.461994 0.000000 
0.362891 0.732294 0.000000 
0.370405 0.594979 0.000000 
0.413359 0.595947 0.000000 
0.129093 0.833248 0.000000 
0.193685 0.715024 0.000000 
0.200760 0.458869 0.000000 
0.202514 0.583115 0.000000 
0.159460 0.579809 0.000000 
0.244304 0.587590 0.000000 
0.286836 0.459971 0.000000 
0.159476 0.022634 0.000000 
0.171991 0.123198 0.000000 
0.124382 0.134572 0.000000 
0.266861 0.109911 0.000000 
0.219537 0.115287 0.000000 
0.257602 0.006873 0.000000 
0.148299 0.348171 0.000000 
0.183606 0.229293 0.000000 
0.193632 0.341099 0.000000 
0.407286 0.102421 0.000000 
0.451796 -0.004677 0.000000 
0.326291 0.335556 0.000000 
0.365807 0.216037 0.000000 
0.355069 -0.001124 0.000000 
0.360701 0.103937 0.000000 
0.313910 0.106310 0.000000 
0.238356 0.337626 0.000000 
0.275416 0.219533 0.000000 
0.282517 0.336114 0.000000 
0.096366 -0.059891 0.000000 
0.146759 -0.072648 0.000000 
0.121670 -0.247803 0.000000 
0.134106 -0.162746 0.000000 
0.068055 -0.235084 0.000000 
0.197446 -0.082511 0.000000 
0.248168 -0.089992 0.000000 
0.086286 -0.474907 0.000000 
0.015061 -0.530041 0.000000 
0.220939 -0.347387 0.000000 
0.154988 -0.414324 0.000000 
0.040898 -0.391282 0.000000 
0.097775 -0.403647 0.000000 
0.109553 -0.328027 0.000000 
0.399570 -0.102307 0.000000 
0.298789 -0.095556 0.000000 
0.349256 -0.099568 0.000000 
0.343540 -0.191844 0.000000 
0.283892 -0.273411 0.000000 
0.175638 -0.258291 0.000000 
0.229754 -0.266761 0.000000 
0.238845 -0.181082 0.000000 
0.033198 -0.599498 0.000000 
0.069379 -0.574151 0.000000 
0.039041 -0.568288 0.000000 
0.130244 -0.585090 0.000000 
0.099776 -0.579776 0.000000 
0.094399 -0.611013 0.000000 
0.110346 -0.514547 0.000000 
0.105070 -0.547636 0.000000 
0.140128 -0.519771 0.000000 
0.252847 -0.602451 0.000000 
0.222098 -0.598741 0.000000 
0.218185 -0.630147 0.000000 
0.229736 -0.533105 0.000000 
0.225938 -0.566401 0.000000 
0.259678 -0.536714 0.000000 
0.156083 -0.621355 0.000000 
0.191409 -0.594599 0.000000 
0.160789 -0.590041 0.000000 
0.244956 -0.389701 0.000000 
0.241109 -0.427160 0.000000 
0.273291 -0.393062 0.000000 
0.174504 -0.490452 0.000000 
0.208172 -0.459604 0.000000 
0.179068 -0.455267 0.000000 
0.266447 -0.467014 0.000000 
0.237300 -0.463521 0.000000 
0.233515 -0.498823 0.000000 
0.165397 -0.557805 0.000000 
0.199827 -0.529070 0.000000 
0.169957 -0.524620 0.000000 
0.500000 -0.615942 0.000000 
0.469038 -0.615867 0.000000 
0.468638 -0.647489 0.000000 
0.469904 -0.549814 0.000000 
0.469467 -0.583326 0.000000 
0.500000 -0.549990 0.000000 
0.405907 -0.645937 0.000000 
0.438102 -0.615323 0.000000 
0.407176 -0.614313 0.000000 
0.471660 -0.405217 0.000000 
0.471218 -0.443032 0.000000 
0.500000 -0.405404 0.000000 
0.411055 -0.513711 0.000000 
0.441564 -0.479126 0.000000 
0.412356 -0.478144 0.000000 
0.500000 -0.479899 0.000000 
0.470779 -0.479708 0.000000 
0.470341 -0.515288 0.000000 
0.280591 -0.637218 0.000000 
0.314488 -0.608546 0.000000 
0.283647 -0.605722 0.000000 
0.376261 -0.612845 0.000000 
0.345363 -0.610922 0.000000 
0.343194 -0.642493 0.000000 
0.349668 -0.544936 0.000000 
0.347519 -0.578412 0.000000 
0.379705 -0.546803 0.000000 
[...]
POINT_DATA 1089

SCALARS u_h float 2
LOOKUP_TABLE default
0.002707 -0.593605 
-0.002707 -0.593605 
0.000000 0.000000 
0.000000 0.000000 
0.000000 -0.647419 
-0.110561 -0.464683 
0.000000 0.000000 
0.110561 -0.464683 
0.000000 -0.505755 
-0.000643 -0.633904 
0.000000 -0.616399 
0.026772 -0.604387 
0.000643 -0.633904 
-0.026772 -0.604387 
-0.054295 -0.565470 
-0.056442 -0.497843 
-0.156424 -0.288126 
-0.079358 -0.288912 
0.000000 0.000000 
0.000000 -0.286420 
0.000000 0.000000 
0.079358 -0.288912 
0.156424 -0.288126 
0.056442 -0.497843 
0.054295 -0.565470 
0.000183 -0.616361 
0.013061 -0.627376 
0.020049 -0.610654 
0.000000 -0.640477 
0.006429 -0.637298 
-0.000458 -0.644446 
0.020742 -0.570004 
0.013414 -0.613457 
0.000000 -0.572522 
0.000458 -0.644446 
-0.006429 -0.637298 
-0.020049 -0.610654 
-0.013061 -0.627376 
-0.000183 -0.616361 
-0.013414 -0.613457 
-0.020742 -0.570004 
-0.027844 -0.587720 
-0.040161 -0.588631 
-0.083575 -0.486511 
-0.061421 -0.548012 
-0.082125 -0.524948 
-0.041239 -0.562271 
-0.028505 -0.503312 
-0.137202 -0.386033 
-0.104711 -0.401780 
-0.108654 -0.151149 
-0.119098 -0.291077 
-0.153457 -0.172740 
-0.070752 -0.407667 
-0.035661 -0.409705 
0.000000 0.000000 
-0.068444 -0.143976 
0.000000 -0.140525 
-0.033170 -0.141955 
0.000000 0.000000 
-0.039529 -0.287324 
0.000000 -0.410154 
0.000000 0.000000 
0.033170 -0.141955 
0.108654 -0.151149 
0.068444 -0.143976 
0.000000 0.000000 
0.039529 -0.287324 
0.035661 -0.409705 
0.153457 -0.172740 
0.119098 -0.291077 
0.083575 -0.486511 
0.104711 -0.401780 
0.137202 -0.386033 
0.070752 -0.407667 
0.028505 -0.503312 
0.082125 -0.524948 
0.061421 -0.548012 
0.040161 -0.588631 
0.027844 -0.587720 
0.041239 -0.562271 
0.001241 -0.605363 
0.010206 -0.615404 
0.012489 -0.604544 
0.006280 -0.632563 
0.008142 -0.624811 
-0.000411 -0.625959 
0.024879 -0.610806 
0.016495 -0.619846 
0.019853 -0.618090 
0.000000 -0.645971 
0.001457 -0.645262 
-0.000223 -0.646958 
0.004939 -0.629957 
0.003192 -0.639705 
0.000000 -0.630722 
-0.000626 -0.640083 
0.002983 -0.642807 
0.004577 -0.638572 
0.012275 -0.541480 
0.010377 -0.571882 
0.000000 -0.542142 
0.020103 -0.609718 
0.017024 -0.594393 
0.025487 -0.590910 
0.000000 -0.597136 
0.008520 -0.596453 
0.006710 -0.615669 
0.009714 -0.633196 
0.009894 -0.627629 
0.014864 -0.623687 
0.000223 -0.646958 
-0.001457 -0.645262 
-0.004577 -0.638572 
-0.002983 -0.642807 
0.000626 -0.640083 
-0.003192 -0.639705 
-0.004939 -0.629957 
-0.012489 -0.604544 
-0.010206 -0.615404 
-0.001241 -0.605363 
-0.019853 -0.618090 
-0.016495 -0.619846 
-0.024879 -0.610806 
0.000411 -0.625959 
-0.008142 -0.624811 
-0.006280 -0.632563 
-0.010377 -0.571882 
-0.012275 -0.541480 
-0.006710 -0.615669 
-0.008520 -0.596453 
-0.025487 -0.590910 
-0.017024 -0.594393 
-0.020103 -0.609718 
-0.009714 -0.633196 
-0.014864 -0.623687 
-0.009894 -0.627629 
-0.015061 -0.592541 
-0.023786 -0.599907 
-0.047053 -0.578027 
-0.035275 -0.591147 
-0.040898 -0.578782 
-0.029988 -0.601824 
-0.033439 -0.597387 
-0.096976 -0.477366 
-0.084259 -0.510148 
-0.096366 -0.497391 
-0.060668 -0.527492 
-0.072446 -0.520011 
-0.070102 -0.493127 
-0.068055 -0.547584 
-0.071606 -0.537746 
-0.059170 -0.560303 
-0.024570 -0.539807 
-0.014296 -0.504677 
-0.033892 -0.585911 
-0.031040 -0.566844 
-0.042569 -0.501124 
-0.036756 -0.537068 
-0.048789 -0.533056 
-0.050638 -0.570791 
-0.051345 -0.556082 
-0.042254 -0.579261 
-0.124382 -0.427928 
-0.109491 -0.439302 
-0.131132 -0.346401 
-0.121106 -0.395707 
-0.148299 -0.339329 
-0.094537 -0.447213 
-0.079361 -0.452589 
-0.099226 -0.080755 
-0.131185 -0.159976 
-0.129093 -0.104252 
-0.099336 -0.290029 
-0.119304 -0.224910 
-0.098410 -0.221363 
-0.159460 -0.232691 
-0.140014 -0.229385 
-0.138260 -0.291131 
-0.032286 -0.460079 
-0.016219 -0.460986 
-0.063910 -0.456190 
-0.048201 -0.458563 
-0.057344 -0.352079 
-0.053307 -0.408963 
-0.076291 -0.351944 
-0.113356 -0.349874 
-0.095017 -0.351386 
-0.087916 -0.405467 
0.000000 0.000000 
-0.076521 -0.071793 
-0.045622 -0.068137 
-0.059658 -0.069084 
0.000000 0.000000 
-0.087719 -0.146382 
-0.077899 -0.219009 
0.000000 -0.066520 
-0.010646 -0.067375 
0.000000 0.000000 
-0.019118 -0.215848 
-0.016470 -0.141358 
0.000000 -0.215235 
0.000000 0.000000 
-0.021612 -0.067598 
-0.033147 -0.067772 
-0.017878 -0.410077 
0.000000 -0.461365 
-0.059394 -0.288006 
-0.038284 -0.352035 
0.000000 -0.351752 
-0.019164 -0.351910 
-0.019751 -0.286806 
-0.050391 -0.142706 
-0.038359 -0.216553 
-0.057905 -0.217521 
0.000000 0.000000 
0.010646 -0.067375 
0.033147 -0.067772 
0.021612 -0.067598 
0.000000 0.000000 
0.016470 -0.141358 
0.019118 -0.215848 
0.099226 -0.080755 
0.076521 -0.071793 
0.000000 0.000000 
0.077899 -0.219009 
0.087719 -0.146382 
0.098410 -0.221363 
0.000000 0.000000 
0.059658 -0.069084 
0.045622 -0.068137 
0.017878 -0.410077 
0.016219 -0.460986 
0.019751 -0.286806 
0.019164 -0.351910 
0.057344 -0.352079 
0.038284 -0.352035 
0.059394 -0.288006 
0.050391 -0.142706 
0.057905 -0.217521 
0.038359 -0.216553 
0.129093 -0.104252 
0.131185 -0.159976 
0.138260 -0.291131 
0.140014 -0.229385 
0.159460 -0.232691 
0.119304 -0.224910 
0.099336 -0.290029 
0.096976 -0.477366 
0.109491 -0.439302 
0.124382 -0.427928 
0.079361 -0.452589 
0.094537 -0.447213 
0.070102 -0.493127 
0.148299 -0.339329 
0.121106 -0.395707 
0.131132 -0.346401 
0.032286 -0.460079 
0.014296 -0.504677 
0.076291 -0.351944 
0.053307 -0.408963 
0.042569 -0.501124 
0.048201 -0.458563 
0.063910 -0.456190 
0.113356 -0.349874 
0.087916 -0.405467 
0.095017 -0.351386 
0.096366 -0.497391 
0.084259 -0.510148 
0.059170 -0.560303 
0.071606 -0.537746 
0.068055 -0.547584 
0.072446 -0.520011 
0.060668 -0.527492 
0.023786 -0.599907 
0.015061 -0.592541 
0.033439 -0.597387 
0.029988 -0.601824 
0.040898 -0.578782 
0.035275 -0.591147 
0.047053 -0.578027 
0.024570 -0.539807 
0.048789 -0.533056 
0.036756 -0.537068 
0.031040 -0.566844 
0.033892 -0.585911 
0.050638 -0.570791 
0.042254 -0.579261 
0.051345 -0.556082 
0.001948 -0.599498 
0.006879 -0.605401 
0.007791 -0.599538 
0.005244 -0.616340 
0.006026 -0.611026 
0.000649 -0.611013 
0.016596 -0.608297 
0.011320 -0.610136 
0.015128 -0.613521 
0.002847 -0.633701 
0.003348 -0.629991 
-0.000565 -0.630147 
0.010986 -0.626855 
0.007188 -0.628901 
0.009678 -0.630464 
-0.000167 -0.621355 
0.003909 -0.625849 
0.004539 -0.621291 
0.026206 -0.608451 
0.022359 -0.614660 
0.023291 -0.611812 
0.018254 -0.615452 
0.020672 -0.615854 
0.022818 -0.611517 
0.016447 -0.623264 
0.018550 -0.619771 
0.014765 -0.623823 
0.009147 -0.620305 
0.012327 -0.622820 
0.013707 -0.618370 
0.000000 -0.647192 
0.000288 -0.647117 
-0.000112 -0.647489 
0.001154 -0.643564 
0.000717 -0.645826 
0.000000 -0.643740 
-0.000343 -0.645937 
0.000602 -0.646573 
0.000926 -0.645563 
0.002910 -0.623967 
0.002468 -0.630532 
0.000000 -0.624154 
0.004805 -0.638711 
0.004064 -0.635376 
0.006106 -0.634394 
0.000000 -0.636149 
0.002029 -0.635958 
0.001591 -0.640288 
-0.000659 -0.637218 
0.001988 -0.639796 
0.002397 -0.636972 
0.001261 -0.644095 
0.001613 -0.642172 
-0.000556 -0.642493 
0.005918 -0.638686 
0.003769 -0.640912 
0.004705 -0.640553 
0.002323 -0.642986 
0.003507 -0.641985 
0.002213 -0.644257 
0.006594 -0.524408 
0.006125 -0.541943 
0.000000 -0.524695 
0.015564 -0.571098 
0.011321 -0.557442 
0.016987 -0.556695 
0.000000 -0.558075 
0.005656 -0.557905 
0.005187 -0.572357 
0.023440 -0.607256 
0.022774 -0.600944 
0.026544 -0.598557 
0.015206 -0.604562 
0.018995 -0.602942 
0.016761 -0.611782 
0.023564 -0.581403 
0.021262 -0.592834 
0.018869 -0.582893 
0.000000 -0.607410 
0.003805 -0.607234 
0.003355 -0.616217 
0.004722 -0.585359 
0.004261 -0.596966 
0.000000 -0.585525 
0.010063 -0.614750 
0.007609 -0.606703 
0.011410 -0.605814 
0.014160 -0.584045 
0.012776 -0.595597 
0.009443 -0.584866 
0.005412 -0.635788 
0.008064 -0.635461 
0.007149 -0.636382 
0.008401 -0.633641 
0.011378 -0.630501 
0.005820 -0.623404 
0.011645 -0.621129 
0.008732 -0.622460 
0.007415 -0.628992 
0.008157 -0.633004 
0.020379 -0.614754 
0.014359 -0.626333 
0.017355 -0.621098 
0.017468 -0.617283 
0.014557 -0.619405 
0.010215 -0.631200 
0.012377 -0.625862 
0.012282 -0.628977 
0.000112 -0.647489 
-0.000288 -0.647117 
-0.000926 -0.645563 
-0.000602 -0.646573 
0.000343 -0.645937 
-0.000717 -0.645826 
-0.001154 -0.643564 
-0.002397 -0.636972 
-0.001988 -0.639796 
0.000659 -0.637218 
-0.004705 -0.640553 
-0.003769 -0.640912 
-0.005918 -0.638686 
0.000556 -0.642493 
-0.001613 -0.642172 
-0.001261 -0.644095 
-0.002468 -0.630532 
-0.002910 -0.623967 
-0.001591 -0.640288 
-0.002029 -0.635958 
-0.006106 -0.634394 
-0.004064 -0.635376 
-0.004805 -0.638711 
-0.002213 -0.644257 
-0.003507 -0.641985 
-0.002323 -0.642986 
-0.007791 -0.599538 
-0.006879 -0.605401 
-0.001948 -0.599498 
-0.015128 -0.613521 
-0.011320 -0.610136 
-0.016596 -0.608297 
-0.000649 -0.611013 
-0.006026 -0.611026 
-0.005244 -0.616340 
-0.023291 -0.611812 
-0.022359 -0.614660 
-0.026206 -0.608451 
-0.014765 -0.623823 
-0.018550 -0.619771 
-0.016447 -0.623264 
-0.022818 -0.611517 
-0.020672 -0.615854 
-0.018254 -0.615452 
0.000565 -0.630147 
-0.003348 -0.629991 
-0.002847 -0.633701 
-0.004539 -0.621291 
-0.003909 -0.625849 
0.000167 -0.621355 
-0.009678 -0.630464 
-0.007188 -0.628901 
-0.010986 -0.626855 
-0.013707 -0.618370 
-0.012327 -0.622820 
-0.009147 -0.620305 
-0.006125 -0.541943 
-0.006594 -0.524408 
-0.005187 -0.572357 
-0.005656 -0.557905 
-0.016987 -0.556695 
-0.011321 -0.557442 
-0.015564 -0.571098 
-0.003355 -0.616217 
-0.003805 -0.607234 
-0.011410 -0.605814 
-0.007609 -0.606703 
-0.010063 -0.614750 
-0.004261 -0.596966 
-0.004722 -0.585359 
-0.026544 -0.598557 
-0.022774 -0.600944 
-0.023440 -0.607256 
-0.018869 -0.582893 
-0.021262 -0.592834 
-0.023564 -0.581403 
-0.016761 -0.611782 
-0.018995 -0.602942 
-0.015206 -0.604562 
-0.009443 -0.584866 
-0.012776 -0.595597 
-0.014160 -0.584045 
-0.005412 -0.635788 
-0.011378 -0.630501 
-0.008401 -0.633641 
-0.007149 -0.636382 
-0.008064 -0.635461 
-0.020379 -0.614754 
-0.014557 -0.619405 
-0.017468 -0.617283 
-0.017355 -0.621098 
-0.014359 -0.626333 
-0.005820 -0.623404 
-0.008157 -0.633004 
-0.007415 -0.628992 
-0.008732 -0.622460 
-0.011645 -0.621129 
-0.012282 -0.628977 
-0.012377 -0.625862 
-0.010215 -0.631200 
-0.008775 -0.593520 
-0.013723 -0.598671 
-0.025763 -0.593989 
-0.019719 -0.596831 
-0.021422 -0.590625 
-0.018120 -0.602726 
-0.021888 -0.605467 
-0.050616 -0.571999 
-0.044281 -0.579147 
-0.047551 -0.572686 
-0.038051 -0.590693 
-0.041123 -0.585147 
-0.043576 -0.583566 
-0.034332 -0.583783 
-0.038032 -0.585176 
-0.031863 -0.590114 
-0.029130 -0.604664 
-0.030103 -0.601101 
-0.024996 -0.606767 
-0.027418 -0.606527 
-0.036788 -0.593235 
-0.032071 -0.600446 
-0.035040 -0.595791 
-0.029500 -0.596057 
-0.032601 -0.596697 
-0.027218 -0.601611 
-0.103720 -0.471573 
-0.096994 -0.488496 
-0.103489 -0.481699 
-0.084304 -0.499537 
-0.090619 -0.494411 
-0.090273 -0.482303 
-0.089236 -0.511797 
-0.090255 -0.504159 
-0.083517 -0.518552 
-0.059020 -0.513851 
-0.065383 -0.511055 
-0.063298 -0.495690 
-0.066910 -0.534681 
-0.066563 -0.524018 
-0.061448 -0.538844 
-0.076857 -0.490091 
-0.071709 -0.507781 
-0.078010 -0.503966 
-0.061131 -0.557110 
-0.063553 -0.554237 
-0.057041 -0.563704 
-0.076806 -0.531683 
-0.070146 -0.543571 
-0.075058 -0.536870 
-0.060645 -0.555120 
-0.065353 -0.549643 
-0.066488 -0.543175 
-0.078336 -0.515410 
-0.072390 -0.529947 
-0.077914 -0.524588 
-0.013255 -0.523913 
-0.007156 -0.505165 
-0.022642 -0.555663 
-0.018431 -0.540767 
-0.021415 -0.504080 
-0.019905 -0.523246 
-0.026526 -0.522374 
-0.030304 -0.595770 
-0.029696 -0.588608 
-0.036153 -0.564745 
-0.032899 -0.577355 
-0.037537 -0.574762 
-0.028242 -0.579562 
-0.025902 -0.568590 
-0.049532 -0.499639 
-0.046159 -0.518226 
-0.052613 -0.516226 
-0.033112 -0.521266 
-0.039658 -0.519894 
-0.035558 -0.502337 
-0.044993 -0.548387 
-0.042793 -0.535236 
-0.039453 -0.550724 
-0.028275 -0.554337 
-0.033880 -0.552699 
-0.030681 -0.538582 
-0.053069 -0.569755 
-0.055993 -0.560037 
-0.054875 -0.565812 
-0.049184 -0.575284 
-0.045360 -0.580310 
-0.054746 -0.530489 
-0.046301 -0.559394 
-0.050501 -0.545653 
-0.055983 -0.542486 
-0.056380 -0.552301 
-0.034058 -0.592567 
-0.041575 -0.584854 
-0.037812 -0.588934 
-0.038076 -0.582802 
-0.042157 -0.571760 
-0.051373 -0.564428 
-0.046766 -0.568325 
-0.046437 -0.575265 
-0.117571 -0.446973 
-0.110429 -0.453486 
-0.123203 -0.413412 
-0.116931 -0.434103 
-0.130951 -0.407600 
-0.103323 -0.459016 
-0.096229 -0.463684 
-0.144108 -0.317485 
-0.139784 -0.343443 
-0.152838 -0.314270 
-0.112957 -0.399112 
-0.126381 -0.371781 
-0.117899 -0.374576 
-0.143030 -0.363264 
-0.134748 -0.368082 
-0.129176 -0.391405 
-0.074785 -0.473658 
-0.067534 -0.475950 
-0.089122 -0.467612 
-0.081979 -0.470905 
-0.091803 -0.427831 
-0.086982 -0.450165 
-0.099759 -0.425283 
-0.115442 -0.418206 
-0.107634 -0.422117 
-0.102034 -0.443631 
-0.083252 -0.044101 
-0.113768 -0.090409 
-0.108849 -0.061039 
-0.119780 -0.154978 
-0.119441 -0.121767 
-0.107373 -0.115817 
-0.144687 -0.140268 
-0.132068 -0.129883 
-0.142578 -0.166057 
-0.089355 -0.289452 
-0.099749 -0.256587 
-0.089540 -0.255595 
-0.120138 -0.258944 
-0.109966 -0.257719 
-0.109265 -0.290598 
-0.105153 -0.186450 
-0.108832 -0.222979 
-0.115839 -0.188953 
-0.158764 -0.260929 
-0.149589 -0.261536 
-0.147483 -0.290195 
-0.147976 -0.199703 
-0.149973 -0.231426 
-0.157960 -0.203359 
-0.128782 -0.291325 
-0.140039 -0.261119 
-0.130191 -0.260146 
-0.126654 -0.192077 
-0.129739 -0.227101 
-0.137444 -0.195754 
-0.015297 -0.483719 
-0.007689 -0.484111 
-0.030431 -0.482565 
-0.022878 -0.483215 
-0.025578 -0.436176 
-0.024269 -0.460597 
-0.034041 -0.435802 
-0.060223 -0.477851 
-0.052852 -0.479418 
-0.059176 -0.433846 
-0.056085 -0.457503 
-0.067444 -0.432811 
-0.045426 -0.480699 
-0.037950 -0.481737 
-0.068473 -0.321126 
-0.066836 -0.352045 
-0.078235 -0.321334 
-0.044505 -0.409389 
-0.055504 -0.381437 
-0.046318 -0.381642 
-0.073742 -0.380720 
-0.064650 -0.381140 
-0.062059 -0.408402 
-0.040266 -0.459410 
-0.050847 -0.434664 
-0.042467 -0.435306 
-0.135175 -0.319534 
-0.116714 -0.321366 
-0.126037 -0.320740 
-0.122322 -0.348469 
-0.109291 -0.376660 
-0.087966 -0.321515 
-0.082768 -0.380133 
-0.085691 -0.351742 
-0.097643 -0.321630 
-0.107237 -0.321614 
-0.071670 -0.454573 
-0.096364 -0.403858 
-0.083764 -0.429875 
-0.075643 -0.431508 
-0.079375 -0.406710 
-0.104247 -0.350799 
-0.091712 -0.379319 
-0.100558 -0.378197 
0.000000 0.000000 
-0.066560 -0.036331 
-0.047741 -0.032571 
-0.055678 -0.033508 
0.000000 0.000000 
-0.086863 -0.074958 
-0.096214 -0.111814 
-0.026915 -0.032218 
-0.031205 -0.032182 
0.000000 0.000000 
-0.067564 -0.106484 
-0.052389 -0.068497 
-0.059126 -0.105751 
0.000000 0.000000 
-0.035963 -0.032181 
-0.041372 -0.032266 
-0.088091 -0.220053 
-0.079371 -0.254754 
-0.097957 -0.148362 
-0.094680 -0.184517 
-0.074457 -0.181941 
-0.084450 -0.183050 
-0.077900 -0.144980 
-0.067607 -0.070068 
-0.076467 -0.107575 
-0.085963 -0.109235 
0.000000 -0.031814 
-0.002985 -0.032246 
0.000000 0.000000 
-0.007010 -0.103640 
-0.005299 -0.067114 
0.000000 -0.103074 
0.000000 0.000000 
-0.006057 -0.032376 
-0.009207 -0.032410 
-0.009815 -0.251681 
-0.009557 -0.215534 
0.000000 -0.251450 
-0.024772 -0.141658 
-0.018109 -0.178837 
-0.027213 -0.179171 
0.000000 -0.178110 
-0.009050 -0.178491 
-0.008227 -0.141002 
0.000000 0.000000 
-0.019282 -0.032321 
-0.022970 -0.032268 
-0.012442 -0.032400 
-0.015789 -0.032367 
0.000000 0.000000 
-0.035730 -0.104621 
-0.027289 -0.067676 
-0.028370 -0.104407 
-0.014046 -0.103974 
-0.021154 -0.104206 
-0.016075 -0.067511 
-0.008129 -0.461245 
0.000000 -0.484359 
-0.026784 -0.409931 
-0.017080 -0.436441 
0.000000 -0.436651 
-0.008552 -0.436600 
-0.008947 -0.410151 
-0.069366 -0.288429 
-0.058696 -0.320915 
-0.039132 -0.320521 
-0.048914 -0.320711 
-0.049448 -0.287640 
-0.047824 -0.352071 
-0.037098 -0.381778 
0.000000 -0.319908 
-0.009790 -0.320033 
-0.009878 -0.286595 
-0.009299 -0.381890 
-0.009587 -0.351832 
0.000000 -0.381851 
-0.029632 -0.287048 
-0.019572 -0.320180 
-0.029352 -0.320344 
-0.027852 -0.381859 
-0.028730 -0.351980 
-0.018584 -0.381894 
-0.039236 -0.067914 
-0.041697 -0.142291 
-0.043275 -0.104886 
-0.051054 -0.105245 
-0.059291 -0.143247 
-0.019630 -0.251948 
-0.039331 -0.252592 
-0.029463 -0.252249 
-0.028711 -0.216181 
-0.036394 -0.179528 
-0.069263 -0.254054 
-0.064683 -0.181098 
-0.067839 -0.218180 
-0.059222 -0.253474 
-0.049247 -0.252994 
-0.045680 -0.179942 
-0.048084 -0.216990 
-0.055100 -0.180451 
0.000000 0.000000 
0.002985 -0.032246 
0.009207 -0.032410 
0.006057 -0.032376 
0.000000 0.000000 
0.005299 -0.067114 
0.007010 -0.103640 
0.022970 -0.032268 
0.019282 -0.032321 
0.000000 0.000000 
0.028370 -0.104407 
0.027289 -0.067676 
0.035730 -0.104621 
0.000000 0.000000 
0.015789 -0.032367 
0.012442 -0.032400 
0.009557 -0.215534 
0.009815 -0.251681 
0.008227 -0.141002 
0.009050 -0.178491 
0.027213 -0.179171 
0.018109 -0.178837 
0.024772 -0.141658 
0.016075 -0.067511 
0.021154 -0.104206 
0.014046 -0.103974 
0.083252 -0.044101 
0.066560 -0.036331 
0.000000 0.000000 
0.096214 -0.111814 
0.086863 -0.074958 
0.107373 -0.115817 
0.000000 0.000000 
0.055678 -0.033508 
0.047741 -0.032571 
0.079371 -0.254754 
0.088091 -0.220053 
0.089540 -0.255595 
0.077900 -0.144980 
0.084450 -0.183050 
0.074457 -0.181941 
0.105153 -0.186450 
0.094680 -0.184517 
0.097957 -0.148362 
0.000000 0.000000 
0.031205 -0.032182 
0.026915 -0.032218 
0.041372 -0.032266 
0.035963 -0.032181 
0.000000 0.000000 
0.059126 -0.105751 
0.052389 -0.068497 
0.067564 -0.106484 
0.085963 -0.109235 
0.076467 -0.107575 
0.067607 -0.070068 
0.008129 -0.461245 
0.007689 -0.484111 
0.008947 -0.410151 
0.008552 -0.436600 
0.025578 -0.436176 
0.017080 -0.436441 
0.026784 -0.409931 
0.009878 -0.286595 
0.009790 -0.320033 
0.029352 -0.320344 
0.019572 -0.320180 
0.029632 -0.287048 
0.009587 -0.351832 
0.009299 -0.381890 
0.068473 -0.321126 
0.058696 -0.320915 
0.069366 -0.288429 
0.037098 -0.381778 
0.047824 -0.352071 
0.046318 -0.381642 
0.049448 -0.287640 
0.048914 -0.320711 
0.039132 -0.320521 
0.018584 -0.381894 
0.028730 -0.351980 
0.027852 -0.381859 
0.039236 -0.067914 
0.059291 -0.143247 
0.051054 -0.105245 
0.043275 -0.104886 
0.041697 -0.142291 
0.069263 -0.254054 
0.049247 -0.252994 
0.059222 -0.253474 
0.067839 -0.218180 
0.064683 -0.181098 
0.019630 -0.251948 
0.036394 -0.179528 
0.028711 -0.216181 
0.029463 -0.252249 
0.039331 -0.252592 
0.055100 -0.180451 
0.048084 -0.216990 
0.045680 -0.179942 
0.108849 -0.061039 
0.113768 -0.090409 
0.142578 -0.166057 
0.132068 -0.129883 
0.144687 -0.140268 
0.119441 -0.121767 
0.119780 -0.154978 
0.147483 -0.290195 
0.149589 -0.261536 
0.158764 -0.260929 
0.130191 -0.260146 
0.140039 -0.261119 
0.128782 -0.291325 
0.157960 -0.203359 
0.149973 -0.231426 
0.147976 -0.199703 
0.099749 -0.256587 
0.089355 -0.289452 
0.115839 -0.188953 
0.108832 -0.222979 
0.109265 -0.290598 
0.109966 -0.257719 
0.120138 -0.258944 
0.137444 -0.195754 
0.129739 -0.227101 
0.126654 -0.192077 
0.103720 -0.471573 
0.110429 -0.453486 
0.117571 -0.446973 
0.096229 -0.463684 
0.103323 -0.459016 
0.090273 -0.482303 
0.130951 -0.407600 
0.116931 -0.434103 
0.123203 -0.413412 
0.067534 -0.475950 
0.074785 -0.473658 
0.063298 -0.495690 
0.099759 -0.425283 
0.086982 -0.450165 
0.091803 -0.427831 
0.076857 -0.490091 
0.081979 -0.470905 
0.089122 -0.467612 
0.152838 -0.314270 
0.139784 -0.343443 
0.144108 -0.317485 
0.129176 -0.391405 
0.134748 -0.368082 
0.143030 -0.363264 
0.117899 -0.374576 
0.126381 -0.371781 
0.112957 -0.399112 
0.102034 -0.443631 
0.107634 -0.422117 
0.115442 -0.418206 
0.015297 -0.483719 
0.007156 -0.505165 
0.034041 -0.435802 
0.024269 -0.460597 
0.021415 -0.504080 
0.022878 -0.483215 
0.030431 -0.482565 
0.078235 -0.321334 
0.066836 -0.352045 
0.062059 -0.408402 
0.064650 -0.381140 
0.073742 -0.380720 
0.055504 -0.381437 
0.044505 -0.409389 
0.049532 -0.499639 
0.052852 -0.479418 
0.060223 -0.477851 
0.037950 -0.481737 
0.045426 -0.480699 
0.035558 -0.502337 