# vtk DataFile Version 2.0
Unstructured Grid Example
ASCII
DATASET UNSTRUCTURED_GRID

POINTS 16641 float
0.001775 -0.592722 0.000000 
0.998225 -0.592722 0.000000 
1.000000 1.000000 0.000000 
0.000000 1.000000 0.000000 
0.500000 -0.648590 0.000000 
0.889376 0.034377 0.000000 
0.500000 1.000000 0.000000 
0.110624 0.034377 0.000000 
0.500000 -0.005579 0.000000 
0.248962 -0.634379 0.000000 
0.500000 -0.367101 0.000000 
0.276850 -0.354942 0.000000 
0.751038 -0.634379 0.000000 
0.723150 -0.354942 0.000000 
0.945681 -0.315692 0.000000 
0.693534 0.001642 0.000000 
0.843352 0.461768 0.000000 
0.670563 0.460722 0.000000 
0.750000 1.000000 0.000000 
0.500000 0.462684 0.000000 
0.250000 1.000000 0.000000 
0.329437 0.460722 0.000000 
0.156648 0.461768 0.000000 
0.306466 0.001642 0.000000 
0.054319 -0.315692 0.000000 
0.124540 -0.616499 0.000000 
0.262964 -0.502928 0.000000 
0.144935 -0.485936 0.000000 
0.500000 -0.516348 0.000000 
0.381395 -0.513033 0.000000 
0.374326 -0.645147 0.000000 
0.395837 -0.195541 0.000000 
0.388472 -0.364118 0.000000 
0.500000 -0.197990 0.000000 
0.625674 -0.645147 0.000000 
0.618605 -0.513033 0.000000 
0.855065 -0.485936 0.000000 
0.737036 -0.502928 0.000000 
0.875460 -0.616499 0.000000 
0.611528 -0.364118 0.000000 
0.604163 -0.195541 0.000000 
0.972278 -0.462584 0.000000 
0.834760 -0.339015 0.000000 
0.791360 0.012952 0.000000 
0.813462 -0.173506 0.000000 
0.917821 -0.150430 0.000000 
0.708642 -0.187812 0.000000 
0.596504 -0.003779 0.000000 
0.862710 0.238644 0.000000 
0.770294 0.222755 0.000000 
0.766252 0.723624 0.000000 
0.755760 0.458575 0.000000 
0.846412 0.701411 0.000000 
0.679284 0.216873 0.000000 
0.589398 0.214811 0.000000 
0.875000 1.000000 0.000000 
0.681521 0.730849 0.000000 
0.500000 0.733318 0.000000 
0.591831 0.732730 0.000000 
0.625000 1.000000 0.000000 
0.585456 0.462171 0.000000 
0.500000 0.214305 0.000000 
0.375000 1.000000 0.000000 
0.408169 0.732730 0.000000 
0.233748 0.723624 0.000000 
0.318479 0.730849 0.000000 
0.125000 1.000000 0.000000 
0.414544 0.462171 0.000000 
0.410602 0.214811 0.000000 
0.153588 0.701411 0.000000 
0.244240 0.458575 0.000000 
0.208640 0.012952 0.000000 
0.229706 0.222755 0.000000 
0.137290 0.238644 0.000000 
0.320716 0.216873 0.000000 
0.403496 -0.003779 0.000000 
0.082179 -0.150430 0.000000 
0.186538 -0.173506 0.000000 
0.165240 -0.339015 0.000000 
0.027722 -0.462584 0.000000 
0.291358 -0.187812 0.000000 
0.062932 -0.605174 0.000000 
0.134871 -0.553136 0.000000 
0.074654 -0.542009 0.000000 
0.256040 -0.570588 0.000000 
0.195346 -0.562713 0.000000 
0.186582 -0.626294 0.000000 
0.212388 -0.423763 0.000000 
0.203880 -0.495282 0.000000 
0.269863 -0.431148 0.000000 
0.500000 -0.584453 0.000000 
0.438917 -0.583615 0.000000 
0.437155 -0.647805 0.000000 
0.442455 -0.443221 0.000000 
0.440685 -0.515524 0.000000 
0.500000 -0.444010 0.000000 
0.311573 -0.640671 0.000000 
0.377875 -0.581039 0.000000 
0.316901 -0.576700 0.000000 
0.449848 -0.104368 0.000000 
0.447939 -0.197382 0.000000 
0.500000 -0.104900 0.000000 
0.332674 -0.360334 0.000000 
0.392107 -0.282494 0.000000 
0.338089 -0.278993 0.000000 
0.500000 -0.285238 0.000000 
0.446069 -0.284557 0.000000 
0.444243 -0.366360 0.000000 
0.322147 -0.508842 0.000000 
0.384914 -0.440838 0.000000 
0.327380 -0.436827 0.000000 
0.562845 -0.647805 0.000000 
0.561083 -0.583615 0.000000 
0.683099 -0.576700 0.000000 
0.622125 -0.581039 0.000000 
0.688427 -0.640671 0.000000 
0.559315 -0.515524 0.000000 
0.557545 -0.443221 0.000000 
0.925346 -0.542009 0.000000 
0.865129 -0.553136 0.000000 
0.937068 -0.605174 0.000000 
0.730137 -0.431148 0.000000 
0.796120 -0.495282 0.000000 
0.787612 -0.423763 0.000000 
0.813418 -0.626294 0.000000 
0.804654 -0.562713 0.000000 
0.743960 -0.570588 0.000000 
0.552061 -0.197382 0.000000 
0.550152 -0.104368 0.000000 
0.555757 -0.366360 0.000000 
0.553931 -0.284557 0.000000 
0.661911 -0.278993 0.000000 
0.607893 -0.282494 0.000000 
0.667326 -0.360334 0.000000 
0.677853 -0.508842 0.000000 
0.672620 -0.436827 0.000000 
0.615086 -0.440838 0.000000 
0.985271 -0.529596 0.000000 
0.913816 -0.474982 0.000000 
0.890386 -0.328316 0.000000 
0.902217 -0.403832 0.000000 
0.959126 -0.391351 0.000000 
0.844999 -0.414653 0.000000 
0.778979 -0.347863 0.000000 
0.840446 0.022027 0.000000 
0.853141 -0.073217 0.000000 
0.903576 -0.060542 0.000000 
0.751731 -0.090521 0.000000 
0.802448 -0.083043 0.000000 
0.742353 0.006354 0.000000 
0.931898 -0.235436 0.000000 
0.865798 -0.163231 0.000000 
0.878244 -0.248193 0.000000 
0.600350 -0.102795 0.000000 
0.548216 -0.005018 0.000000 
0.715995 -0.273958 0.000000 
0.656349 -0.192395 0.000000 
0.644926 -0.001630 0.000000 
0.650660 -0.100095 0.000000 
0.701119 -0.096089 0.000000 
0.824253 -0.258731 0.000000 
0.761033 -0.181599 0.000000 
0.770130 -0.267258 0.000000 
0.875580 0.134018 0.000000 
0.828015 0.122666 0.000000 
0.806277 0.340731 0.000000 
0.816373 0.228849 0.000000 
0.851546 0.347998 0.000000 
0.780477 0.114781 0.000000 
0.733159 0.109419 0.000000 
0.839568 0.855979 0.000000 
0.806185 0.714631 0.000000 
0.871251 0.829725 0.000000 
0.713054 0.459626 0.000000 
0.755490 0.587316 0.000000 
0.713919 0.590874 0.000000 
0.840289 0.579595 0.000000 
0.797246 0.582767 0.000000 
0.799065 0.458536 0.000000 
0.592777 0.101961 0.000000 
0.546348 0.101125 0.000000 
0.686122 0.105822 0.000000 
0.639347 0.103454 0.000000 
0.630169 0.334966 0.000000 
0.634245 0.215567 0.000000 
0.673702 0.335133 0.000000 
0.761588 0.337215 0.000000 
0.717452 0.335701 0.000000 
0.724606 0.219072 0.000000 
0.937500 1.000000 0.000000 
0.799266 0.865139 0.000000 
0.704852 0.869245 0.000000 
0.753487 0.868209 0.000000 
0.812500 1.000000 0.000000 
0.724707 0.728427 0.000000 
0.671970 0.593209 0.000000 
0.500000 0.869953 0.000000 
0.551896 0.869760 0.000000 
0.562500 1.000000 0.000000 
0.543376 0.595996 0.000000 
0.546038 0.733086 0.000000 
0.500000 0.596218 0.000000 
0.687500 1.000000 0.000000 
0.603536 0.869700 0.000000 
0.654650 0.869590 0.000000 
0.544669 0.214419 0.000000 
0.500000 0.100846 0.000000 
0.628059 0.461580 0.000000 
0.586743 0.334953 0.000000 
0.500000 0.335019 0.000000 
0.543362 0.334985 0.000000 
0.542755 0.462529 0.000000 
0.637100 0.732083 0.000000 
0.586599 0.595508 0.000000 
0.629509 0.594648 0.000000 
0.437500 1.000000 0.000000 
0.448104 0.869760 0.000000 
0.345350 0.869590 0.000000 
0.396464 0.869700 0.000000 
0.312500 1.000000 0.000000 
0.453962 0.733086 0.000000 
0.456624 0.595996 0.000000 
0.160432 0.855979 0.000000 
0.200734 0.865139 0.000000 
0.062500 1.000000 0.000000 
0.328030 0.593209 0.000000 
0.275293 0.728427 0.000000 
0.286081 0.590874 0.000000 
0.187500 1.000000 0.000000 
0.246513 0.868209 0.000000 
0.295148 0.869245 0.000000 
0.455331 0.214419 0.000000 
0.453652 0.101125 0.000000 
0.457245 0.462529 0.000000 
0.456638 0.334985 0.000000 
0.369831 0.334966 0.000000 
0.413257 0.334953 0.000000 
0.371941 0.461580 0.000000 
0.362900 0.732083 0.000000 
0.370491 0.594648 0.000000 
0.413401 0.595508 0.000000 
0.128749 0.829725 0.000000 
0.193815 0.714631 0.000000 
0.200935 0.458536 0.000000 
0.202754 0.582767 0.000000 
0.159711 0.579595 0.000000 
0.244510 0.587316 0.000000 
0.286946 0.459626 0.000000 
0.159554 0.022027 0.000000 
0.171985 0.122666 0.000000 
0.124420 0.134018 0.000000 
0.266841 0.109419 0.000000 
0.219523 0.114781 0.000000 
0.257647 0.006354 0.000000 
0.148454 0.347998 0.000000 
0.183627 0.228849 0.000000 
0.193723 0.340731 0.000000 
0.407223 0.101961 0.000000 
0.451784 -0.005018 0.000000 
0.326298 0.335133 0.000000 
0.365755 0.215567 0.000000 
0.355074 -0.001630 0.000000 
0.360653 0.103454 0.000000 
0.313878 0.105822 0.000000 
0.238412 0.337215 0.000000 
0.275394 0.219072 0.000000 
0.282548 0.335701 0.000000 
0.096424 -0.060542 0.000000 
0.146859 -0.073217 0.000000 
0.121756 -0.248193 0.000000 
0.134202 -0.163231 0.000000 
0.068102 -0.235436 0.000000 
0.197552 -0.083043 0.000000 
0.248269 -0.090521 0.000000 
0.086184 -0.474982 0.000000 
0.014729 -0.529596 0.000000 
0.221021 -0.347863 0.000000 
0.155001 -0.414653 0.000000 
0.040874 -0.391351 0.000000 
0.097783 -0.403832 0.000000 
0.109614 -0.328316 0.000000 
0.399650 -0.102795 0.000000 
0.298881 -0.096089 0.000000 
0.349340 -0.100095 0.000000 
0.343651 -0.192395 0.000000 
0.284005 -0.273958 0.000000 
0.175747 -0.258731 0.000000 
0.229870 -0.267258 0.000000 
0.238967 -0.181599 0.000000 
0.032307 -0.599041 0.000000 
0.068840 -0.574056 0.000000 
0.038498 -0.567959 0.000000 
0.129761 -0.585284 0.000000 
0.099259 -0.579847 0.000000 
0.093677 -0.611011 0.000000 
0.110140 -0.514698 0.000000 
0.104729 -0.547752 0.000000 
0.139917 -0.520030 0.000000 
0.252528 -0.602954 0.000000 
0.221737 -0.599183 0.000000 
0.217737 -0.630557 0.000000 
0.229552 -0.533591 0.000000 
0.225669 -0.566868 0.000000 
0.259513 -0.537256 0.000000 
0.155512 -0.621602 0.000000 
0.191007 -0.594973 0.000000 
0.160345 -0.590334 0.000000 
0.245006 -0.390215 0.000000 
0.241118 -0.427670 0.000000 
0.273340 -0.393619 0.000000 
0.174387 -0.490817 0.000000 
0.208127 -0.460051 0.000000 
0.179024 -0.455647 0.000000 
0.266409 -0.467571 0.000000 
0.237257 -0.464026 0.000000 
0.233408 -0.499321 0.000000 
0.165078 -0.558130 0.000000 
0.199628 -0.529492 0.000000 
0.169748 -0.524968 0.000000 
0.500000 -0.617007 0.000000 
0.469011 -0.616815 0.000000 
0.468580 -0.648447 0.000000 
0.469898 -0.550703 0.000000 
0.469454 -0.584247 0.000000 
0.500000 -0.550911 0.000000 
0.405735 -0.646703 0.000000 
0.438033 -0.616179 0.000000 
0.407063 -0.615095 0.000000 
0.471673 -0.405959 0.000000 
0.471227 -0.443813 0.000000 
0.500000 -0.406150 0.000000 
0.411036 -0.514489 0.000000 
0.441569 -0.479920 0.000000 
0.412358 -0.478905 0.000000 
0.500000 -0.480728 0.000000 
0.470784 -0.480526 0.000000 
0.470341 -0.516143 0.000000 
0.280244 -0.637751 0.000000 
0.314250 -0.609156 0.000000 
0.283368 -0.606279 0.000000 
0.376105 -0.613564 0.000000 
0.345165 -0.611584 0.000000 
0.342936 -0.643136 0.000000 
0.349575 -0.545624 0.000000 
0.347377 -0.579091 0.000000 
0.379637 -0.547540 0.000000 
[...]
POINT_DATA 16641

SCALARS u_h float 2
LOOKUP_TABLE default
0.001775 -0.592722 
-0.001775 -0.592722 
0.000000 0.000000 
0.000000 0.000000 
-0.000000 -0.648590 
-0.110624 -0.465623 
0.000000 0.000000 
0.110624 -0.465623 
-0.000000 -0.505579 
-0.001038 -0.634379 
-0.000000 -0.617101 
0.026850 -0.604942 
0.001038 -0.634379 
-0.026850 -0.604942 
-0.054319 -0.565692 
-0.056466 -0.498358 
-0.156648 -0.288232 
-0.079437 -0.289278 
0.000000 0.000000 
-0.000000 -0.287316 
0.000000 0.000000 
0.079437 -0.289278 
0.156648 -0.288232 
0.056466 -0.498358 
0.054319 -0.565692 
-0.000460 -0.616499 
0.012964 -0.627928 
0.019935 -0.610936 
-0.000000 -0.641348 
0.006395 -0.638033 
-0.000674 -0.645147 
0.020837 -0.570541 
0.013472 -0.614118 
-0.000000 -0.572990 
0.000674 -0.645147 
-0.006395 -0.638033 
-0.019935 -0.610936 
-0.012964 -0.627928 
0.000460 -0.616499 
-0.013472 -0.614118 
-0.020837 -0.570541 
-0.027722 -0.587584 
-0.040240 -0.589015 
-0.083640 -0.487048 
-0.061538 -0.548506 
-0.082179 -0.525430 
-0.041358 -0.562812 
-0.028496 -0.503779 
-0.137290 -0.386356 
-0.104706 -0.402245 
-0.108748 -0.151376 
-0.119240 -0.291425 
-0.153588 -0.173589 
-0.070716 -0.408127 
-0.035602 -0.410189 
0.000000 0.000000 
-0.068479 -0.144151 
-0.000000 -0.141682 
-0.033169 -0.142270 
0.000000 0.000000 
-0.039544 -0.287829 
-0.000000 -0.410695 
0.000000 0.000000 
0.033169 -0.142270 
0.108748 -0.151376 
0.068479 -0.144151 
0.000000 0.000000 
0.039544 -0.287829 
0.035602 -0.410189 
0.153588 -0.173589 
0.119240 -0.291425 
0.083640 -0.487048 
0.104706 -0.402245 
0.137290 -0.386356 
0.070716 -0.408127 
0.028496 -0.503779 
0.082179 -0.525430 
0.061538 -0.548506 
0.040240 -0.589015 
0.027722 -0.587584 
0.041358 -0.562812 
0.000432 -0.605174 
0.009871 -0.615636 
0.012154 -0.604509 
0.006040 -0.633088 
0.007846 -0.625213 
-0.000918 -0.626294 
0.024888 -0.611263 
0.016380 -0.620282 
0.019863 -0.618648 
-0.000000 -0.646953 
0.001417 -0.646115 
-0.000345 -0.647805 
0.004955 -0.630721 
0.003185 -0.640524 
-0.000000 -0.631510 
-0.000927 -0.640671 
0.002875 -0.643539 
0.004401 -0.639200 
0.012348 -0.541868 
0.010439 -0.572382 
-0.000000 -0.542400 
0.020174 -0.610334 
0.017107 -0.594994 
0.025589 -0.591493 
-0.000000 -0.597738 
0.008569 -0.597057 
0.006743 -0.616360 
0.009647 -0.633842 
0.009914 -0.628338 
0.014880 -0.624327 
0.000345 -0.647805 
-0.001417 -0.646115 
-0.004401 -0.639200 
-0.002875 -0.643539 
0.000927 -0.640671 
-0.003185 -0.640524 
-0.004955 -0.630721 
-0.012154 -0.604509 
-0.009871 -0.615636 
-0.000432 -0.605174 
-0.019863 -0.618648 
-0.016380 -0.620282 
-0.024888 -0.611263 
0.000918 -0.626294 
-0.007846 -0.625213 
-0.006040 -0.633088 
-0.010439 -0.572382 
-0.012348 -0.541868 
-0.006743 -0.616360 
-0.008569 -0.597057 
-0.025589 -0.591493 
-0.017107 -0.594994 
-0.020174 -0.610334 
-0.009647 -0.633842 
-0.014880 -0.624327 
-0.009914 -0.628338 
-0.014729 -0.592096 
-0.023684 -0.599982 
-0.047114 -0.578316 
-0.035283 -0.591332 
-0.040874 -0.578851 
-0.030001 -0.602153 
-0.033521 -0.597863 
-0.097054 -0.477973 
-0.084359 -0.510717 
-0.096424 -0.498042 
-0.060769 -0.528021 
-0.072552 -0.520543 
-0.070147 -0.493646 
-0.068102 -0.547936 
-0.071702 -0.538231 
-0.059256 -0.560693 
-0.024650 -0.540295 
-0.014284 -0.505018 
-0.034005 -0.586458 
-0.031151 -0.567395 
-0.042574 -0.501630 
-0.036840 -0.537595 
-0.048881 -0.533589 
-0.050747 -0.571231 
-0.051467 -0.556599 
-0.042370 -0.579758 
-0.124420 -0.428482 
-0.109485 -0.439834 
-0.131223 -0.346769 
-0.121127 -0.396151 
-0.148454 -0.339502 
-0.094523 -0.447719 
-0.079341 -0.453081 
-0.097932 -0.081521 
-0.131315 -0.160369 
-0.128749 -0.107775 
-0.099446 -0.290374 
-0.119510 -0.225184 
-0.098581 -0.221626 
-0.159711 -0.232905 
-0.140254 -0.229733 
-0.138435 -0.291464 
-0.032223 -0.460539 
-0.016152 -0.461375 
-0.063878 -0.456678 
-0.048153 -0.459046 
-0.057331 -0.352534 
-0.053255 -0.409433 
-0.076298 -0.352367 
-0.113412 -0.350285 
-0.095048 -0.351799 
-0.087894 -0.405928 
0.000000 0.000000 
-0.075734 -0.072361 
-0.045148 -0.068255 
-0.059013 -0.069291 
0.000000 0.000000 
-0.087793 -0.146573 
-0.078030 -0.219291 
-0.000000 -0.067547 
-0.010604 -0.067740 
0.000000 0.000000 
-0.019124 -0.216504 
-0.016462 -0.141914 
-0.000000 -0.216282 
0.000000 0.000000 
-0.021464 -0.067800 
-0.032850 -0.067910 
-0.017831 -0.410581 
-0.000000 -0.461654 
-0.059441 -0.288420 
-0.038257 -0.352547 
-0.000000 -0.352481 
-0.019138 -0.352515 
-0.019745 -0.287471 
-0.050400 -0.142917 
-0.038401 -0.216992 
-0.057991 -0.217852 
0.000000 0.000000 
0.010604 -0.067740 
0.032850 -0.067910 
0.021464 -0.067800 
0.000000 0.000000 
0.016462 -0.141914 
0.019124 -0.216504 
0.097932 -0.081521 
0.075734 -0.072361 
0.000000 0.000000 
0.078030 -0.219291 
0.087793 -0.146573 
0.098581 -0.221626 
0.000000 0.000000 
0.059013 -0.069291 
0.045148 -0.068255 
0.017831 -0.410581 
0.016152 -0.461375 
0.019745 -0.287471 
0.019138 -0.352515 
0.057331 -0.352534 
0.038257 -0.352547 
0.059441 -0.288420 
0.050400 -0.142917 
0.057991 -0.217852 
0.038401 -0.216992 
0.128749 -0.107775 
0.131315 -0.160369 
0.138435 -0.291464 
0.140254 -0.229733 
0.159711 -0.232905 
0.119510 -0.225184 
0.099446 -0.290374 
0.097054 -0.477973 
0.109485 -0.439834 
0.124420 -0.428482 
0.079341 -0.453081 
0.094523 -0.447719 
0.070147 -0.493646 
0.148454 -0.339502 
0.121127 -0.396151 
0.131223 -0.346769 
0.032223 -0.460539 
0.014284 -0.505018 
0.076298 -0.352367 
0.053255 -0.409433 
0.042574 -0.501630 
0.048153 -0.459046 
0.063878 -0.456678 
0.113412 -0.350285 
0.087894 -0.405928 
0.095048 -0.351799 
0.096424 -0.498042 
0.084359 -0.510717 
0.059256 -0.560693 
0.071702 -0.538231 
0.068102 -0.547936 
0.072552 -0.520543 
0.060769 -0.528021 
0.023684 -0.599982 
0.014729 -0.592096 
0.033521 -0.597863 
0.030001 -0.602153 
0.040874 -0.578851 
0.035283 -0.591332 
0.047114 -0.578316 
0.024650 -0.540295 
0.048881 -0.533589 
0.036840 -0.537595 
0.031151 -0.567395 
0.034005 -0.586458 
0.050747 -0.571231 
0.042370 -0.579758 
0.051467 -0.556599 
0.001057 -0.599041 
0.006340 -0.605306 
0.007248 -0.599209 
0.004761 -0.616534 
0.005509 -0.611097 
-0.000073 -0.611011 
0.016390 -0.608448 
0.010979 -0.610252 
0.014917 -0.613780 
0.002528 -0.634204 
0.002987 -0.630433 
-0.001013 -0.630557 
0.010802 -0.627341 
0.006919 -0.629368 
0.009513 -0.631006 
-0.000738 -0.621602 
0.003507 -0.626223 
0.004095 -0.621584 
0.026256 -0.608965 
0.022368 -0.615170 
0.023340 -0.612369 
0.018137 -0.615817 
0.020627 -0.616301 
0.022774 -0.611897 
0.016409 -0.623821 
0.018507 -0.620276 
0.014658 -0.624321 
0.008828 -0.620630 
0.012128 -0.623242 
0.013498 -0.618718 
-0.000000 -0.648257 
0.000261 -0.648065 
-0.000170 -0.648447 
0.001148 -0.644453 
0.000704 -0.646747 
-0.000000 -0.644661 
-0.000515 -0.646703 
0.000533 -0.647429 
0.000813 -0.646345 
0.002923 -0.624709 
0.002477 -0.631313 
-0.000000 -0.624900 
0.004786 -0.639489 
0.004069 -0.636170 
0.006108 -0.635155 
-0.000000 -0.636978 
0.002034 -0.636776 
0.001591 -0.641143 
-0.001006 -0.637751 
0.001750 -0.640406 
0.002118 -0.637529 
0.001105 -0.644814 
0.001415 -0.642834 
-0.000814 -0.643136 
0.005825 -0.639374 
0.003627 -0.641591 
0.004637 -0.641290 
0.002302 -0.643826 
0.003464 -0.642773 
0.002140 -0.645046 
0.006653 -0.524634 
0.006175 -0.542264 
-0.000000 -0.524777 
0.015646 -0.571618 
0.011390 -0.557885 
0.017072 -0.557175 
-0.000000 -0.558454 
0.005697 -0.558311 
0.005222 -0.572838 
0.023515 -0.607844 
0.022864 -0.601544 
0.026639 -0.599135 
0.015278 -0.605195 
0.019077 -0.603561 
0.016827 -0.612423 
0.023666 -0.581973 
0.021356 -0.593429 
0.018960 -0.583462 
-0.000000 -0.608065 
0.003827 -0.607887 
0.003373 -0.616916 
0.004751 -0.585904 
0.004286 -0.597568 
-0.000000 -0.586065 
0.010110 -0.615429 
0.007651 -0.607352 
0.011469 -0.606456 
0.014236 -0.584607 
0.012843 -0.596201 
0.009498 -0.585419 
0.005203 -0.636366 
0.008014 -0.636152 
0.007030 -0.637023 
0.008258 -0.634233 
0.011295 -0.631102 
0.005846 -0.624133 
0.011685 -0.621816 
0.008766 -0.623170 
0.007434 -0.629730 
0.008152 -0.633729 
0.020427 -0.615349 
0.014328 -0.626936 
0.017368 -0.621699 
0.017515 -0.617912 
0.014601 -0.620066 
0.010202 -0.631886 
0.012395 -0.626538 
0.012260 -0.629623 
0.000170 -0.648447 
-0.000261 -0.648065 
-0.000813 -0.646345 
-0.000533 -0.647429 
0.000515 -0.646703 
-0.000704 -0.646747 
-0.001148 -0.644453 
-0.002118 -0.637529 
-0.001750 -0.640406 
0.001006 -0.637751 
-0.004637 -0.641290 
-0.003627 -0.641591 
-0.005825 -0.639374 
0.000814 -0.643136 
-0.001415 -0.642834 
-0.001105 -0.644814 
-0.002477 -0.631313 
-0.002923 -0.624709 
-0.001591 -0.641143 
-0.002034 -0.636776 
-0.006108 -0.635155 
-0.004069 -0.636170 
-0.004786 -0.639489 
-0.002140 -0.645046 
-0.003464 -0.642773 
-0.002302 -0.643826 
-0.007248 -0.599209 
-0.006340 -0.605306 
-0.001057 -0.599041 
-0.014917 -0.613780 
-0.010979 -0.610252 
-0.016390 -0.608448 
0.000073 -0.611011 
-0.005509 -0.611097 
-0.004761 -0.616534 
-0.023340 -0.612369 
-0.022368 -0.615170 
-0.026256 -0.608965 
-0.014658 -0.624321 
-0.018507 -0.620276 
-0.016409 -0.623821 
-0.022774 -0.611897 
-0.020627 -0.616301 
-0.018137 -0.615817 
0.001013 -0.630557 
-0.002987 -0.630433 
-0.002528 -0.634204 
-0.004095 -0.621584 
-0.003507 -0.626223 
0.000738 -0.621602 
-0.009513 -0.631006 
-0.006919 -0.629368 
-0.010802 -0.627341 
-0.013498 -0.618718 
-0.012128 -0.623242 
-0.008828 -0.620630 
-0.006175 -0.542264 
-0.006653 -0.524634 
-0.005222 -0.572838 
-0.005697 -0.558311 
-0.017072 -0.557175 
-0.011390 -0.557885 
-0.015646 -0.571618 
-0.003373 -0.616916 
-0.003827 -0.607887 
-0.011469 -0.606456 
-0.007651 -0.607352 
-0.010110 -0.615429 
-0.004286 -0.597568 
-0.004751 -0.585904 
-0.026639 -0.599135 
-0.022864 -0.601544 
-0.023515 -0.607844 
-0.018960 -0.583462 
-0.021356 -0.593429 
-0.023666 -0.581973 
-0.016827 -0.612423 
-0.019077 -0.603561 
-0.015278 -0.605195 
-0.009498 -0.585419 
-0.012843 -0.596201 
-0.014236 -0.584607 
-0.005203 -0.636366 
-0.011295 -0.631102 
-0.008258 -0.634233 
-0.007030 -0.637023 
-0.008014 -0.636152 
-0.020427 -0.615349 
-0.014601 -0.620066 
-0.017515 -0.617912 
-0.017368 -0.621699 
-0.014328 -0.626936 
-0.005846 -0.624133 
-0.008152 -0.633729 
-0.007434 -0.629730 
-0.008766 -0.623170 
-0.011685 -0.621816 
-0.012260 -0.629623 
-0.012395 -0.626538 
-0.010202 -0.631886 
-0.008234 -0.592861 
-0.013400 -0.598446 
-0.025659 -0.593950 
-0.019529 -0.596703 
-0.021217 -0.590353 
-0.017924 -0.602746 
-0.021781 -0.605651 
-0.050661 -0.572250 
-0.044306 -0.579334 
-0.047555 -0.572836 
-0.038099 -0.590989 
-0.041163 -0.585385 
-0.043649 -0.583901 
-0.034267 -0.583759 
-0.038028 -0.585294 
-0.031818 -0.590157 
-0.029182 -0.605130 
-0.030184 -0.601619 
-0.024955 -0.607071 
-0.027430 -0.606923 
-0.036869 -0.593665 
-0.032123 -0.600859 
-0.035091 -0.596146 
-0.029463 -0.596187 
-0.032614 -0.596954 
-0.027181 -0.601830 
-0.103797 -0.472278 
-0.097081 -0.489162 
-0.103544 -0.482476 
-0.084400 -0.500096 
-0.090715 -0.495009 
-0.090346 -0.482863 
-0.089293 -0.512354 
-0.090340 -0.504767 
-0.083598 -0.519098 
-0.059091 -0.514378 
-0.065461 -0.511582 
-0.063333 -0.496207 
-0.067024 -0.535198 
-0.066668 -0.524546 
-0.061564 -0.539363 
-0.076913 -0.490616 
-0.071794 -0.508312 
-0.078101 -0.504506 
-0.061169 -0.557399 
-0.063621 -0.554606 
-0.057100 -0.564015 
-0.076884 -0.532169 
-0.070219 -0.543998 
-0.075109 -0.537286 
-0.060751 -0.555571 
-0.065445 -0.550080 
-0.066596 -0.543662 
-0.078441 -0.515954 
-0.072499 -0.530466 
-0.078013 -0.525118 
-0.013312 -0.524266 
-0.007147 -0.505348 
-0.022735 -0.556172 
-0.018510 -0.541215 
-0.021403 -0.504502 
-0.019955 -0.523676 
-0.026574 -0.522850 
-0.030403 -0.596321 
-0.029805 -0.589175 
-0.036268 -0.565294 
-0.033015 -0.577912 
-0.037657 -0.575306 
-0.028352 -0.580129 
-0.026007 -0.569138 
-0.049546 -0.500152 
-0.046216 -0.518750 
-0.052677 -0.516752 
-0.033161 -0.521770 
-0.039710 -0.520412 
-0.035555 -0.502830 
-0.045103 -0.548924 
-0.042881 -0.535769 
-0.039560 -0.551265 
-0.028374 -0.554865 
-0.033983 -0.553236 
-0.030762 -0.539095 
-0.053145 -0.570095 
-0.056108 -0.560505 
-0.054974 -0.566226 
-0.049273 -0.575658 
-0.045457 -0.580722 
-0.054843 -0.531020 
-0.046422 -0.559924 
-0.050614 -0.546185 
-0.056098 -0.543011 
-0.056501 -0.552805 
-0.034160 -0.593087 
-0.041676 -0.585304 
-0.037915 -0.589420 
-0.038191 -0.583326 
-0.042279 -0.572288 
-0.051494 -0.564915 
-0.046888 -0.568833 
-0.046551 -0.575734 
-0.117604 -0.447697 
-0.110445 -0.454115 
-0.123225 -0.413885 
-0.116938 -0.434654 
-0.131010 -0.408026 
-0.103337 -0.459588 
-0.096244 -0.464224 
-0.144263 -0.317755 
-0.139901 -0.343741 
-0.153029 -0.314396 
-0.112962 -0.399572 
-0.126434 -0.372183 
-0.117933 -0.375006 
-0.143150 -0.363503 
-0.134828 -0.368426 
-0.129223 -0.391808 
-0.074791 -0.474163 
-0.067533 -0.476452 
-0.089135 -0.468133 
-0.081989 -0.471416 
-0.091780 -0.428313 
-0.086966 -0.450663 
-0.099741 -0.425770 
-0.115442 -0.418695 
-0.107623 -0.422608 
-0.102023 -0.444148 
-0.076555 -0.047287 
-0.112208 -0.091161 
-0.097508 -0.064029 
-0.119879 -0.155240 
-0.119186 -0.122164 
-0.107151 -0.116149 
-0.144608 -0.141995 
-0.131956 -0.130777 
-0.142739 -0.166718 
-0.089450 -0.289804 
-0.099897 -0.256892 
-0.089670 -0.255908 
-0.120320 -0.259257 
-0.110131 -0.258024 
-0.109391 -0.290943 
-0.105329 -0.186676 
-0.109020 -0.223241 
-0.116030 -0.189192 
-0.159011 -0.261056 
-0.149816 -0.261826 
-0.147677 -0.290460 
-0.148216 -0.200181 
-0.150222 -0.231782 
-0.158181 -0.203780 
-0.128941 -0.291675 
-0.140253 -0.261453 
-0.130390 -0.260474 
-0.126863 -0.192358 
-0.129963 -0.227407 
-0.137674 -0.196124 
-0.015236 -0.484072 
-0.007629 -0.484346 
-0.030386 -0.483027 
-0.022824 -0.483638 
-0.025512 -0.436634 
-0.024201 -0.461030 
-0.033975 -0.436270 
-0.060214 -0.478352 
-0.052834 -0.479916 
-0.059127 -0.434321 
-0.056045 -0.457990 
-0.067403 -0.433285 
-0.045399 -0.481193 
-0.037913 -0.482220 
-0.068502 -0.321540 
-0.066833 -0.352481 
-0.078277 -0.321731 
-0.044448 -0.409865 
-0.055468 -0.381901 
-0.046275 -0.382122 
-0.073723 -0.381164 
-0.064621 -0.381592 
-0.062015 -0.408866 
-0.040209 -0.459885 
-0.050791 -0.435139 
-0.042404 -0.435779 
-0.135307 -0.319878 
-0.116812 -0.321747 
-0.126151 -0.321114 
-0.122394 -0.348870 
-0.109312 -0.377099 
-0.088021 -0.321902 
-0.082758 -0.380573 
-0.085710 -0.352158 
-0.097712 -0.322012 
-0.107320 -0.321995 
-0.071645 -0.455062 
-0.096350 -0.404321 
-0.083736 -0.430353 
-0.075608 -0.431984 
-0.079346 -0.407169 
-0.104289 -0.351211 
-0.091712 -0.379758 
-0.100568 -0.378637 
0.000000 0.000000 
-0.062661 -0.039723 
-0.045150 -0.033963 
-0.052556 -0.035773 
0.000000 0.000000 
-0.085926 -0.075738 
-0.096045 -0.112117 
-0.025943 -0.032477 
-0.029921 -0.032534 
0.000000 0.000000 
-0.067406 -0.106620 
-0.051826 -0.068636 
-0.058974 -0.105875 
0.000000 0.000000 
-0.034298 -0.032705 
-0.039264 -0.033105 
-0.088243 -0.220324 
-0.079484 -0.255081 
-0.098046 -0.148572 
-0.094840 -0.184740 
-0.074573 -0.182172 
-0.084588 -0.183274 
-0.077954 -0.145157 
-0.066892 -0.070416 
-0.076311 -0.107748 
-0.085810 -0.109472 
-0.000000 -0.032486 
-0.002985 -0.032598 
0.000000 0.000000 
-0.006995 -0.104348 
-0.005286 -0.067681 
-0.000000 -0.104226 
0.000000 0.000000 
-0.006007 -0.032615 
-0.009076 -0.032602 
-0.009810 -0.252491 
-0.009554 -0.216363 
-0.000000 -0.252423 
-0.024768 -0.142068 
-0.018112 -0.179455 
-0.027230 -0.179649 
-0.000000 -0.179222 
-0.009045 -0.179315 
-0.008218 -0.141790 
0.000000 0.000000 
-0.018760 -0.032504 
-0.022248 -0.032477 
-0.012208 -0.032575 
-0.015426 -0.032539 
0.000000 0.000000 
-0.035640 -0.104816 
-0.027071 -0.067840 
-0.028305 -0.104657 
-0.014020 -0.104445 
-0.021111 -0.104540 
-0.015987 -0.067772 
-0.008083 -0.461583 
-0.000000 -0.484457 
-0.026727 -0.410423 
-0.017023 -0.436886 
-0.000000 -0.437080 
-0.008517 -0.437033 
-0.008919 -0.410670 
-0.069429 -0.288814 
-0.058712 -0.321353 
-0.039126 -0.321036 
-0.048918 -0.321183 
-0.049478 -0.288093 
-0.047802 -0.352551 
-0.037052 -0.382279 
-0.000000 -0.320723 
-0.009778 -0.320757 
-0.009870 -0.287368 
-0.009277 -0.382485 
-0.009570 -0.352496 
-0.000000 -0.382489 
-0.029634 -0.287623 
-0.019556 -0.320822 
-0.029338 -0.320915 
-0.027808 -0.382385 
-0.028701 -0.352533 
-0.018547 -0.382452 
-0.038853 -0.068035 
-0.041700 -0.142543 
-0.043161 -0.105044 
-0.050918 -0.105379 
-0.059311 -0.143433 
-0.019632 -0.252619 
-0.039364 -0.253073 
-0.029478 -0.252811 
-0.028733 -0.216711 
-0.036427 -0.179909 
-0.069356 -0.254402 
-0.064776 -0.181345 
-0.067948 -0.218482 
-0.059295 -0.253853 
-0.049299 -0.253416 
-0.045731 -0.180258 
-0.048147 -0.217365 
-0.055171 -0.180724 
0.000000 0.000000 
0.002985 -0.032598 
0.009076 -0.032602 
0.006007 -0.032615 
0.000000 0.000000 
0.005286 -0.067681 
0.006995 -0.104348 
0.022248 -0.032477 
0.018760 -0.032504 
0.000000 0.000000 
0.028305 -0.104657 
0.027071 -0.067840 
0.035640 -0.104816 
0.000000 0.000000 
0.015426 -0.032539 
0.012208 -0.032575 
0.009554 -0.216363 
0.009810 -0.252491 
0.008218 -0.141790 
0.009045 -0.179315 
0.027230 -0.179649 
0.018112 -0.179455 
0.024768 -0.142068 
0.015987 -0.067772 
0.021111 -0.104540 
0.014020 -0.104445 
0.076555 -0.047287 
0.062661 -0.039723 
0.000000 0.000000 
0.096045 -0.112117 
0.085926 -0.075738 
0.107151 -0.116149 
0.000000 0.000000 
0.052556 -0.035773 
0.045150 -0.033963 
0.079484 -0.255081 
0.088243 -0.220324 
0.089670 -0.255908 
0.077954 -0.145157 
0.084588 -0.183274 
0.074573 -0.182172 
0.105329 -0.186676 
0.094840 -0.184740 
0.098046 -0.148572 
0.000000 0.000000 
0.029921 -0.032534 
0.025943 -0.032477 
0.039264 -0.033105 
0.034298 -0.032705 
0.000000 0.000000 
0.058974 -0.105875 
0.051826 -0.068636 
0.067406 -0.106620 
0.085810 -0.109472 
0.076311 -0.107748 
0.066892 -0.070416 
0.008083 -0.461583 
0.007629 -0.484346 
0.008919 -0.410670 
0.008517 -0.437033 
0.025512 -0.436634 
0.017023 -0.436886 
0.026727 -0.410423 
0.009870 -0.287368 
0.009778 -0.320757 
0.029338 -0.320915 
0.019556 -0.320822 
0.029634 -0.287623 
0.009570 -0.352496 
0.009277 -0.382485 
0.068502 -0.321540 
0.058712 -0.321353 
0.069429 -0.288814 
0.037052 -0.382279 
0.047802 -0.352551 
0.046275 -0.382122 
0.049478 -0.288093 
0.048918 -0.321183 
0.039126 -0.321036 
0.018547 -0.382452 
0.028701 -0.352533 
0.027808 -0.382385 
0.038853 -0.068035 
0.059311 -0.143433 
0.050918 -0.105379 
0.043161 -0.105044 
0.041700 -0.142543 
0.069356 -0.254402 
0.049299 -0.253416 
0.059295 -0.253853 
0.067948 -0.218482 
0.064776 -0.181345 
0.019632 -0.252619 
0.036427 -0.179909 
0.028733 -0.216711 
0.029478 -0.252811 
0.039364 -0.253073 
0.055171 -0.180724 
0.048147 -0.217365 
0.045731 -0.180258 
0.097508 -0.064029 
0.112208 -0.091161 
0.142739 -0.166718 
0.131956 -0.130777 
0.144608 -0.141995 
0.119186 -0.122164 
0.119879 -0.155240 
0.147677 -0.290460 
0.149816 -0.261826 
0.159011 -0.261056 
0.130390 -0.260474 
0.140253 -0.261453 
0.128941 -0.291675 
0.158181 -0.203780 
0.150222 -0.231782 
0.148216 -0.200181 
0.099897 -0.256892 
0.089450 -0.289804 
0.116030 -0.189192 
0.109020 -0.223241 
0.109391 -0.290943 
0.110131 -0.258024 
0.120320 -0.259257 
0.137674 -0.196124 
0.129963 -0.227407 
0.126863 -0.192358 
0.103797 -0.472278 
0.110445 -0.454115 
0.117604 -0.447697 
0.096244 -0.464224 
0.103337 -0.459588 
0.090346 -0.482863 
0.131010 -0.408026 
0.116938 -0.434654 
0.123225 -0.413885 
0.067533 -0.476452 
0.074791 -0.474163 
0.063333 -0.496207 
0.099741 -0.425770 
0.086966 -0.450663 
0.091780 -0.428313 
0.076913 -0.490616 
0.081989 -0.471416 
0.089135 -0.468133 
0.153029 -0.314396 
0.139901 -0.343741 
0.144263 -0.317755 
0.129223 -0.391808 
0.134828 -0.368426 
0.143150 -0.363503 
0.117933 -0.375006 
0.126434 -0.372183 
0.112962 -0.399572 
0.102023 -0.444148 
0.107623 -0.422608 
0.115442 -0.418695 
0.015236 -0.484072 
0.007147 -0.505348 
0.033975 -0.436270 
0.024201 -0.461030 
0.021403 -0.504502 
0.022824 -0.483638 
0.030386 -0.483027 
0.078277 -0.321731 
0.066833 -0.352481 
0.062015 -0.408866 
0.064621 -0.381592 
0.073723 -0.381164 
0.055468 -0.381901 
0.044448 -0.409865 
0.049546 -0.500152 
0.052834 -0.479916 
0.060214 -0.478352 
0.037913 -0.482220 