# vtk DataFile Version 2.0
Unstructured Grid Example
ASCII
DATASET UNSTRUCTURED_GRID

POINTS 25 float
0.029542 -0.585179 0.000000 
0.970458 -0.585179 0.000000 
1.000000 1.000000 0.000000 
0.000000 1.000000 0.000000 
0.500000 -0.585410 0.000000 
0.897051 0.074119 0.000000 
0.500000 1.000000 0.000000 
0.102949 0.074119 0.000000 
0.500000 0.033907 0.000000 
0.265091 -0.592802 0.000000 
0.500000 -0.310155 0.000000 
0.275952 -0.309641 0.000000 
0.734909 -0.592802 0.000000 
0.724048 -0.309641 0.000000 
0.943167 -0.289260 0.000000 
0.695113 0.047487 0.000000 
0.859617 0.475889 0.000000 
0.683776 0.502331 0.000000 
0.750000 1.000000 0.000000 
0.500000 0.517806 0.000000 
0.250000 1.000000 0.000000 
0.316224 0.502331 0.000000 
0.140383 0.475889 0.000000 
0.304887 0.047487 0.000000 
0.056833 -0.289260 0.000000 

CELLS 32 128
3  0 9 11 
3  4 10 9 
3  8 11 10 
3  9 10 11 
3  4 12 10 
3  1 13 12 
3  8 10 13 
3  12 13 10 
3  1 14 13 
3  5 15 14 
3  8 13 15 
3  14 15 13 
3  5 16 15 
3  2 17 16 
3  8 15 17 
3  16 17 15 
3  2 18 17 
3  6 19 18 
3  8 17 19 
3  18 19 17 
3  6 20 19 
3  3 21 20 
3  8 19 21 
3  20 21 19 
3  3 22 21 
3  7 23 22 
3  8 21 23 
3  22 23 21 
3  7 24 23 
3  0 11 24 
3  8 23 11 
3  24 11 23 

CELL_TYPES 32
5
5
5
5
5
5
5
5
5
5
5
5
5
5
5
5
5
5
5
5
5
5
5
5
5
5
5
5
5
5
5
5

POINT_DATA 25

SCALARS u_h float 2
LOOKUP_TABLE default
0.029542 -0.585179 
-0.029542 -0.585179 
0.000000 0.000000 
0.000000 0.000000 
0.000000 -0.585410 
-0.102949 -0.425881 
0.000000 0.000000 
0.102949 -0.425881 
-0.000000 -0.466093 
0.015091 -0.592802 
0.000000 -0.560155 
0.025952 -0.559641 
-0.015091 -0.592802 
-0.025952 -0.559641 
-0.056833 -0.539260 
-0.054887 -0.452513 
-0.140383 -0.274111 
-0.066224 -0.247669 
0.000000 0.000000 
-0.000000 -0.232194 
0.000000 0.000000 
0.066224 -0.247669 
0.140383 -0.274111 
0.054887 -0.452513 
0.056833 -0.539260 

CELL_DATA 32

SCALARS epsilon float 4
LOOKUP_TABLE default
-0.057408 0.125599 0.000000 0.009321
-0.062178 0.096370 0.000000 0.013372
-0.109124 0.310759 0.000000 -0.000737
-0.108122 0.124058 0.000000 0.023010
-0.062178 0.096370 0.000000 -0.013372
-0.057408 0.125599 0.000000 -0.009321
-0.109124 0.310759 0.000000 0.000737
-0.108122 0.124058 0.000000 -0.023010
-0.117175 0.178573 0.000000 -0.026788
-0.182007 0.379594 0.000000 -0.067339
-0.231222 0.351246 0.000000 -0.049716
-0.119423 0.353870 0.000000 -0.031841
-0.191628 0.462823 0.000000 -0.047430
-0.232458 0.690441 0.000000 0.260308
-0.239634 0.553882 0.000000 -0.009370
-0.335252 0.552216 0.000000 -0.049523
0.008854 0.621490 0.000000 0.099645
0.000000 0.597474 0.000000 0.000000
-0.295424 0.601130 0.000000 -0.013914
-0.269645 0.630718 0.000000 0.120854
0.000000 0.597474 0.000000 0.000000
0.008854 0.621490 0.000000 -0.099645
-0.295424 0.601130 0.000000 0.013914
-0.269645 0.630718 0.000000 -0.120854
-0.232458 0.690441 0.000000 -0.260308
-0.191628 0.462823 0.000000 0.047430
-0.239634 0.553882 0.000000 0.009370
-0.335252 0.552216 0.000000 0.049523
-0.182007 0.379594 0.000000 0.067339
-0.117175 0.178573 0.000000 0.026788
-0.231222 0.351246 0.000000 0.049716
-0.119423 0.353870 0.000000 0.031841

SCALARS sigma float 4
LOOKUP_TABLE default
-0.436853 2.322983 0.535969 0.062138
-0.856215 1.641643 0.218503 0.234356
-0.510682 5.053084 1.338109 -0.013675
-2.156568 1.714792 -0.119495 0.343763
-0.856215 1.641643 0.218503 -0.234356
-0.436853 2.322983 0.535969 -0.062138
-0.510682 5.053084 1.338109 0.013675
-2.156568 1.714792 -0.119495 -0.343763
-2.032450 2.687634 0.181145 -0.182949
-3.292767 5.111778 0.503400 -0.401898
-5.933955 4.074925 -0.473505 -0.543741
-0.591948 5.580126 1.478984 -0.011788
-2.952104 6.129865 0.893158 -0.102164
-7.405844 7.463798 0.014668 2.426611
-4.776190 6.591847 0.486148 0.078365
-12.437245 5.097697 -1.582044 -1.101127
6.214904 10.955332 6.214904 0.176377
5.974745 10.646603 5.974745 0.000000
-8.353853 6.299484 -0.498582 -0.356749
-7.186530 6.858043 -0.082787 1.152123
5.974745 10.646603 5.974745 0.000000
6.214904 10.955332 6.214904 -0.176377
-8.353853 6.299484 -0.498582 0.356749
-7.186530 6.858043 -0.082787 -1.152123
-7.405844 7.463798 0.014668 -2.426611
-2.952104 6.129865 0.893158 0.102164
-4.776190 6.591847 0.486148 -0.078365
-12.437245 5.097697 -1.582044 1.101127
-3.292767 5.111778 0.503400 0.401898
-2.032450 2.687634 0.181145 0.182949
-5.933955 4.074925 -0.473505 0.543741
-0.591948 5.580126 1.478984 0.011788

