# vtk DataFile Version 2.0
Unstructured Grid Example
ASCII
DATASET UNSTRUCTURED_GRID

POINTS 81 float
0.013178 -0.590731 0.000000 
0.986822 -0.590731 0.000000 
1.000000 1.000000 0.000000 
0.000000 1.000000 0.000000 
0.500000 -0.623069 0.000000 
0.891303 0.053081 0.000000 
0.500000 1.000000 0.000000 
0.108697 0.053081 0.000000 
0.500000 0.006984 0.000000 
0.255457 -0.617686 0.000000 
0.500000 -0.345745 0.000000 
0.276124 -0.336763 0.000000 
0.744543 -0.617686 0.000000 
0.723876 -0.336763 0.000000 
0.945381 -0.303738 0.000000 
0.693825 0.019795 0.000000 
0.848996 0.468698 0.000000 
0.674377 0.477875 0.000000 
0.750000 1.000000 0.000000 
0.500000 0.486012 0.000000 
0.250000 1.000000 0.000000 
0.325623 0.477875 0.000000 
0.151004 0.468698 0.000000 
0.306175 0.019795 0.000000 
0.054619 -0.303738 0.000000 
0.134059 -0.605279 0.000000 
0.264774 -0.484961 0.000000 
0.147467 -0.472452 0.000000 
0.500000 -0.492625 0.000000 
0.382166 -0.491841 0.000000 
0.377539 -0.624361 0.000000 
0.394505 -0.176822 0.000000 
0.387811 -0.343805 0.000000 
0.500000 -0.180081 0.000000 
0.622461 -0.624361 0.000000 
0.617834 -0.491841 0.000000 
0.852533 -0.472452 0.000000 
0.735226 -0.484961 0.000000 
0.865941 -0.605279 0.000000 
0.612189 -0.343805 0.000000 
0.605495 -0.176822 0.000000 
0.969198 -0.455303 0.000000 
0.835256 -0.323864 0.000000 
0.792319 0.030535 0.000000 
0.814663 -0.156772 0.000000 
0.918275 -0.134675 0.000000 
0.710027 -0.169584 0.000000 
0.596395 0.014051 0.000000 
0.865434 0.250627 0.000000 
0.771071 0.238218 0.000000 
0.780402 0.739537 0.000000 
0.759825 0.471877 0.000000 
0.854840 0.708914 0.000000 
0.679236 0.234277 0.000000 
0.588913 0.233354 0.000000 
0.875000 1.000000 0.000000 
0.689904 0.743813 0.000000 
0.500000 0.752555 0.000000 
0.595393 0.745236 0.000000 
0.625000 1.000000 0.000000 
0.587342 0.480671 0.000000 
0.500000 0.234199 0.000000 
0.375000 1.000000 0.000000 
0.404607 0.745236 0.000000 
0.219598 0.739537 0.000000 
0.310096 0.743813 0.000000 
0.125000 1.000000 0.000000 
0.412658 0.480671 0.000000 
0.411087 0.233354 0.000000 
0.145160 0.708914 0.000000 
0.240175 0.471877 0.000000 
0.207681 0.030535 0.000000 
0.228929 0.238218 0.000000 
0.134566 0.250627 0.000000 
0.320764 0.234277 0.000000 
0.403605 0.014051 0.000000 
0.081725 -0.134675 0.000000 
0.185337 -0.156772 0.000000 
0.164744 -0.323864 0.000000 
0.030802 -0.455303 0.000000 
0.289973 -0.169584 0.000000 

CELLS 128 512
3  0 25 27 
3  9 26 25 
3  11 27 26 
3  25 26 27 
3  4 28 30 
3  10 29 28 
3  9 30 29 
3  28 29 30 
3  8 31 33 
3  11 32 31 
3  10 33 32 
3  31 32 33 
3  9 29 26 
3  10 32 29 
3  11 26 32 
3  29 32 26 
3  4 34 28 
3  12 35 34 
3  10 28 35 
3  34 35 28 
3  1 36 38 
3  13 37 36 
3  12 38 37 
3  36 37 38 
3  8 33 40 
3  10 39 33 
3  13 40 39 
3  33 39 40 
3  12 37 35 
3  13 39 37 
3  10 35 39 
3  37 39 35 
3  1 41 36 
3  14 42 41 
3  13 36 42 
3  41 42 36 
3  5 43 45 
3  15 44 43 
3  14 45 44 
3  43 44 45 
3  8 40 47 
3  13 46 40 
3  15 47 46 
3  40 46 47 
3  14 44 42 
3  15 46 44 
3  13 42 46 
3  44 46 42 
3  5 48 43 
3  16 49 48 
3  15 43 49 
3  48 49 43 
3  2 50 52 
3  17 51 50 
3  16 52 51 
3  50 51 52 
3  8 47 54 
3  15 53 47 
3  17 54 53 
3  47 53 54 
3  16 51 49 
3  17 53 51 
3  15 49 53 
3  51 53 49 
3  2 55 50 
3  18 56 55 
3  17 50 56 
3  55 56 50 
3  6 57 59 
3  19 58 57 
3  18 59 58 
3  57 58 59 
3  8 54 61 
3  17 60 54 
3  19 61 60 
3  54 60 61 
3  18 58 56 
3  19 60 58 
3  17 56 60 
3  58 60 56 
3  6 62 57 
3  20 63 62 
3  19 57 63 
3  62 63 57 
3  3 64 66 
3  21 65 64 
3  20 66 65 
3  64 65 66 
3  8 61 68 
3  19 67 61 
3  21 68 67 
3  61 67 68 
3  20 65 63 
3  21 67 65 
3  19 63 67 
3  65 67 63 
3  3 69 64 
3  22 70 69 
3  21 64 70 
3  69 70 64 
3  7 71 73 
3  23 72 71 
3  22 73 72 
3  71 72 73 
3  8 68 75 
3  21 74 68 
3  23 75 74 
3  68 74 75 
3  22 72 70 
3  23 74 72 
3  21 70 74 
3  72 74 70 
3  7 76 71 
3  24 77 76 
3  23 71 77 
3  76 77 71 
3  0 27 79 
3  11 78 27 
3  24 79 78 
3  27 78 79 
3  8 75 31 
3  23 80 75 
3  11 31 80 
3  75 80 31 
3  24 78 77 
3  11 80 78 
3  23 77 80 
3  78 80 77 

CELL_TYPES 128
5
5
5
5
5
5
5
5
5
5
5
5
5
5
5
5
5
5
5
5
5
5
5
5
5
5
5
5
5
5
5
5
5
5
5
5
5
5
5
5
5
5
5
5
5
5
5
5
5
5
5
5
5
5
5
5
5
5
5
5
5
5
5
5
5
5
5
5
5
5
5
5
5
5
5
5
5
5
5
5
5
5
5
5
5
5
5
5
5
5
5
5
5
5
5
5
5
5
5
5
5
5
5
5
5
5
5
5
5
5
5
5
5
5
5
5
5
5
5
5
5
5
5
5
5
5
5
5

POINT_DATA 81

SCALARS u_h float 2
LOOKUP_TABLE default
0.013178 -0.590731 
-0.013178 -0.590731 
0.000000 0.000000 
0.000000 0.000000 
-0.000000 -0.623069 
-0.108697 -0.446919 
0.000000 0.000000 
0.108697 -0.446919 
-0.000000 -0.493016 
0.005457 -0.617686 
-0.000000 -0.595745 
0.026124 -0.586763 
-0.005457 -0.617686 
-0.026124 -0.586763 
-0.054619 -0.553738 
-0.056175 -0.480205 
-0.151004 -0.281302 
-0.075623 -0.272125 
0.000000 0.000000 
-0.000000 -0.263988 
0.000000 0.000000 
0.075623 -0.272125 
0.151004 -0.281302 
0.056175 -0.480205 
0.054619 -0.553738 
0.009059 -0.605279 
0.014774 -0.609961 
0.022467 -0.597452 
-0.000000 -0.617625 
0.007166 -0.616841 
0.002539 -0.624361 
0.019505 -0.551822 
0.012811 -0.593805 
-0.000000 -0.555081 
-0.002539 -0.624361 
-0.007166 -0.616841 
-0.022467 -0.597452 
-0.014774 -0.609961 
-0.009059 -0.605279 
-0.012811 -0.593805 
-0.019505 -0.551822 
-0.030802 -0.580303 
-0.039744 -0.573864 
-0.082681 -0.469465 
-0.060337 -0.531772 
-0.081725 -0.509675 
-0.039973 -0.544584 
-0.028605 -0.485949 
-0.134566 -0.374373 
-0.103929 -0.386782 
-0.094598 -0.135463 
-0.115175 -0.278123 
-0.145160 -0.166086 
-0.070764 -0.390723 
-0.036087 -0.391646 
0.000000 0.000000 
-0.060096 -0.131187 
-0.000000 -0.122445 
-0.029607 -0.129764 
0.000000 0.000000 
-0.037658 -0.269329 
-0.000000 -0.390801 
0.000000 0.000000 
0.029607 -0.129764 
0.094598 -0.135463 
0.060096 -0.131187 
0.000000 0.000000 
0.037658 -0.269329 
0.036087 -0.391646 
0.145160 -0.166086 
0.115175 -0.278123 
0.082681 -0.469465 
0.103929 -0.386782 
0.134566 -0.374373 
0.070764 -0.390723 
0.028605 -0.485949 
0.081725 -0.509675 
0.060337 -0.531772 
0.039744 -0.573864 
0.030802 -0.580303 
0.039973 -0.544584 

CELL_DATA 128

SCALARS epsilon float 4
LOOKUP_TABLE default
-0.016113 0.078953 0.000000 0.000450
-0.019508 0.071584 0.000000 -0.008506
-0.052055 0.180693 0.000000 0.005021
-0.047103 0.076259 0.000000 0.009930
-0.020514 0.042656 0.000000 0.004949
-0.058961 0.160074 0.000000 -0.002658
-0.021079 0.061576 0.000000 -0.006286
-0.058044 0.058602 0.000000 0.016624
-0.167802 0.387036 0.000000 -0.008413
-0.108608 0.286499 0.000000 0.007246
-0.107670 0.275673 0.000000 -0.005780
-0.165480 0.284453 0.000000 0.020279
-0.055850 0.065498 0.000000 0.013704
-0.106118 0.168470 0.000000 0.018077
-0.103708 0.174884 0.000000 0.026053
-0.059665 0.171117 0.000000 0.000301
-0.020514 0.042656 0.000000 -0.004949
-0.021079 0.061576 0.000000 0.006286
-0.058961 0.160074 0.000000 0.002658
-0.058044 0.058602 0.000000 -0.016624
-0.016113 0.078953 0.000000 -0.000450
-0.052055 0.180693 0.000000 -0.005021
-0.019508 0.071584 0.000000 0.008506
-0.047103 0.076259 0.000000 -0.009930
-0.167802 0.387036 0.000000 0.008413
-0.107670 0.275673 0.000000 0.005780
-0.108608 0.286499 0.000000 -0.007246
-0.165480 0.284453 0.000000 -0.020279
-0.055850 0.065498 0.000000 -0.013704
-0.103708 0.174884 0.000000 -0.026053
-0.106118 0.168470 0.000000 -0.018077
-0.059665 0.171117 0.000000 -0.000301
-0.040653 0.107633 0.000000 -0.011713
-0.083015 0.228687 0.000000 -0.038203
-0.093313 0.188985 0.000000 -0.032409
-0.044508 0.195220 0.000000 -0.014288
-0.182572 0.429248 0.000000 -0.061986
-0.209685 0.402012 0.000000 -0.073380
-0.135175 0.337336 0.000000 -0.056634
-0.151067 0.419809 0.000000 -0.037524
-0.247638 0.408882 0.000000 -0.024574
-0.166272 0.290801 0.000000 -0.041004
-0.232333 0.402924 0.000000 -0.059346
-0.171844 0.408589 0.000000 -0.020015
-0.094658 0.313338 0.000000 -0.027274
-0.160518 0.410121 0.000000 -0.035410
-0.101144 0.296727 0.000000 -0.019885
-0.150704 0.301690 0.000000 -0.054461
-0.187775 0.469684 0.000000 -0.057102
-0.258208 0.528697 0.000000 -0.045126
-0.214317 0.488783 0.000000 -0.066020
-0.250988 0.491623 0.000000 -0.066963
-0.074597 0.861577 0.000000 0.526599
-0.345247 0.679407 0.000000 0.076994
-0.319769 0.595499 0.000000 0.019661
-0.422890 0.714421 0.000000 0.062152
-0.249468 0.525371 0.000000 -0.016861
-0.235470 0.508117 0.000000 -0.049333
-0.309664 0.605544 0.000000 -0.018902
-0.308808 0.522769 0.000000 -0.031957
-0.320231 0.571995 0.000000 -0.055165
-0.356424 0.604956 0.000000 -0.031363
-0.289130 0.506945 0.000000 -0.057476
-0.291996 0.575037 0.000000 -0.040575
0.065954 0.655330 0.000000 0.276041
0.027513 0.643185 0.000000 0.177349
-0.302983 0.672623 0.000000 0.054681
-0.172264 0.667920 0.000000 0.369688
0.000000 0.617268 0.000000 0.000000
-0.262208 0.672679 0.000000 -0.012408
0.006753 0.639069 0.000000 0.087705
-0.242763 0.646320 0.000000 0.101155
-0.323508 0.551062 0.000000 -0.001553
-0.341186 0.616858 0.000000 -0.011394
-0.338210 0.630866 0.000000 -0.008633
-0.323519 0.616846 0.000000 -0.008100
-0.219602 0.645809 0.000000 0.231503
-0.335749 0.668423 0.000000 0.024980
-0.336040 0.671858 0.000000 0.059794
-0.269335 0.667022 0.000000 0.028319
0.000000 0.617268 0.000000 0.000000
0.006753 0.639069 0.000000 -0.087705
-0.262208 0.672679 0.000000 0.012408
-0.242763 0.646320 0.000000 -0.101155
0.065954 0.655330 0.000000 -0.276041
-0.302983 0.672623 0.000000 -0.054681
0.027513 0.643185 0.000000 -0.177349
-0.172264 0.667920 0.000000 -0.369688
-0.323508 0.551062 0.000000 0.001553
-0.338210 0.630866 0.000000 0.008633
-0.341186 0.616858 0.000000 0.011394
-0.323519 0.616846 0.000000 0.008100
-0.219602 0.645809 0.000000 -0.231503
-0.336040 0.671858 0.000000 -0.059794
-0.335749 0.668423 0.000000 -0.024980
-0.269335 0.667022 0.000000 -0.028319
-0.074597 0.861577 0.000000 -0.526599
-0.319769 0.595499 0.000000 -0.019661
-0.345247 0.679407 0.000000 -0.076994
-0.422890 0.714421 0.000000 -0.062152
-0.187775 0.469684 0.000000 0.057102
-0.214317 0.488783 0.000000 0.066020
-0.258208 0.528697 0.000000 0.045126
-0.250988 0.491623 0.000000 0.066963
-0.249468 0.525371 0.000000 0.016861
-0.309664 0.605544 0.000000 0.018902
-0.235470 0.508117 0.000000 0.049333
-0.308808 0.522769 0.000000 0.031957
-0.320231 0.571995 0.000000 0.055165
-0.289130 0.506945 0.000000 0.057476
-0.356424 0.604956 0.000000 0.031363
-0.291996 0.575037 0.000000 0.040575
-0.182572 0.429248 0.000000 0.061986
-0.135175 0.337336 0.000000 0.056634
-0.209685 0.402012 0.000000 0.073380
-0.151067 0.419809 0.000000 0.037524
-0.040653 0.107633 0.000000 0.011713
-0.093313 0.188985 0.000000 0.032409
-0.083015 0.228687 0.000000 0.038203
-0.044508 0.195220 0.000000 0.014288
-0.247638 0.408882 0.000000 0.024574
-0.232333 0.402924 0.000000 0.059346
-0.166272 0.290801 0.000000 0.041004
-0.171844 0.408589 0.000000 0.020015
-0.094658 0.313338 0.000000 0.027274
-0.101144 0.296727 0.000000 0.019885
-0.160518 0.410121 0.000000 0.035410
-0.150704 0.301690 0.000000 0.054461

SCALARS sigma float 4
LOOKUP_TABLE default
0.341719 1.754706 0.602958 -0.177428
0.183773 1.540895 0.491383 -0.255784
0.251073 3.474648 1.097758 -0.210949
-0.597467 1.375284 0.217740 0.017443
-0.135825 0.866006 0.203426 0.082881
-0.154103 3.000254 0.822228 -0.046409
0.036744 1.303873 0.378223 -0.152972
-1.095564 0.846486 -0.067979 0.256841
-2.281826 5.433252 0.892020 -0.169271
-0.711476 4.667107 1.155541 -0.101907
-0.767748 4.500621 1.085717 -0.107006
-3.041679 3.920032 0.240070 0.179511
-0.966839 1.037950 0.019567 0.156966
-1.681697 2.616732 0.259427 0.209081
-1.569287 2.770097 0.335447 0.215483
-0.072783 3.205249 0.910320 -0.133252
-0.135825 0.866006 0.203426 -0.082881
0.036744 1.303873 0.378223 0.152972
-0.154103 3.000254 0.822228 0.046409
-1.095564 0.846486 -0.067979 -0.256841
0.341719 1.754706 0.602958 0.177428
0.251073 3.474648 1.097758 0.210949
0.183773 1.540895 0.491383 0.255784
-0.597467 1.375284 0.217740 -0.017443
-2.281826 5.433252 0.892020 0.169271
-0.767748 4.500621 1.085717 0.107006
-0.711476 4.667107 1.155541 0.101907
-3.041679 3.920032 0.240070 -0.179511
-0.966839 1.037950 0.019567 -0.156966
-1.569287 2.770097 0.335447 -0.215483
-1.681697 2.616732 0.259427 -0.209081
-0.072783 3.205249 0.910320 0.133252
-0.115183 2.129885 0.579540 0.104671
-0.440452 3.995260 1.047846 0.073833
-1.113574 3.159016 0.583024 -0.139787
0.599289 3.837213 1.329268 0.248966
-2.892985 5.800588 0.822537 0.003095
-4.559419 5.044584 0.129663 -0.601662
-1.526966 5.114638 1.045479 0.033347
-1.373160 6.103655 1.390871 0.292884
-6.344667 4.667340 -0.424722 -0.163133
-3.110162 4.004095 0.244616 -0.342907
-5.678624 4.761126 -0.236782 -0.626551
-2.317051 5.682850 0.955172 -0.006591
-0.024222 5.263764 1.578729 0.306615
-1.847354 5.850369 1.154317 0.013477
-0.374351 4.924331 1.347685 0.143329
-2.438993 4.368388 0.541222 -0.315303
-2.782505 6.264771 0.989984 0.089830
-6.275216 6.017972 -0.066106 -0.210726
-4.064007 6.125057 0.562390 -0.397630
-6.242325 5.653899 -0.151160 -0.493696
-5.737610 9.524835 1.038257 3.326371
-13.194994 6.321929 -1.468216 1.019388
-10.520243 5.885523 -1.058872 0.203370
-26.393673 5.604075 -3.204383 0.854327
-5.605944 6.111758 0.132089 -0.009622
-5.007102 6.080378 0.284863 -0.388527
-9.542942 6.142361 -0.798652 -0.227919
-10.038329 5.220575 -1.109510 -0.450368
-10.926315 5.571389 -1.206641 -0.886509
-14.413979 5.417055 -1.846772 -0.665465
-8.724504 5.294342 -0.819383 -0.706074
-8.369723 6.056428 -0.560693 -0.419976
6.553301 11.381408 6.553301 0.393443
6.431852 11.229662 6.431852 0.274303
-8.746472 6.924915 -0.439261 0.545875
-7.485292 7.174243 -0.077995 3.932065
6.172683 10.901448 6.172683 0.000000
-5.403267 7.573514 0.573986 -0.295070
6.390692 11.177940 6.390692 0.139311
-4.899590 7.478915 0.692876 0.755943
-11.101207 5.343431 -1.289967 -0.042879
-12.516156 5.792978 -1.455150 -0.237802
-12.110326 5.983263 -1.342223 -0.248885
-10.716571 6.059614 -1.059262 -0.132527
-5.885452 7.241262 0.353773 2.284185
-11.692997 6.408362 -1.174194 0.229396
-11.974663 6.402705 -1.228755 0.785071
-5.988609 7.402237 0.367793 0.245800
6.172683 10.901448 6.172683 0.000000
6.390692 11.177940 6.390692 -0.139311
-5.403267 7.573514 0.573986 0.295070
-4.899590 7.478915 0.692876 -0.755943
6.553301 11.381408 6.553301 -0.393443
-8.746472 6.924915 -0.439261 -0.545875
6.431852 11.229662 6.431852 -0.274303
-7.485292 7.174243 -0.077995 -3.932065
-11.101207 5.343431 -1.289967 0.042879
-12.110326 5.983263 -1.342223 0.248885
-12.516156 5.792978 -1.455150 0.237802
-10.716571 6.059614 -1.059262 0.132527
-5.885452 7.241262 0.353773 -2.284185
-11.974663 6.402705 -1.228755 -0.785071
-11.692997 6.408362 -1.174194 -0.229396
-5.988609 7.402237 0.367793 -0.245800
-5.737610 9.524835 1.038257 -3.326371
-10.520243 5.885523 -1.058872 -0.203370
-13.194994 6.321929 -1.468216 -1.019388
-26.393673 5.604075 -3.204383 -0.854327
-2.782505 6.264771 0.989984 -0.089830
-4.064007 6.125057 0.562390 0.397630
-6.275216 6.017972 -0.066106 0.210726
-6.242325 5.653899 -0.151160 0.493696
-5.605944 6.111758 0.132089 0.009622
-9.542942 6.142361 -0.798652 0.227919
-5.007102 6.080378 0.284863 0.388527
-10.038329 5.220575 -1.109510 0.450368
-10.926315 5.571389 -1.206641 0.886509
-8.724504 5.294342 -0.819383 0.706074
-14.413979 5.417055 -1.846772 0.665465
-8.369723 6.056428 -0.560693 0.419976
-2.892985 5.800588 0.822537 -0.003095
-1.526966 5.114638 1.045479 -0.033347
-4.559419 5.044584 0.129663 0.601662
-1.373160 6.103655 1.390871 -0.292884
-0.115183 2.129885 0.579540 -0.104671
-1.113574 3.159016 0.583024 0.139787
-0.440452 3.995260 1.047846 -0.073833
0.599289 3.837213 1.329268 -0.248966
-6.344667 4.667340 -0.424722 0.163133
-5.678624 4.761126 -0.236782 0.626551
-3.110162 4.004095 0.244616 0.342907
-2.317051 5.682850 0.955172 0.006591
-0.024222 5.263764 1.578729 -0.306615
-0.374351 4.924331 1.347685 -0.143329
-1.847354 5.850369 1.154317 -0.013477
-2.438993 4.368388 0.541222 0.315303

