# vtk DataFile Version 2.0
Unstructured Grid Example
ASCII
DATASET UNSTRUCTURED_GRID

POINTS 9 float
0.046806 -0.571692 0.000000 
0.953194 -0.571692 0.000000 
1.000000 1.000000 0.000000 
0.000000 1.000000 0.000000 
0.500000 -0.518686 0.000000 
0.907937 0.105097 0.000000 
0.500000 1.000000 0.000000 
0.092063 0.105097 0.000000 
0.500000 0.089309 0.000000 

CELLS 8 32
3  0 4 8 
3  4 1 8 
3  1 5 8 
3  5 2 8 
3  2 6 8 
3  6 3 8 
3  3 7 8 
3  7 0 8 

CELL_TYPES 8
5
5
5
5
5
5
5
5

POINT_DATA 9

SCALARS u_h float 2
LOOKUP_TABLE default
0.046806 -0.571692 
-0.046806 -0.571692 
0.000000 0.000000 
0.000000 0.000000 
0.000000 -0.518686 
-0.092063 -0.394903 
0.000000 0.000000 
0.092063 -0.394903 
0.000000 -0.410691 

CELL_DATA 8

SCALARS epsilon float 4
LOOKUP_TABLE default
-0.097947 0.198027 0.000000 0.043126
-0.097947 0.198027 0.000000 -0.043126
-0.194418 0.298149 0.000000 -0.040544
-0.195983 0.535663 0.000000 0.099441
0.000000 0.552651 0.000000 -0.000000
0.000000 0.552651 0.000000 -0.000000
-0.195983 0.535663 0.000000 -0.099441
-0.194418 0.298149 0.000000 0.040544

SCALARS sigma float 4
LOOKUP_TABLE default
-1.149354 3.182212 0.575680 0.788723
-1.149354 3.182212 0.575680 -0.788723
-4.345249 3.758834 -0.154884 -0.459996
-2.942224 6.853670 1.099408 0.991896
5.526514 10.055367 5.526514 -0.000000
5.526514 10.055367 5.526514 -0.000000
-2.942224 6.853670 1.099408 -0.991896
-4.345249 3.758834 -0.154884 0.459996

