# vtk DataFile Version 2.0
Unstructured Grid Example
ASCII
DATASET UNSTRUCTURED_GRID

POINTS 4225 float
0.001863 -0.593450 0.000000 
0.998137 -0.593450 0.000000 
1.000000 1.000000 0.000000 
0.000000 1.000000 0.000000 
0.500000 -0.649137 0.000000 
0.889334 0.033843 0.000000 
0.500000 1.000000 0.000000 
0.110666 0.033843 0.000000 
0.500000 -0.006238 0.000000 
0.248990 -0.634985 0.000000 
0.500000 -0.367696 0.000000 
0.276850 -0.355543 0.000000 
0.751010 -0.634985 0.000000 
0.723150 -0.355543 0.000000 
0.945673 -0.316304 0.000000 
0.693499 0.001038 0.000000 
0.843158 0.461090 0.000000 
0.670382 0.460169 0.000000 
0.750000 1.000000 0.000000 
0.500000 0.462307 0.000000 
0.250000 1.000000 0.000000 
0.329618 0.460169 0.000000 
0.156842 0.461090 0.000000 
0.306501 0.001038 0.000000 
0.054327 -0.316304 0.000000 
0.124588 -0.617125 0.000000 
0.262973 -0.503529 0.000000 
0.144946 -0.486551 0.000000 
0.500000 -0.516930 0.000000 
0.381398 -0.513624 0.000000 
0.374342 -0.645740 0.000000 
0.395838 -0.196144 0.000000 
0.388470 -0.364715 0.000000 
0.500000 -0.198599 0.000000 
0.625658 -0.645740 0.000000 
0.618602 -0.513624 0.000000 
0.855054 -0.486551 0.000000 
0.737027 -0.503529 0.000000 
0.875412 -0.617125 0.000000 
0.611530 -0.364715 0.000000 
0.604162 -0.196144 0.000000 
0.972266 -0.463226 0.000000 
0.834759 -0.339622 0.000000 
0.791323 0.012349 0.000000 
0.813454 -0.174106 0.000000 
0.917803 -0.151017 0.000000 
0.708637 -0.188415 0.000000 
0.596482 -0.004376 0.000000 
0.862621 0.238038 0.000000 
0.770197 0.222128 0.000000 
0.765694 0.722930 0.000000 
0.755542 0.457892 0.000000 
0.845874 0.700495 0.000000 
0.679197 0.216275 0.000000 
0.589344 0.214256 0.000000 
0.875000 1.000000 0.000000 
0.681186 0.730488 0.000000 
0.500000 0.733211 0.000000 
0.591680 0.732513 0.000000 
0.625000 1.000000 0.000000 
0.585357 0.461728 0.000000 
0.500000 0.213771 0.000000 
0.375000 1.000000 0.000000 
0.408320 0.732513 0.000000 
0.234306 0.722930 0.000000 
0.318814 0.730488 0.000000 
0.125000 1.000000 0.000000 
0.414643 0.461728 0.000000 
0.410656 0.214256 0.000000 
0.154126 0.700495 0.000000 
0.244458 0.457892 0.000000 
0.208677 0.012349 0.000000 
0.229803 0.222128 0.000000 
0.137379 0.238038 0.000000 
0.320803 0.216275 0.000000 
0.403518 -0.004376 0.000000 
0.082197 -0.151017 0.000000 
0.186546 -0.174106 0.000000 
0.165241 -0.339622 0.000000 
0.027734 -0.463226 0.000000 
0.291363 -0.188415 0.000000 
0.062999 -0.605824 0.000000 
0.134898 -0.553755 0.000000 
0.074680 -0.542647 0.000000 
0.256058 -0.571190 0.000000 
0.195369 -0.563322 0.000000 
0.186619 -0.626908 0.000000 
0.212391 -0.424368 0.000000 
0.203891 -0.495889 0.000000 
0.269865 -0.431749 0.000000 
0.500000 -0.585025 0.000000 
0.438919 -0.584197 0.000000 
0.437166 -0.648388 0.000000 
0.442454 -0.443810 0.000000 
0.440686 -0.516109 0.000000 
0.500000 -0.444598 0.000000 
0.311594 -0.641271 0.000000 
0.377883 -0.581630 0.000000 
0.316914 -0.577297 0.000000 
0.449850 -0.104978 0.000000 
0.447939 -0.197989 0.000000 
0.500000 -0.105519 0.000000 
0.332673 -0.360932 0.000000 
0.392106 -0.283095 0.000000 
0.338089 -0.279594 0.000000 
0.500000 -0.285839 0.000000 
0.446068 -0.285158 0.000000 
0.444242 -0.366955 0.000000 
0.322153 -0.509438 0.000000 
0.384913 -0.441430 0.000000 
0.327381 -0.437424 0.000000 
0.562834 -0.648388 0.000000 
0.561081 -0.584197 0.000000 
0.683086 -0.577297 0.000000 
0.622117 -0.581630 0.000000 
0.688406 -0.641271 0.000000 
0.559314 -0.516109 0.000000 
0.557546 -0.443810 0.000000 
0.925320 -0.542647 0.000000 
0.865102 -0.553755 0.000000 
0.937001 -0.605824 0.000000 
0.730135 -0.431749 0.000000 
0.796109 -0.495889 0.000000 
0.787609 -0.424368 0.000000 
0.813381 -0.626908 0.000000 
0.804631 -0.563322 0.000000 
0.743942 -0.571190 0.000000 
0.552061 -0.197989 0.000000 
0.550150 -0.104978 0.000000 
0.555758 -0.366955 0.000000 
0.553932 -0.285158 0.000000 
0.661911 -0.279594 0.000000 
0.607894 -0.283095 0.000000 
0.667327 -0.360932 0.000000 
0.677847 -0.509438 0.000000 
0.672619 -0.437424 0.000000 
0.615087 -0.441430 0.000000 
0.985246 -0.530266 0.000000 
0.913806 -0.475611 0.000000 
0.890382 -0.328927 0.000000 
0.902213 -0.404452 0.000000 
0.959118 -0.391976 0.000000 
0.844996 -0.415265 0.000000 
0.778980 -0.348467 0.000000 
0.840410 0.021438 0.000000 
0.853121 -0.073805 0.000000 
0.903550 -0.061113 0.000000 
0.751713 -0.091124 0.000000 
0.802429 -0.083642 0.000000 
0.742316 0.005748 0.000000 
0.931887 -0.236036 0.000000 
0.865787 -0.163825 0.000000 
0.878238 -0.248795 0.000000 
0.600342 -0.103399 0.000000 
0.548204 -0.005621 0.000000 
0.715995 -0.274560 0.000000 
0.656345 -0.192998 0.000000 
0.644896 -0.002230 0.000000 
0.650647 -0.100697 0.000000 
0.701103 -0.096692 0.000000 
0.824251 -0.259335 0.000000 
0.761026 -0.182201 0.000000 
0.770129 -0.267861 0.000000 
0.875517 0.133438 0.000000 
0.827949 0.122065 0.000000 
0.806140 0.340075 0.000000 
0.816278 0.228227 0.000000 
0.851416 0.347363 0.000000 
0.780412 0.114169 0.000000 
0.733096 0.108807 0.000000 
0.838297 0.855082 0.000000 
0.805562 0.713692 0.000000 
0.870025 0.828305 0.000000 
0.712847 0.459003 0.000000 
0.755145 0.586600 0.000000 
0.713609 0.590279 0.000000 
0.839981 0.578839 0.000000 
0.796904 0.581972 0.000000 
0.798855 0.457829 0.000000 
0.592739 0.101378 0.000000 
0.546325 0.100544 0.000000 
0.686064 0.105219 0.000000 
0.639297 0.102862 0.000000 
0.630066 0.334422 0.000000 
0.634171 0.214992 0.000000 
0.673575 0.334548 0.000000 
0.761445 0.336565 0.000000 
0.717313 0.335078 0.000000 
0.724510 0.218455 0.000000 
0.937500 1.000000 0.000000 
0.798473 0.864714 0.000000 
0.704500 0.869084 0.000000 
0.752955 0.867944 0.000000 
0.812500 1.000000 0.000000 
0.724262 0.727932 0.000000 
0.671715 0.592721 0.000000 
0.500000 0.869980 0.000000 
0.551837 0.869710 0.000000 
0.562500 1.000000 0.000000 
0.543310 0.595698 0.000000 
0.545964 0.732916 0.000000 
0.500000 0.595963 0.000000 
0.687500 1.000000 0.000000 
0.603405 0.869624 0.000000 
0.654426 0.869484 0.000000 
0.544640 0.213877 0.000000 
0.500000 0.100259 0.000000 
0.627916 0.461088 0.000000 
0.586669 0.334442 0.000000 
0.500000 0.334551 0.000000 
0.543323 0.334501 0.000000 
0.542703 0.462125 0.000000 
0.636862 0.731809 0.000000 
0.586470 0.595162 0.000000 
0.629316 0.594242 0.000000 
0.437500 1.000000 0.000000 
0.448163 0.869710 0.000000 
0.345574 0.869484 0.000000 
0.396595 0.869624 0.000000 
0.312500 1.000000 0.000000 
0.454036 0.732916 0.000000 
0.456690 0.595698 0.000000 
0.161703 0.855082 0.000000 
0.201527 0.864714 0.000000 
0.062500 1.000000 0.000000 
0.328285 0.592721 0.000000 
0.275738 0.727932 0.000000 
0.286391 0.590279 0.000000 
0.187500 1.000000 0.000000 
0.247045 0.867944 0.000000 
0.295500 0.869084 0.000000 
0.455360 0.213877 0.000000 
0.453675 0.100544 0.000000 
0.457297 0.462125 0.000000 
0.456677 0.334501 0.000000 
0.369934 0.334422 0.000000 
0.413331 0.334442 0.000000 
0.372084 0.461088 0.000000 
0.363138 0.731809 0.000000 
0.370684 0.594242 0.000000 
0.413530 0.595162 0.000000 
0.129975 0.828305 0.000000 
0.194438 0.713692 0.000000 
0.201145 0.457829 0.000000 
0.203096 0.581972 0.000000 
0.160019 0.578839 0.000000 
0.244855 0.586600 0.000000 
0.287153 0.459003 0.000000 
0.159590 0.021438 0.000000 
0.172051 0.122065 0.000000 
0.124483 0.133438 0.000000 
0.266904 0.108807 0.000000 
0.219588 0.114169 0.000000 
0.257684 0.005748 0.000000 
0.148584 0.347363 0.000000 
0.183722 0.228227 0.000000 
0.193860 0.340075 0.000000 
0.407261 0.101378 0.000000 
0.451796 -0.005621 0.000000 
0.326425 0.334548 0.000000 
0.365829 0.214992 0.000000 
0.355104 -0.002230 0.000000 
0.360703 0.102862 0.000000 
0.313936 0.105219 0.000000 
0.238555 0.336565 0.000000 
0.275490 0.218455 0.000000 
0.282687 0.335078 0.000000 
0.096450 -0.061113 0.000000 
0.146879 -0.073805 0.000000 
0.121762 -0.248795 0.000000 
0.134213 -0.163825 0.000000 
0.068113 -0.236036 0.000000 
0.197571 -0.083642 0.000000 
0.248287 -0.091124 0.000000 
0.086194 -0.475611 0.000000 
0.014754 -0.530266 0.000000 
0.221020 -0.348467 0.000000 
0.155004 -0.415265 0.000000 
0.040882 -0.391976 0.000000 
0.097787 -0.404452 0.000000 
0.109618 -0.328927 0.000000 
0.399658 -0.103399 0.000000 
0.298897 -0.096692 0.000000 
0.349353 -0.100697 0.000000 
0.343655 -0.192998 0.000000 
0.284005 -0.274560 0.000000 
0.175749 -0.259335 0.000000 
0.229871 -0.267861 0.000000 
0.238974 -0.182201 0.000000 
0.032386 -0.599715 0.000000 
0.068884 -0.574697 0.000000 
0.038541 -0.568621 0.000000 
0.129799 -0.585906 0.000000 
0.099300 -0.580476 0.000000 
0.093734 -0.611646 0.000000 
0.110157 -0.515322 0.000000 
0.104756 -0.548379 0.000000 
0.139934 -0.520647 0.000000 
0.252551 -0.603558 0.000000 
0.221764 -0.599790 0.000000 
0.217769 -0.631167 0.000000 
0.229567 -0.534195 0.000000 
0.225689 -0.567474 0.000000 
0.259527 -0.537857 0.000000 
0.155554 -0.622221 0.000000 
0.191037 -0.595584 0.000000 
0.160379 -0.590950 0.000000 
0.245007 -0.390818 0.000000 
0.241121 -0.428273 0.000000 
0.273340 -0.394220 0.000000 
0.174398 -0.491428 0.000000 
0.208133 -0.460657 0.000000 
0.179030 -0.456257 0.000000 
0.266414 -0.468171 0.000000 
0.237263 -0.464629 0.000000 
0.233418 -0.499924 0.000000 
0.165103 -0.558743 0.000000 
0.199644 -0.530099 0.000000 
0.169765 -0.525579 0.000000 
0.500000 -0.617570 0.000000 
0.469012 -0.617388 0.000000 
0.468587 -0.649020 0.000000 
0.469898 -0.551282 0.000000 
0.469454 -0.584823 0.000000 
0.500000 -0.551488 0.000000 
0.405748 -0.647292 0.000000 
0.438038 -0.616761 0.000000 
0.407071 -0.615683 0.000000 
0.471673 -0.406550 0.000000 
0.471227 -0.444402 0.000000 
0.500000 -0.406742 0.000000 
0.411038 -0.515077 0.000000 
0.441569 -0.480507 0.000000 
0.412359 -0.479494 0.000000 
0.500000 -0.481313 0.000000 
0.470783 -0.481112 0.000000 
0.470341 -0.516725 0.000000 
0.280269 -0.638355 0.000000 
0.314268 -0.609755 0.000000 
0.283389 -0.606881 0.000000 
0.376116 -0.614156 0.000000 
0.345179 -0.612180 0.000000 
0.342955 -0.643733 0.000000 
0.349582 -0.546218 0.000000 
0.347387 -0.579685 0.000000 
0.379642 -0.548131 0.000000 
[...]
POINT_DATA 4225

SCALARS u_h float 2
LOOKUP_TABLE default
0.001863 -0.593450 
-0.001863 -0.593450 
0.000000 0.000000 
0.000000 0.000000 
0.000000 -0.649137 
-0.110666 -0.466157 
0.000000 0.000000 
0.110666 -0.466157 
0.000000 -0.506238 
-0.001010 -0.634985 
0.000000 -0.617696 
0.026850 -0.605543 
0.001010 -0.634985 
-0.026850 -0.605543 
-0.054327 -0.566304 
-0.056501 -0.498962 
-0.156842 -0.288910 
-0.079618 -0.289831 
0.000000 0.000000 
0.000000 -0.287693 
0.000000 0.000000 
0.079618 -0.289831 
0.156842 -0.288910 
0.056501 -0.498962 
0.054327 -0.566304 
-0.000412 -0.617125 
0.012973 -0.628529 
0.019946 -0.611551 
0.000000 -0.641930 
0.006398 -0.638624 
-0.000658 -0.645740 
0.020838 -0.571144 
0.013470 -0.614715 
0.000000 -0.573599 
0.000658 -0.645740 
-0.006398 -0.638624 
-0.019946 -0.611551 
-0.012973 -0.628529 
0.000412 -0.617125 
-0.013470 -0.614715 
-0.020838 -0.571144 
-0.027734 -0.588226 
-0.040241 -0.589622 
-0.083677 -0.487651 
-0.061546 -0.549106 
-0.082197 -0.526017 
-0.041363 -0.563415 
-0.028518 -0.504376 
-0.137379 -0.386962 
-0.104803 -0.402872 
-0.109306 -0.152070 
-0.119458 -0.292108 
-0.154126 -0.174505 
-0.070803 -0.408725 
-0.035656 -0.410744 
0.000000 0.000000 
-0.068814 -0.144512 
-0.000000 -0.141789 
-0.033320 -0.142487 
0.000000 0.000000 
-0.039643 -0.288272 
0.000000 -0.411229 
0.000000 0.000000 
0.033320 -0.142487 
0.109306 -0.152070 
0.068814 -0.144512 
0.000000 0.000000 
0.039643 -0.288272 
0.035656 -0.410744 
0.154126 -0.174505 
0.119458 -0.292108 
0.083677 -0.487651 
0.104803 -0.402872 
0.137379 -0.386962 
0.070803 -0.408725 
0.028518 -0.504376 
0.082197 -0.526017 
0.061546 -0.549106 
0.040241 -0.589622 
0.027734 -0.588226 
0.041363 -0.563415 
0.000499 -0.605824 
0.009898 -0.616255 
0.012180 -0.605147 
0.006058 -0.633690 
0.007869 -0.625822 
-0.000881 -0.626908 
0.024891 -0.611868 
0.016391 -0.620889 
0.019865 -0.619249 
0.000000 -0.647525 
0.001419 -0.646697 
-0.000334 -0.648388 
0.004954 -0.631310 
0.003186 -0.641109 
0.000000 -0.632098 
-0.000906 -0.641271 
0.002883 -0.644130 
0.004414 -0.639797 
0.012350 -0.542478 
0.010439 -0.572989 
0.000000 -0.543019 
0.020173 -0.610932 
0.017106 -0.595595 
0.025589 -0.592094 
0.000000 -0.598339 
0.008568 -0.597658 
0.006742 -0.616955 
0.009653 -0.634438 
0.009913 -0.628930 
0.014881 -0.624924 
0.000334 -0.648388 
-0.001419 -0.646697 
-0.004414 -0.639797 
-0.002883 -0.644130 
0.000906 -0.641271 
-0.003186 -0.641109 
-0.004954 -0.631310 
-0.012180 -0.605147 
-0.009898 -0.616255 
-0.000499 -0.605824 
-0.019865 -0.619249 
-0.016391 -0.620889 
-0.024891 -0.611868 
0.000881 -0.626908 
-0.007869 -0.625822 
-0.006058 -0.633690 
-0.010439 -0.572989 
-0.012350 -0.542478 
-0.006742 -0.616955 
-0.008568 -0.597658 
-0.025589 -0.592094 
-0.017106 -0.595595 
-0.020173 -0.610932 
-0.009653 -0.634438 
-0.014881 -0.624924 
-0.009913 -0.628930 
-0.014754 -0.592766 
-0.023694 -0.600611 
-0.047118 -0.578927 
-0.035287 -0.591952 
-0.040882 -0.579476 
-0.030004 -0.602765 
-0.033520 -0.598467 
-0.097090 -0.478562 
-0.084379 -0.511305 
-0.096450 -0.498613 
-0.060787 -0.528624 
-0.072571 -0.521142 
-0.070184 -0.494252 
-0.068113 -0.548536 
-0.071713 -0.538825 
-0.059262 -0.561295 
-0.024658 -0.540899 
-0.014296 -0.505621 
-0.034005 -0.587060 
-0.031155 -0.567998 
-0.042604 -0.502230 
-0.036853 -0.538197 
-0.048897 -0.534192 
-0.050749 -0.571835 
-0.051474 -0.557201 
-0.042371 -0.580361 
-0.124483 -0.429062 
-0.109551 -0.440435 
-0.131360 -0.347425 
-0.121222 -0.396773 
-0.148584 -0.340137 
-0.094588 -0.448331 
-0.079404 -0.453693 
-0.099203 -0.082418 
-0.131938 -0.161308 
-0.129975 -0.109195 
-0.099653 -0.290997 
-0.119855 -0.225900 
-0.098891 -0.222221 
-0.160019 -0.233661 
-0.140596 -0.230528 
-0.138645 -0.292171 
-0.032261 -0.461122 
-0.016175 -0.461956 
-0.063936 -0.457281 
-0.048203 -0.459638 
-0.057434 -0.353078 
-0.053329 -0.410008 
-0.076425 -0.352952 
-0.113555 -0.350935 
-0.095187 -0.352422 
-0.087990 -0.406545 
0.000000 0.000000 
-0.076527 -0.072786 
-0.045500 -0.068416 
-0.059545 -0.069556 
0.000000 0.000000 
-0.088238 -0.147068 
-0.078285 -0.219779 
-0.000000 -0.067520 
-0.010663 -0.067790 
0.000000 0.000000 
-0.019190 -0.216802 
-0.016536 -0.142084 
0.000000 -0.216537 
0.000000 0.000000 
-0.021595 -0.067876 
-0.033074 -0.068016 
-0.017860 -0.411123 
0.000000 -0.462241 
-0.059584 -0.288912 
-0.038331 -0.353058 
0.000000 -0.352949 
-0.019177 -0.352999 
-0.019797 -0.287875 
-0.050638 -0.143191 
-0.038530 -0.217338 
-0.058184 -0.218258 
0.000000 0.000000 
0.010663 -0.067790 
0.033074 -0.068016 
0.021595 -0.067876 
0.000000 0.000000 
0.016536 -0.142084 
0.019190 -0.216802 
0.099203 -0.082418 
0.076527 -0.072786 
0.000000 0.000000 
0.078285 -0.219779 
0.088238 -0.147068 
0.098891 -0.222221 
0.000000 0.000000 
0.059545 -0.069556 
0.045500 -0.068416 
0.017860 -0.411123 
0.016175 -0.461956 
0.019797 -0.287875 
0.019177 -0.352999 
0.057434 -0.353078 
0.038331 -0.353058 
0.059584 -0.288912 
0.050638 -0.143191 
0.058184 -0.218258 
0.038530 -0.217338 
0.129975 -0.109195 
0.131938 -0.161308 
0.138645 -0.292171 
0.140596 -0.230528 
0.160019 -0.233661 
0.119855 -0.225900 
0.099653 -0.290997 
0.097090 -0.478562 
0.109551 -0.440435 
0.124483 -0.429062 
0.079404 -0.453693 
0.094588 -0.448331 
0.070184 -0.494252 
0.148584 -0.340137 
0.121222 -0.396773 
0.131360 -0.347425 
0.032261 -0.461122 
0.014296 -0.505621 
0.076425 -0.352952 
0.053329 -0.410008 
0.042604 -0.502230 
0.048203 -0.459638 
0.063936 -0.457281 
0.113555 -0.350935 
0.087990 -0.406545 
0.095187 -0.352422 
0.096450 -0.498613 
0.084379 -0.511305 
0.059262 -0.561295 
0.071713 -0.538825 
0.068113 -0.548536 
0.072571 -0.521142 
0.060787 -0.528624 
0.023694 -0.600611 
0.014754 -0.592766 
0.033520 -0.598467 
0.030004 -0.602765 
0.040882 -0.579476 
0.035287 -0.591952 
0.047118 -0.578927 
0.024658 -0.540899 
0.048897 -0.534192 
0.036853 -0.538197 
0.031155 -0.567998 
0.034005 -0.587060 
0.050749 -0.571835 
0.042371 -0.580361 
0.051474 -0.557201 
0.001136 -0.599715 
0.006384 -0.605947 
0.007291 -0.599871 
0.004799 -0.617156 
0.005550 -0.611726 
-0.000016 -0.611646 
0.016407 -0.609072 
0.011006 -0.610879 
0.014934 -0.614397 
0.002551 -0.634808 
0.003014 -0.631040 
-0.000981 -0.631167 
0.010817 -0.627945 
0.006939 -0.629974 
0.009527 -0.631607 
-0.000696 -0.622221 
0.003537 -0.626834 
0.004129 -0.622200 
0.026257 -0.609568 
0.022371 -0.615773 
0.023340 -0.612970 
0.018148 -0.616428 
0.020633 -0.616907 
0.022780 -0.612507 
0.016414 -0.624421 
0.018513 -0.620879 
0.014668 -0.624924 
0.008853 -0.621243 
0.012144 -0.623849 
0.013515 -0.619329 
0.000000 -0.648820 
0.000262 -0.648638 
-0.000163 -0.649020 
0.001148 -0.645032 
0.000704 -0.647323 
0.000000 -0.645238 
-0.000502 -0.647292 
0.000538 -0.648011 
0.000821 -0.646933 
0.002923 -0.625300 
0.002477 -0.631902 
0.000000 -0.625492 
0.004788 -0.640077 
0.004069 -0.636757 
0.006109 -0.635744 
0.000000 -0.637563 
0.002033 -0.637362 
0.001591 -0.641725 
-0.000981 -0.638355 
0.001768 -0.641005 
0.002139 -0.638131 
0.001116 -0.645406 
0.001429 -0.643430 
-0.000795 -0.643733 
0.005832 -0.639968 
0.003637 -0.642185 
0.004642 -0.641881 
0.002303 -0.644409 
0.003467 -0.643360 
0.002145 -0.645633 
0.006653 -0.525253 
0.006175 -0.542879 
0.000000 -0.525408 
0.015646 -0.572223 
0.011391 -0.558494 
0.017074 -0.557781 
0.000000 -0.559067 
0.005697 -0.558923 
0.005222 -0.573446 
0.023514 -0.608443 
0.022863 -0.602144 
0.026638 -0.599736 
0.015277 -0.605793 
0.019076 -0.604160 
0.016825 -0.613020 
0.023667 -0.582575 
0.021355 -0.594029 
0.018960 -0.584064 
0.000000 -0.608663 
0.003826 -0.608485 
0.003372 -0.617511 
0.004751 -0.586509 
0.004286 -0.598169 
0.000000 -0.586670 
0.010109 -0.616024 
0.007649 -0.607950 
0.011467 -0.607054 
0.014235 -0.585210 
0.012842 -0.596801 
0.009498 -0.586023 
0.005219 -0.636966 
0.008019 -0.636745 
0.007039 -0.637619 
0.008269 -0.634832 
0.011303 -0.631700 
0.005845 -0.624725 
0.011684 -0.622411 
0.008765 -0.623763 
0.007433 -0.630321 
0.008153 -0.634320 
0.020427 -0.615948 
0.014332 -0.627534 
0.017370 -0.622297 
0.017514 -0.618510 
0.014600 -0.620662 
0.010204 -0.632480 
0.012396 -0.627133 
0.012263 -0.630219 
0.000163 -0.649020 
-0.000262 -0.648638 
-0.000821 -0.646933 
-0.000538 -0.648011 
0.000502 -0.647292 
-0.000704 -0.647323 
-0.001148 -0.645032 
-0.002139 -0.638131 
-0.001768 -0.641005 
0.000981 -0.638355 
-0.004642 -0.641881 
-0.003637 -0.642185 
-0.005832 -0.639968 
0.000795 -0.643733 
-0.001429 -0.643430 
-0.001116 -0.645406 
-0.002477 -0.631902 
-0.002923 -0.625300 
-0.001591 -0.641725 
-0.002033 -0.637362 
-0.006109 -0.635744 
-0.004069 -0.636757 
-0.004788 -0.640077 
-0.002145 -0.645633 
-0.003467 -0.643360 
-0.002303 -0.644409 
-0.007291 -0.599871 
-0.006384 -0.605947 
-0.001136 -0.599715 
-0.014934 -0.614397 
-0.011006 -0.610879 
-0.016407 -0.609072 
0.000016 -0.611646 
-0.005550 -0.611726 
-0.004799 -0.617156 
-0.023340 -0.612970 
-0.022371 -0.615773 
-0.026257 -0.609568 
-0.014668 -0.624924 
-0.018513 -0.620879 
-0.016414 -0.624421 
-0.022780 -0.612507 
-0.020633 -0.616907 
-0.018148 -0.616428 
0.000981 -0.631167 
-0.003014 -0.631040 
-0.002551 -0.634808 
-0.004129 -0.622200 
-0.003537 -0.626834 
0.000696 -0.622221 
-0.009527 -0.631607 
-0.006939 -0.629974 
-0.010817 -0.627945 
-0.013515 -0.619329 
-0.012144 -0.623849 
-0.008853 -0.621243 
-0.006175 -0.542879 
-0.006653 -0.525253 
-0.005222 -0.573446 
-0.005697 -0.558923 
-0.017074 -0.557781 
-0.011391 -0.558494 
-0.015646 -0.572223 
-0.003372 -0.617511 
-0.003826 -0.608485 
-0.011467 -0.607054 
-0.007649 -0.607950 
-0.010109 -0.616024 
-0.004286 -0.598169 
-0.004751 -0.586509 
-0.026638 -0.599736 
-0.022863 -0.602144 
-0.023514 -0.608443 
-0.018960 -0.584064 
-0.021355 -0.594029 
-0.023667 -0.582575 
-0.016825 -0.613020 
-0.019076 -0.604160 
-0.015277 -0.605793 
-0.009498 -0.586023 
-0.012842 -0.596801 
-0.014235 -0.585210 
-0.005219 -0.636966 
-0.011303 -0.631700 
-0.008269 -0.634832 
-0.007039 -0.637619 
-0.008019 -0.636745 
-0.020427 -0.615948 
-0.014600 -0.620662 
-0.017514 -0.618510 
-0.017370 -0.622297 
-0.014332 -0.627534 
-0.005845 -0.624725 
-0.008153 -0.634320 
-0.007433 -0.630321 
-0.008765 -0.623763 
-0.011684 -0.622411 
-0.012263 -0.630219 
-0.012396 -0.627133 
-0.010204 -0.632480 
-0.008276 -0.593555 
-0.013425 -0.599099 
-0.025670 -0.594587 
-0.019544 -0.597348 
-0.021234 -0.591006 
-0.017940 -0.603379 
-0.021791 -0.606273 
-0.050667 -0.572861 
-0.044311 -0.579951 
-0.047563 -0.573454 
-0.038101 -0.591602 
-0.041166 -0.586000 
-0.043651 -0.584511 
-0.034277 -0.584392 
-0.038034 -0.585917 
-0.031826 -0.590787 
-0.029182 -0.605735 
-0.030183 -0.602221 
-0.024961 -0.607685 
-0.027432 -0.607532 
-0.036869 -0.594271 
-0.032124 -0.601466 
-0.035093 -0.596756 
-0.029469 -0.596812 
-0.032617 -0.597570 
-0.027186 -0.602449 
-0.103835 -0.472851 
-0.097109 -0.489736 
-0.103577 -0.483034 
-0.084426 -0.500691 
-0.090741 -0.495596 
-0.090382 -0.483461 
-0.089314 -0.512934 
-0.090362 -0.505346 
-0.083616 -0.519683 
-0.059116 -0.514982 
-0.065487 -0.512187 
-0.063369 -0.496812 
-0.067037 -0.535796 
-0.066686 -0.525148 
-0.061576 -0.539964 
-0.076949 -0.491222 
-0.071820 -0.508915 
-0.078127 -0.505106 
-0.061178 -0.558004 
-0.063629 -0.555207 
-0.057106 -0.564621 
-0.076898 -0.532759 
-0.070230 -0.544593 
-0.075123 -0.537879 
-0.060757 -0.556171 
-0.065453 -0.550679 
-0.066606 -0.544259 
-0.078460 -0.516549 
-0.072512 -0.531062 
-0.078028 -0.525708 
-0.013316 -0.524875 
-0.007153 -0.505964 
-0.022739 -0.556776 
-0.018514 -0.541821 
-0.021420 -0.505100 
-0.019965 -0.524280 
-0.026588 -0.523451 
-0.030403 -0.596922 
-0.029805 -0.589776 
-0.036273 -0.565897 
-0.033017 -0.578515 
-0.037659 -0.575908 
-0.028353 -0.580730 
-0.026009 -0.569741 
-0.049578 -0.500753 
-0.046239 -0.519352 
-0.052701 -0.517355 
-0.033178 -0.522370 
-0.039730 -0.521013 
-0.035582 -0.503427 
-0.045113 -0.549527 
-0.042895 -0.536372 
-0.039569 -0.551868 
-0.028380 -0.555468 
-0.033991 -0.553839 
-0.030773 -0.539698 
-0.053149 -0.570702 
-0.056114 -0.561106 
-0.054978 -0.566829 
-0.049276 -0.576264 
-0.045458 -0.581328 
-0.054860 -0.531623 
-0.046429 -0.560526 
-0.050625 -0.546788 
-0.056109 -0.543613 
-0.056508 -0.553407 
-0.034160 -0.593690 
-0.041677 -0.585908 
-0.037915 -0.590024 
-0.038192 -0.583928 
-0.042282 -0.572890 
-0.051498 -0.565517 
-0.046892 -0.569435 
-0.046553 -0.576337 
-0.117658 -0.448260 
-0.110499 -0.454696 
-0.123302 -0.414487 
-0.117003 -0.435244 
-0.131086 -0.408619 
-0.103389 -0.460182 
-0.096295 -0.464826 
-0.144426 -0.318426 
-0.140034 -0.344389 
-0.153187 -0.315050 
-0.113058 -0.400199 
-0.126547 -0.372820 
-0.118049 -0.375646 
-0.143257 -0.364122 
-0.134938 -0.369055 
-0.129315 -0.392423 
-0.074840 -0.474772 
-0.067581 -0.477059 
-0.089186 -0.468740 
-0.082039 -0.472025 
-0.091860 -0.428931 
-0.087030 -0.451276 
-0.099821 -0.426388 
-0.115521 -0.419305 
-0.107703 -0.423224 
-0.102089 -0.444756 
-0.079473 -0.048747 
-0.113722 -0.092676 
-0.099947 -0.066723 
-0.120483 -0.156059 
-0.120072 -0.123166 
-0.107947 -0.116924 
-0.145373 -0.143077 
-0.132845 -0.131963 
-0.143336 -0.167707 
-0.089646 -0.290392 
-0.100151 -0.257506 
-0.089907 -0.256477 
-0.120592 -0.259957 
-0.110397 -0.258683 
-0.109606 -0.291598 
-0.105740 -0.187312 
-0.109352 -0.223897 
-0.116470 -0.189911 
-0.159253 -0.261767 
-0.150071 -0.262564 
-0.147879 -0.291159 
-0.148648 -0.201051 
-0.150548 -0.232574 
-0.158582 -0.204598 
-0.129156 -0.292377 
-0.140519 -0.262199 
-0.130663 -0.261206 
-0.127320 -0.193159 
-0.130313 -0.228173 
-0.138128 -0.196985 
-0.015256 -0.484667 
-0.007642 -0.484950 
-0.030416 -0.483618 
-0.022849 -0.484229 
-0.025548 -0.437201 
-0.024232 -0.461611 
-0.034021 -0.436842 
-0.060260 -0.478955 
-0.052877 -0.480516 
-0.059195 -0.434914 
-0.056100 -0.458587 
-0.067475 -0.433886 
-0.045438 -0.481790 
-0.037949 -0.482813 
-0.068639 -0.322086 
-0.066949 -0.353044 
-0.078428 -0.322303 
-0.044512 -0.410430 
-0.055556 -0.382462 
-0.046351 -0.382670 
-0.073828 -0.381756 
-0.064719 -0.382168 
-0.062096 -0.409452 
-0.040254 -0.460472 
-0.050853 -0.435724 
-0.042458 -0.436357 
-0.135476 -0.320556 
-0.116987 -0.322413 
-0.126324 -0.321790 
-0.122535 -0.349526 
-0.109429 -0.377737 
-0.088183 -0.322500 
-0.082870 -0.381180 
-0.085844 -0.352762 
-0.097882 -0.322636 
-0.107494 -0.322643 
-0.071706 -0.455670 
-0.096447 -0.404944 
-0.083814 -0.430967 
-0.075684 -0.432592 
-0.079438 -0.407777 
-0.104432 -0.351850 
-0.091827 -0.380378 
-0.100685 -0.379268 
0.000000 0.000000 
-0.064226 -0.039839 
-0.045940 -0.034102 
-0.053604 -0.035837 
0.000000 0.000000 
-0.086916 -0.076306 
-0.096735 -0.112725 
-0.026209 -0.032532 
-0.030269 -0.032610 
0.000000 0.000000 
-0.067835 -0.106945 
-0.052260 -0.068842 
-0.059334 -0.106144 
0.000000 0.000000 
-0.034757 -0.032813 
-0.039870 -0.033245 
-0.088527 -0.220862 
-0.079699 -0.255608 
-0.098549 -0.149157 
-0.095215 -0.185299 
-0.074870 -0.182606 
-0.084925 -0.183765 
-0.078343 -0.145578 
-0.067542 -0.070754 
-0.076818 -0.108146 
-0.086403 -0.109961 
-0.000000 -0.032440 
-0.002996 -0.032595 
0.000000 0.000000 
-0.007031 -0.104425 
-0.005314 -0.067707 
-0.000000 -0.104258 
0.000000 0.000000 
-0.006039 -0.032626 
-0.009132 -0.032619 
-0.009840 -0.252827 
-0.009587 -0.216638 
0.000000 -0.252743 
-0.024880 -0.142262 
-0.018183 -0.179691 
-0.027337 -0.179908 
-0.000000 -0.179404 
-0.009081 -0.179525 
-0.008255 -0.141931 
0.000000 0.000000 
-0.018916 -0.032535 
-0.022452 -0.032517 
-0.012292 -0.032595 
-0.015543 -0.032565 
0.000000 0.000000 
-0.035835 -0.104983 
-0.027245 -0.067929 
-0.028455 -0.104803 
-0.014091 -0.104550 
-0.021220 -0.104667 
-0.016079 -0.067836 
-0.008095 -0.462167 
0.000000 -0.485071 
-0.026770 -0.410971 
-0.017049 -0.437449 
0.000000 -0.437641 
-0.008530 -0.437595 
-0.008935 -0.411207 
-0.069592 -0.289336 
-0.058834 -0.321875 
-0.039212 -0.321516 
-0.049022 -0.321683 
-0.049600 -0.288559 
-0.047892 -0.353077 
-0.037116 -0.382814 
0.000000 -0.321149 
-0.009801 -0.321193 
-0.009896 -0.287757 
-0.009294 -0.382994 
-0.009590 -0.352971 
0.000000 -0.382993 
-0.029710 -0.288046 
-0.019601 -0.321270 
-0.029404 -0.321378 
-0.027857 -0.382909 
-0.028758 -0.353030 
-0.018581 -0.382967 
-0.039136 -0.068164 
-0.041893 -0.142786 
-0.043405 -0.105237 
-0.051217 -0.105604 
-0.059596 -0.143746 
-0.019690 -0.252974 
-0.039478 -0.253472 
-0.029565 -0.253186 
-0.028830 -0.217031 
-0.036570 -0.180194 
-0.069549 -0.254891 
-0.065033 -0.181731 
-0.068172 -0.218926 
-0.059462 -0.254308 
-0.049441 -0.253840 
-0.045911 -0.180572 
-0.048308 -0.217739 
-0.055389 -0.181071 
0.000000 0.000000 
0.002996 -0.032595 
0.009132 -0.032619 
0.006039 -0.032626 
0.000000 0.000000 
0.005314 -0.067707 
0.007031 -0.104425 
0.022452 -0.032517 
0.018916 -0.032535 
0.000000 0.000000 
0.028455 -0.104803 
0.027245 -0.067929 
0.035835 -0.104983 
0.000000 0.000000 
0.015543 -0.032565 
0.012292 -0.032595 
0.009587 -0.216638 
0.009840 -0.252827 
0.008255 -0.141931 
0.009081 -0.179525 
0.027337 -0.179908 
0.018183 -0.179691 
0.024880 -0.142262 
0.016079 -0.067836 
0.021220 -0.104667 
0.014091 -0.104550 
0.079473 -0.048747 
0.064226 -0.039839 
0.000000 0.000000 
0.096735 -0.112725 
0.086916 -0.076306 
0.107947 -0.116924 
0.000000 0.000000 
0.053604 -0.035837 
0.045940 -0.034102 
0.079699 -0.255608 
0.088527 -0.220862 
0.089907 -0.256477 
0.078343 -0.145578 
0.084925 -0.183765 
0.074870 -0.182606 
0.105740 -0.187312 
0.095215 -0.185299 
0.098549 -0.149157 
0.000000 0.000000 
0.030269 -0.032610 
0.026209 -0.032532 
0.039870 -0.033245 
0.034757 -0.032813 
0.000000 0.000000 
0.059334 -0.106144 
0.052260 -0.068842 
0.067835 -0.106945 
0.086403 -0.109961 
0.076818 -0.108146 
0.067542 -0.070754 
0.008095 -0.462167 
0.007642 -0.484950 
0.008935 -0.411207 
0.008530 -0.437595 
0.025548 -0.437201 
0.017049 -0.437449 
0.026770 -0.410971 
0.009896 -0.287757 
0.009801 -0.321193 
0.029404 -0.321378 
0.019601 -0.321270 
0.029710 -0.288046 
0.009590 -0.352971 
0.009294 -0.382994 
0.068639 -0.322086 
0.058834 -0.321875 
0.069592 -0.289336 
0.037116 -0.382814 
0.047892 -0.353077 
0.046351 -0.382670 
0.049600 -0.288559 
0.049022 -0.321683 
0.039212 -0.321516 
0.018581 -0.382967 
0.028758 -0.353030 
0.027857 -0.382909 
0.039136 -0.068164 
0.059596 -0.143746 
0.051217 -0.105604 
0.043405 -0.105237 
0.041893 -0.142786 
0.069549 -0.254891 
0.049441 -0.253840 
0.059462 -0.254308 
0.068172 -0.218926 
0.065033 -0.181731 
0.019690 -0.252974 
0.036570 -0.180194 
0.028830 -0.217031 
0.029565 -0.253186 
0.039478 -0.253472 
0.055389 -0.181071 
0.048308 -0.217739 
0.045911 -0.180572 
0.099947 -0.066723 
0.113722 -0.092676 
0.143336 -0.167707 
0.132845 -0.131963 
0.145373 -0.143077 
0.120072 -0.123166 
0.120483 -0.156059 
0.147879 -0.291159 
0.150071 -0.262564 
0.159253 -0.261767 
0.130663 -0.261206 
0.140519 -0.262199 
0.129156 -0.292377 
0.158582 -0.204598 
0.150548 -0.232574 
0.148648 -0.201051 
0.100151 -0.257506 
0.089646 -0.290392 
0.116470 -0.189911 
0.109352 -0.223897 
0.109606 -0.291598 
0.110397 -0.258683 
0.120592 -0.259957 
0.138128 -0.196985 
0.130313 -0.228173 
0.127320 -0.193159 
0.103835 -0.472851 
0.110499 -0.454696 
0.117658 -0.448260 
0.096295 -0.464826 
0.103389 -0.460182 
0.090382 -0.483461 
0.131086 -0.408619 
0.117003 -0.435244 
0.123302 -0.414487 
0.067581 -0.477059 
0.074840 -0.474772 
0.063369 -0.496812 
0.099821 -0.426388 
0.087030 -0.451276 
0.091860 -0.428931 
0.076949 -0.491222 
0.082039 -0.472025 
0.089186 -0.468740 
0.153187 -0.315050 
0.140034 -0.344389 
0.144426 -0.318426 
0.129315 -0.392423 
0.134938 -0.369055 
0.143257 -0.364122 
0.118049 -0.375646 
0.126547 -0.372820 
0.113058 -0.400199 
0.102089 -0.444756 
0.107703 -0.423224 
0.115521 -0.419305 
0.015256 -0.484667 
0.007153 -0.505964 
0.034021 -0.436842 
0.024232 -0.461611 
0.021420 -0.505100 
0.022849 -0.484229 
0.030416 -0.483618 
0.078428 -0.322303 
0.066949 -0.353044 
0.062096 -0.409452 
0.064719 -0.382168 
0.073828 -0.381756 
0.055556 -0.382462 
0.044512 -0.410430 
0.049578 -0.500753 
0.052877 -0.480516 
0.060260 -0.478955 
0.037949 -0.482813 
0.045438 -0.481790 