# vtk DataFile Version 2.0
Unstructured Grid Example
ASCII
DATASET UNSTRUCTURED_GRID

POINTS 81 float
0.010059 -0.155931 0.000000 
0.989941 -0.155931 0.000000 
1.000000 1.000000 0.000000 
0.000000 1.000000 0.000000 
0.500000 -0.159920 0.000000 
0.967568 0.390400 0.000000 
0.500000 1.000000 0.000000 
0.032432 0.390400 0.000000 
0.500000 0.386789 0.000000 
0.255932 -0.160377 0.000000 
0.500000 0.102661 0.000000 
0.260715 0.103035 0.000000 
0.744068 -0.160377 0.000000 
0.739285 0.103035 0.000000 
0.979027 0.108564 0.000000 
0.733694 0.387304 0.000000 
0.965319 0.684181 0.000000 
0.736307 0.688937 0.000000 
0.750000 1.000000 0.000000 
0.500000 0.689280 0.000000 
0.250000 1.000000 0.000000 
0.263693 0.688937 0.000000 
0.034681 0.684181 0.000000 
0.266306 0.387304 0.000000 
0.020973 0.108564 0.000000 
0.133277 -0.158564 0.000000 
0.257828 -0.031460 0.000000 
0.136259 -0.029772 0.000000 
0.500000 -0.031584 0.000000 
0.378957 -0.031953 0.000000 
0.378096 -0.160921 0.000000 
0.381809 0.242551 0.000000 
0.380344 0.102639 0.000000 
0.500000 0.242309 0.000000 
0.621904 -0.160921 0.000000 
0.621043 -0.031953 0.000000 
0.863741 -0.029772 0.000000 
0.742172 -0.031460 0.000000 
0.866723 -0.158564 0.000000 
0.619656 0.102639 0.000000 
0.618191 0.242551 0.000000 
0.985570 -0.026230 0.000000 
0.859138 0.104553 0.000000 
0.850265 0.387648 0.000000 
0.854287 0.243881 0.000000 
0.972469 0.247593 0.000000 
0.736196 0.242778 0.000000 
0.616987 0.387387 0.000000 
0.964042 0.535191 0.000000 
0.848777 0.535525 0.000000 
0.861430 0.843680 0.000000 
0.851817 0.687651 0.000000 
0.974024 0.838138 0.000000 
0.733434 0.536281 0.000000 
0.616980 0.536607 0.000000 
0.875000 1.000000 0.000000 
0.742216 0.843938 0.000000 
0.500000 0.843919 0.000000 
0.621384 0.843844 0.000000 
0.625000 1.000000 0.000000 
0.618548 0.689121 0.000000 
0.500000 0.536656 0.000000 
0.375000 1.000000 0.000000 
0.378616 0.843844 0.000000 
0.138570 0.843680 0.000000 
0.257784 0.843938 0.000000 
0.125000 1.000000 0.000000 
0.381452 0.689121 0.000000 
0.383020 0.536607 0.000000 
0.025976 0.838138 0.000000 
0.148183 0.687651 0.000000 
0.149735 0.387648 0.000000 
0.151223 0.535525 0.000000 
0.035958 0.535191 0.000000 
0.266566 0.536281 0.000000 
0.383013 0.387387 0.000000 
0.027531 0.247593 0.000000 
0.145713 0.243881 0.000000 
0.140862 0.104553 0.000000 
0.014430 -0.026230 0.000000 
0.263804 0.242778 0.000000 

CELLS 128 512
3  0 25 27 
3  9 26 25 
3  11 27 26 
3  25 26 27 
3  4 28 30 
3  10 29 28 
3  9 30 29 
3  28 29 30 
3  8 31 33 
3  11 32 31 
3  10 33 32 
3  31 32 33 
3  9 29 26 
3  10 32 29 
3  11 26 32 
3  29 32 26 
3  4 34 28 
3  12 35 34 
3  10 28 35 
3  34 35 28 
3  1 36 38 
3  13 37 36 
3  12 38 37 
3  36 37 38 
3  8 33 40 
3  10 39 33 
3  13 40 39 
3  33 39 40 
3  12 37 35 
3  13 39 37 
3  10 35 39 
3  37 39 35 
3  1 41 36 
3  14 42 41 
3  13 36 42 
3  41 42 36 
3  5 43 45 
3  15 44 43 
3  14 45 44 
3  43 44 45 
3  8 40 47 
3  13 46 40 
3  15 47 46 
3  40 46 47 
3  14 44 42 
3  15 46 44 
3  13 42 46 
3  44 46 42 
3  5 48 43 
3  16 49 48 
3  15 43 49 
3  48 49 43 
3  2 50 52 
3  17 51 50 
3  16 52 51 
3  50 51 52 
3  8 47 54 
3  15 53 47 
3  17 54 53 
3  47 53 54 
3  16 51 49 
3  17 53 51 
3  15 49 53 
3  51 53 49 
3  2 55 50 
3  18 56 55 
3  17 50 56 
3  55 56 50 
3  6 57 59 
3  19 58 57 
3  18 59 58 
3  57 58 59 
3  8 54 61 
3  17 60 54 
3  19 61 60 
3  54 60 61 
3  18 58 56 
3  19 60 58 
3  17 56 60 
3  58 60 56 
3  6 62 57 
3  20 63 62 
3  19 57 63 
3  62 63 57 
3  3 64 66 
3  21 65 64 
3  20 66 65 
3  64 65 66 
3  8 61 68 
3  19 67 61 
3  21 68 67 
3  61 67 68 
3  20 65 63 
3  21 67 65 
3  19 63 67 
3  65 67 63 
3  3 69 64 
3  22 70 69 
3  21 64 70 
3  69 70 64 
3  7 71 73 
3  23 72 71 
3  22 73 72 
3  71 72 73 
3  8 68 75 
3  21 74 68 
3  23 75 74 
3  68 74 75 
3  22 72 70 
3  23 74 72 
3  21 70 74 
3  72 74 70 
3  7 76 71 
3  24 77 76 
3  23 71 77 
3  76 77 71 
3  0 27 79 
3  11 78 27 
3  24 79 78 
3  27 78 79 
3  8 75 31 
3  23 80 75 
3  11 31 80 
3  75 80 31 
3  24 78 77 
3  11 80 78 
3  23 77 80 
3  78 80 77 

CELL_TYPES 128
5
5
5
5
5
5
5
5
5
5
5
5
5
5
5
5
5
5
5
5
5
5
5
5
5
5
5
5
5
5
5
5
5
5
5
5
5
5
5
5
5
5
5
5
5
5
5
5
5
5
5
5
5
5
5
5
5
5
5
5
5
5
5
5
5
5
5
5
5
5
5
5
5
5
5
5
5
5
5
5
5
5
5
5
5
5
5
5
5
5
5
5
5
5
5
5
5
5
5
5
5
5
5
5
5
5
5
5
5
5
5
5
5
5
5
5
5
5
5
5
5
5
5
5
5
5
5
5

POINT_DATA 81

SCALARS u_h float 2
LOOKUP_TABLE default
0.010059 -0.155931 
-0.010059 -0.155931 
0.000000 0.000000 
0.000000 0.000000 
0.000000 -0.159920 
-0.032432 -0.109600 
0.000000 0.000000 
0.032432 -0.109600 
0.000000 -0.113211 
0.005932 -0.160377 
0.000000 -0.147339 
0.010715 -0.146965 
-0.005932 -0.160377 
-0.010715 -0.146965 
-0.020973 -0.141436 
-0.016306 -0.112696 
-0.034681 -0.065819 
-0.013693 -0.061063 
0.000000 0.000000 
-0.000000 -0.060720 
0.000000 0.000000 
0.013693 -0.061063 
0.034681 -0.065819 
0.016306 -0.112696 
0.020973 -0.141436 
0.008277 -0.158564 
0.007828 -0.156460 
0.011259 -0.154772 
0.000000 -0.156584 
0.003957 -0.156953 
0.003096 -0.160921 
0.006809 -0.132449 
0.005344 -0.147361 
0.000000 -0.132691 
-0.003096 -0.160921 
-0.003957 -0.156953 
-0.011259 -0.154772 
-0.007828 -0.156460 
-0.008277 -0.158564 
-0.005344 -0.147361 
-0.006809 -0.132449 
-0.014430 -0.151230 
-0.015862 -0.145447 
-0.024735 -0.112352 
-0.020713 -0.131119 
-0.027531 -0.127407 
-0.013804 -0.132222 
-0.008013 -0.112613 
-0.035958 -0.089809 
-0.026223 -0.089475 
-0.013570 -0.031320 
-0.023183 -0.062349 
-0.025976 -0.036862 
-0.016566 -0.088719 
-0.008020 -0.088393 
0.000000 0.000000 
-0.007784 -0.031062 
0.000000 -0.031081 
-0.003616 -0.031156 
0.000000 0.000000 
-0.006452 -0.060879 
0.000000 -0.088344 
0.000000 0.000000 
0.003616 -0.031156 
0.013570 -0.031320 
0.007784 -0.031062 
0.000000 0.000000 
0.006452 -0.060879 
0.008020 -0.088393 
0.025976 -0.036862 
0.023183 -0.062349 
0.024735 -0.112352 
0.026223 -0.089475 
0.035958 -0.089809 
0.016566 -0.088719 
0.008013 -0.112613 
0.027531 -0.127407 
0.020713 -0.131119 
0.015862 -0.145447 
0.014430 -0.151230 
0.013804 -0.132222 

CELL_DATA 128

SCALARS epsilon float 4
LOOKUP_TABLE default
-0.013591 0.030588 0.000000 0.001870
-0.018605 0.031169 0.000000 0.000694
-0.027283 0.073469 0.000000 0.005544
-0.027220 0.030291 0.000000 0.005708
-0.025071 0.026361 0.000000 0.003899
-0.032159 0.071243 0.000000 0.001374
-0.022894 0.031277 0.000000 0.001417
-0.032156 0.031222 0.000000 0.004986
-0.055953 0.143925 0.000000 -0.000836
-0.043798 0.112304 0.000000 0.004641
-0.043663 0.110392 0.000000 0.000080
-0.055870 0.112288 0.000000 0.005265
-0.031271 0.030917 0.000000 0.005908
-0.043607 0.073805 0.000000 0.005847
-0.043570 0.073164 0.000000 0.010536
-0.031347 0.073856 0.000000 0.003863
-0.025071 0.026361 0.000000 -0.003899
-0.022894 0.031277 0.000000 -0.001417
-0.032159 0.071243 0.000000 -0.001374
-0.032156 0.031222 0.000000 -0.004986
-0.013591 0.030588 0.000000 -0.001870
-0.027283 0.073469 0.000000 -0.005544
-0.018605 0.031169 0.000000 -0.000694
-0.027220 0.030291 0.000000 -0.005708
-0.055953 0.143925 0.000000 0.000836
-0.043663 0.110392 0.000000 -0.000080
-0.043798 0.112304 0.000000 -0.004641
-0.055870 0.112288 0.000000 -0.005265
-0.031271 0.030917 0.000000 -0.005908
-0.043570 0.073164 0.000000 -0.010536
-0.043607 0.073805 0.000000 -0.005847
-0.031347 0.073856 0.000000 -0.003863
-0.024110 0.038274 0.000000 -0.004264
-0.038822 0.077391 0.000000 -0.012284
-0.040950 0.072336 0.000000 -0.013466
-0.024073 0.073191 0.000000 -0.005619
-0.061995 0.133472 0.000000 -0.010969
-0.069158 0.139144 0.000000 -0.015765
-0.053304 0.107857 0.000000 -0.014148
-0.054708 0.140294 0.000000 -0.003854
-0.066063 0.146384 0.000000 -0.002993
-0.057201 0.111110 0.000000 -0.012132
-0.068380 0.144220 0.000000 -0.010810
-0.057463 0.146349 0.000000 -0.004222
-0.039899 0.109723 0.000000 -0.005645
-0.056469 0.144424 0.000000 -0.006598
-0.041476 0.111408 0.000000 -0.007318
-0.055795 0.108478 0.000000 -0.016377
-0.062559 0.146794 0.000000 -0.005285
-0.080823 0.174005 0.000000 0.004283
-0.069602 0.166699 0.000000 -0.005074
-0.080860 0.166642 0.000000 -0.007423
-0.080707 0.261830 0.000000 0.092101
-0.075881 0.219342 0.000000 0.035862
-0.092530 0.207748 0.000000 0.025814
-0.098793 0.222324 0.000000 0.023401
-0.066145 0.175495 0.000000 0.001960
-0.068540 0.173894 0.000000 -0.001358
-0.070431 0.197630 0.000000 0.010865
-0.070687 0.175489 0.000000 -0.001120
-0.095326 0.195116 0.000000 0.001674
-0.078366 0.197821 0.000000 0.007840
-0.080234 0.173899 0.000000 -0.003615
-0.079860 0.194351 0.000000 0.010291
0.003768 0.220427 0.000000 0.052101
0.001244 0.218847 0.000000 0.029902
-0.046477 0.212361 0.000000 0.023028
-0.043030 0.220609 0.000000 0.053806
0.000000 0.218958 0.000000 -0.000000
-0.029349 0.210034 0.000000 -0.000243
0.000268 0.219422 0.000000 0.013890
-0.029050 0.219436 0.000000 0.014062
-0.066211 0.179693 0.000000 -0.000163
-0.059526 0.196688 0.000000 0.005843
-0.052944 0.197374 0.000000 -0.000521
-0.066146 0.196676 0.000000 0.006325
-0.032602 0.218810 0.000000 0.031233
-0.052733 0.210583 0.000000 0.011004
-0.058723 0.212338 0.000000 0.023561
-0.033729 0.210545 0.000000 0.011602
0.000000 0.218958 0.000000 -0.000000
0.000268 0.219422 0.000000 -0.013890
-0.029349 0.210034 0.000000 0.000243
-0.029050 0.219436 0.000000 -0.014062
0.003768 0.220427 0.000000 -0.052101
-0.046477 0.212361 0.000000 -0.023028
0.001244 0.218847 0.000000 -0.029902
-0.043030 0.220609 0.000000 -0.053806
-0.066211 0.179693 0.000000 0.000163
-0.052944 0.197374 0.000000 0.000521
-0.059526 0.196688 0.000000 -0.005843
-0.066146 0.196676 0.000000 -0.006325
-0.032602 0.218810 0.000000 -0.031233
-0.058723 0.212338 0.000000 -0.023561
-0.052733 0.210583 0.000000 -0.011004
-0.033729 0.210545 0.000000 -0.011602
-0.080707 0.261830 0.000000 -0.092101
-0.092530 0.207748 0.000000 -0.025814
-0.075881 0.219342 0.000000 -0.035862
-0.098793 0.222324 0.000000 -0.023401
-0.062559 0.146794 0.000000 0.005285
-0.069602 0.166699 0.000000 0.005074
-0.080823 0.174005 0.000000 -0.004283
-0.080860 0.166642 0.000000 0.007423
-0.066145 0.175495 0.000000 -0.001960
-0.070431 0.197630 0.000000 -0.010865
-0.068540 0.173894 0.000000 0.001358
-0.070687 0.175489 0.000000 0.001120
-0.095326 0.195116 0.000000 -0.001674
-0.080234 0.173899 0.000000 0.003615
-0.078366 0.197821 0.000000 -0.007840
-0.079860 0.194351 0.000000 -0.010291
-0.061995 0.133472 0.000000 0.010969
-0.053304 0.107857 0.000000 0.014148
-0.069158 0.139144 0.000000 0.015765
-0.054708 0.140294 0.000000 0.003854
-0.024110 0.038274 0.000000 0.004264
-0.040950 0.072336 0.000000 0.013466
-0.038822 0.077391 0.000000 0.012284
-0.024073 0.073191 0.000000 0.005619
-0.066063 0.146384 0.000000 0.002993
-0.068380 0.144220 0.000000 0.010810
-0.057201 0.111110 0.000000 0.012132
-0.057463 0.146349 0.000000 0.004222
-0.039899 0.109723 0.000000 0.005645
-0.041476 0.111408 0.000000 0.007318
-0.056469 0.144424 0.000000 0.006598
-0.055795 0.108478 0.000000 0.016377

SCALARS sigma float 4
LOOKUP_TABLE default
-0.052807 0.692442 0.169976 0.016312
-0.176254 0.656461 0.125638 0.002043
0.012828 1.786868 0.461851 0.066887
-0.405368 0.545402 0.030708 0.083899
-0.387655 0.456779 0.012892 0.065883
-0.132049 1.666593 0.390834 0.026228
-0.284967 0.615311 0.083832 0.020118
-0.518895 0.518723 -0.009338 0.080589
-0.035694 3.676956 0.879721 -0.018675
-0.031955 2.797078 0.685061 0.065223
-0.046601 2.737603 0.667290 0.001667
-0.331965 2.663120 0.564182 0.076967
-0.500292 0.520291 -0.003541 0.091817
-0.394697 1.621205 0.301985 0.091874
-0.400364 1.605417 0.295947 0.160433
-0.086406 1.753682 0.425088 0.055134
-0.387655 0.456779 0.012892 -0.065883
-0.284967 0.615311 0.083832 -0.020118
-0.132049 1.666593 0.390834 -0.026228
-0.518895 0.518723 -0.009338 -0.080589
-0.052807 0.692442 0.169976 -0.016312
0.012828 1.786868 0.461851 -0.066887
-0.176254 0.656461 0.125638 -0.002043
-0.405368 0.545402 0.030708 -0.083899
-0.035694 3.676956 0.879721 0.018675
-0.046601 2.737603 0.667290 -0.001667
-0.031955 2.797078 0.685061 -0.065223
-0.331965 2.663120 0.564182 -0.076967
-0.500292 0.520291 -0.003541 -0.091817
-0.400364 1.605417 0.295947 -0.160433
-0.394697 1.621205 0.301985 -0.091874
-0.086406 1.753682 0.425088 -0.055134
-0.249363 0.800366 0.141644 -0.046647
-0.246959 1.787821 0.385691 -0.141959
-0.345110 1.612825 0.313866 -0.193782
0.091490 1.813757 0.491184 -0.044121
-0.286093 3.274408 0.714768 -0.108671
-0.403629 3.379026 0.699858 -0.232221
-0.316747 2.562550 0.545531 -0.153756
-0.040722 3.573045 0.855866 0.026509
-0.261268 3.643236 0.803205 -0.031605
-0.375712 2.615164 0.539092 -0.183124
-0.337124 3.548887 0.758401 -0.166593
-0.050463 3.740092 0.888867 -0.059684
0.039302 2.760504 0.698238 -0.013862
-0.044694 3.689371 0.879550 -0.075661
0.016939 2.796339 0.699318 -0.086270
-0.367869 2.553576 0.526837 -0.233638
-0.173448 3.697812 0.842344 -0.015264
-0.360609 4.395743 0.931817 0.055114
-0.158383 4.278979 0.970974 -0.067959
-0.428422 4.147477 0.857818 -0.120239
0.381188 7.799587 1.811233 1.126915
0.169442 6.074449 1.434613 0.495387
-0.339491 5.449483 1.152178 0.268286
-0.358861 5.890173 1.235310 0.150866
0.008277 4.616281 1.093509 0.046943
-0.065483 4.533987 1.053542 -0.023015
0.107956 5.334560 1.271999 0.154767
-0.103045 4.563276 1.048016 -0.026231
-0.509227 4.949042 0.997905 -0.080708
-0.084405 5.246354 1.194547 0.077569
-0.347109 4.398414 0.936648 -0.075162
-0.151926 5.108886 1.144911 0.131336
2.303748 7.104619 2.241954 0.854458
2.221305 6.966886 2.200906 0.490390
0.852508 6.152133 1.658834 0.350419
1.016833 6.555551 1.775782 0.830459
2.189583 6.931579 2.189583 -0.000000
1.286033 6.257914 1.806847 -0.006509
2.201298 6.956985 2.196900 0.227790
1.384808 6.606033 1.903854 0.221019
0.045608 4.759062 1.134821 -0.003911
0.370970 5.427763 1.371622 0.084062
0.544678 5.528495 1.444297 -0.013246
0.205348 5.349288 1.305297 0.095068
1.281888 6.561696 1.862079 0.497907
0.674667 6.002327 1.578500 0.165175
0.537396 6.005697 1.536148 0.356356
1.173194 6.227638 1.768156 0.186976
2.189583 6.931579 2.189583 -0.000000
2.201298 6.956985 2.196900 -0.227790
1.286033 6.257914 1.806847 0.006509
1.384808 6.606033 1.903854 -0.221019
2.303748 7.104619 2.241954 -0.854458
0.852508 6.152133 1.658834 -0.350419
2.221305 6.966886 2.200906 -0.490390
1.016833 6.555551 1.775782 -0.830459
0.045608 4.759062 1.134821 0.003911
0.544678 5.528495 1.444297 0.013246
0.370970 5.427763 1.371622 -0.084062
0.205348 5.349288 1.305297 -0.095068
1.281888 6.561696 1.862079 -0.497907
0.537396 6.005697 1.536148 -0.356356
0.674667 6.002327 1.578500 -0.165175
1.173194 6.227638 1.768156 -0.186976
0.381188 7.799587 1.811233 -1.126915
-0.339491 5.449483 1.152178 -0.268286
0.169442 6.074449 1.434613 -0.495387
-0.358861 5.890173 1.235310 -0.150866
-0.173448 3.697812 0.842344 0.015264
-0.158383 4.278979 0.970974 0.067959
-0.360609 4.395743 0.931817 -0.055114
-0.428422 4.147477 0.857818 0.120239
0.008277 4.616281 1.093509 -0.046943
0.107956 5.334560 1.271999 -0.154767
-0.065483 4.533987 1.053542 0.023015
-0.103045 4.563276 1.048016 0.026231
-0.509227 4.949042 0.997905 0.080708
-0.347109 4.398414 0.936648 0.075162
-0.084405 5.246354 1.194547 -0.077569
-0.151926 5.108886 1.144911 -0.131336
-0.286093 3.274408 0.714768 0.108671
-0.316747 2.562550 0.545531 0.153756
-0.403629 3.379026 0.699858 0.232221
-0.040722 3.573045 0.855866 -0.026509
-0.249363 0.800366 0.141644 0.046647
-0.345110 1.612825 0.313866 0.193782
-0.246959 1.787821 0.385691 0.141959
0.091490 1.813757 0.491184 0.044121
-0.261268 3.643236 0.803205 0.031605
-0.337124 3.548887 0.758401 0.166593
-0.375712 2.615164 0.539092 0.183124
-0.050463 3.740092 0.888867 0.059684
0.039302 2.760504 0.698238 0.013862
0.016939 2.796339 0.699318 0.086270
-0.044694 3.689371 0.879550 0.075661
-0.367869 2.553576 0.526837 0.233638

