# vtk DataFile Version 2.0
Unstructured Grid Example
ASCII
DATASET UNSTRUCTURED_GRID

POINTS 1089 float
0.005860 -0.151844 0.000000 
0.994140 -0.151844 0.000000 
1.000000 1.000000 0.000000 
0.000000 1.000000 0.000000 
0.500000 -0.162570 0.000000 
0.965882 0.389775 0.000000 
0.500000 1.000000 0.000000 
0.034118 0.389775 0.000000 
0.500000 0.386875 0.000000 
0.254351 -0.160917 0.000000 
0.500000 0.101254 0.000000 
0.261148 0.102230 0.000000 
0.745649 -0.160917 0.000000 
0.738852 0.102230 0.000000 
0.978951 0.110049 0.000000 
0.732963 0.386756 0.000000 
0.963670 0.683499 0.000000 
0.735478 0.688562 0.000000 
0.750000 1.000000 0.000000 
0.500000 0.688904 0.000000 
0.250000 1.000000 0.000000 
0.264522 0.688562 0.000000 
0.036330 0.683499 0.000000 
0.267037 0.386756 0.000000 
0.021049 0.110049 0.000000 
0.130324 -0.157596 0.000000 
0.257404 -0.032274 0.000000 
0.135485 -0.029341 0.000000 
0.500000 -0.033670 0.000000 
0.378838 -0.033427 0.000000 
0.377492 -0.162350 0.000000 
0.382325 0.241719 0.000000 
0.380652 0.101422 0.000000 
0.500000 0.241661 0.000000 
0.622508 -0.162350 0.000000 
0.621162 -0.033427 0.000000 
0.864515 -0.029341 0.000000 
0.742596 -0.032274 0.000000 
0.869676 -0.157596 0.000000 
0.619348 0.101422 0.000000 
0.617675 0.241719 0.000000 
0.986812 -0.023488 0.000000 
0.858712 0.104591 0.000000 
0.849140 0.387106 0.000000 
0.853262 0.243555 0.000000 
0.971640 0.247951 0.000000 
0.735359 0.242064 0.000000 
0.616618 0.386890 0.000000 
0.962570 0.534862 0.000000 
0.847632 0.535026 0.000000 
0.859962 0.843138 0.000000 
0.850489 0.687204 0.000000 
0.972159 0.836304 0.000000 
0.732685 0.535824 0.000000 
0.616695 0.536229 0.000000 
0.875000 1.000000 0.000000 
0.741705 0.843771 0.000000 
0.500000 0.843692 0.000000 
0.621210 0.843722 0.000000 
0.625000 1.000000 0.000000 
0.618244 0.688847 0.000000 
0.500000 0.536345 0.000000 
0.375000 1.000000 0.000000 
0.378790 0.843722 0.000000 
0.140038 0.843138 0.000000 
0.258295 0.843771 0.000000 
0.125000 1.000000 0.000000 
0.381756 0.688847 0.000000 
0.383305 0.536229 0.000000 
0.027841 0.836304 0.000000 
0.149511 0.687204 0.000000 
0.150860 0.387106 0.000000 
0.152368 0.535026 0.000000 
0.037430 0.534862 0.000000 
0.267315 0.535824 0.000000 
0.383382 0.386890 0.000000 
0.028360 0.247951 0.000000 
0.146738 0.243555 0.000000 
0.141288 0.104591 0.000000 
0.013188 -0.023488 0.000000 
0.264641 0.242064 0.000000 
0.068089 -0.154973 0.000000 
0.132766 -0.094228 0.000000 
0.071082 -0.091670 0.000000 
0.255717 -0.097366 0.000000 
0.194319 -0.096093 0.000000 
0.192441 -0.159551 0.000000 
0.198870 0.035335 0.000000 
0.196511 -0.031099 0.000000 
0.259255 0.034280 0.000000 
0.500000 -0.098903 0.000000 
0.439049 -0.098875 0.000000 
0.438795 -0.162605 0.000000 
0.439876 0.033115 0.000000 
0.439433 -0.033625 0.000000 
0.500000 0.033070 0.000000 
0.316027 -0.161813 0.000000 
0.378055 -0.098654 0.000000 
0.316956 -0.098180 0.000000 
0.441465 0.313740 0.000000 
0.441157 0.241680 0.000000 
0.500000 0.313719 0.000000 
0.320933 0.101703 0.000000 
0.381536 0.170923 0.000000 
0.322280 0.171118 0.000000 
0.500000 0.170810 0.000000 
0.440770 0.170837 0.000000 
0.440333 0.101291 0.000000 
0.318173 -0.033009 0.000000 
0.379731 0.033283 0.000000 
0.319534 0.033640 0.000000 
0.561205 -0.162605 0.000000 
0.560951 -0.098875 0.000000 
0.683044 -0.098180 0.000000 
0.621945 -0.098654 0.000000 
0.683973 -0.161813 0.000000 
0.560567 -0.033625 0.000000 
0.560124 0.033115 0.000000 
0.928918 -0.091670 0.000000 
0.867234 -0.094228 0.000000 
0.931911 -0.154973 0.000000 
0.740745 0.034280 0.000000 
0.803489 -0.031099 0.000000 
0.801130 0.035335 0.000000 
0.807559 -0.159551 0.000000 
0.805681 -0.096093 0.000000 
0.744283 -0.097366 0.000000 
0.558843 0.241680 0.000000 
0.558535 0.313740 0.000000 
0.559667 0.101291 0.000000 
0.559230 0.170837 0.000000 
0.677720 0.171118 0.000000 
0.618464 0.170923 0.000000 
0.679067 0.101703 0.000000 
0.681827 -0.033009 0.000000 
0.680466 0.033640 0.000000 
0.620269 0.033283 0.000000 
0.990647 -0.088389 0.000000 
0.925650 -0.026857 0.000000 
0.918800 0.106810 0.000000 
0.922232 0.039341 0.000000 
0.982870 0.042694 0.000000 
0.861631 0.036961 0.000000 
0.798728 0.103135 0.000000 
0.907378 0.387942 0.000000 
0.909648 0.316082 0.000000 
0.968489 0.318386 0.000000 
0.792435 0.314117 0.000000 
0.850973 0.314778 0.000000 
0.791040 0.386801 0.000000 
0.975169 0.178490 0.000000 
0.912387 0.245241 0.000000 
0.915478 0.175466 0.000000 
0.617039 0.313736 0.000000 
0.558329 0.386934 0.000000 
0.737022 0.171511 0.000000 
0.676507 0.241820 0.000000 
0.674833 0.386814 0.000000 
0.675514 0.313743 0.000000 
0.733968 0.313832 0.000000 
0.855882 0.173476 0.000000 
0.794264 0.242581 0.000000 
0.796401 0.172236 0.000000 
0.963771 0.461868 0.000000 
0.905737 0.460806 0.000000 
0.905303 0.609608 0.000000 
0.904966 0.534687 0.000000 
0.962439 0.608730 0.000000 
0.847964 0.460527 0.000000 
0.790269 0.460599 0.000000 
0.926470 0.920879 0.000000 
0.916946 0.841311 0.000000 
0.981392 0.915463 0.000000 
0.793329 0.688113 0.000000 
0.854274 0.764794 0.000000 
0.796699 0.765642 0.000000 
0.966685 0.759265 0.000000 
0.910726 0.762831 0.000000 
0.907069 0.685626 0.000000 
0.616487 0.461090 0.000000 
0.558270 0.461161 0.000000 
0.732499 0.460780 0.000000 
0.674575 0.460958 0.000000 
0.675633 0.612055 0.000000 
0.674818 0.536075 0.000000 
0.733647 0.611795 0.000000 
0.848379 0.610591 0.000000 
0.791228 0.611332 0.000000 
0.790268 0.535462 0.000000 
0.937500 1.000000 0.000000 
0.867269 0.921717 0.000000 
0.745751 0.921820 0.000000 
0.806765 0.921844 0.000000 
0.812500 1.000000 0.000000 
0.801293 0.843659 0.000000 
0.738198 0.765956 0.000000 
0.500000 0.921686 0.000000 
0.561548 0.921691 0.000000 
0.562500 1.000000 0.000000 
0.559841 0.766063 0.000000 
0.560645 0.843694 0.000000 
0.500000 0.766072 0.000000 
0.687500 1.000000 0.000000 
0.623055 0.921720 0.000000 
0.684478 0.921768 0.000000 
0.558390 0.536311 0.000000 
0.500000 0.461176 0.000000 
0.677060 0.688764 0.000000 
0.617276 0.612191 0.000000 
0.500000 0.612291 0.000000 
0.558693 0.612259 0.000000 
0.559181 0.688882 0.000000 
0.681606 0.843760 0.000000 
0.619575 0.766065 0.000000 
0.679081 0.766050 0.000000 
0.437500 1.000000 0.000000 
0.438452 0.921691 0.000000 
0.315522 0.921768 0.000000 
0.376945 0.921720 0.000000 
0.312500 1.000000 0.000000 
0.439355 0.843694 0.000000 
0.440159 0.766063 0.000000 
0.073530 0.920879 0.000000 
0.132731 0.921717 0.000000 
0.062500 1.000000 0.000000 
0.261802 0.765956 0.000000 
0.198707 0.843659 0.000000 
0.203301 0.765642 0.000000 
0.187500 1.000000 0.000000 
0.193235 0.921844 0.000000 
0.254249 0.921820 0.000000 
0.441610 0.536311 0.000000 
0.441730 0.461161 0.000000 
0.440819 0.688882 0.000000 
0.441307 0.612259 0.000000 
0.324367 0.612055 0.000000 
0.382724 0.612191 0.000000 
0.322940 0.688764 0.000000 
0.318394 0.843760 0.000000 
0.320919 0.766050 0.000000 
0.380425 0.766065 0.000000 
0.018608 0.915463 0.000000 
0.083054 0.841311 0.000000 
0.092931 0.685626 0.000000 
0.089274 0.762831 0.000000 
0.033315 0.759265 0.000000 
0.145726 0.764794 0.000000 
0.206671 0.688113 0.000000 
0.092622 0.387942 0.000000 
0.094263 0.460806 0.000000 
0.036229 0.461868 0.000000 
0.209731 0.460599 0.000000 
0.152036 0.460527 0.000000 
0.208960 0.386801 0.000000 
0.037561 0.608730 0.000000 
0.095034 0.534687 0.000000 
0.094697 0.609608 0.000000 
0.383513 0.461090 0.000000 
0.441671 0.386934 0.000000 
0.266353 0.611795 0.000000 
0.325182 0.536075 0.000000 
0.325167 0.386814 0.000000 
0.325425 0.460958 0.000000 
0.267501 0.460780 0.000000 
0.151621 0.610591 0.000000 
0.209732 0.535462 0.000000 
0.208772 0.611332 0.000000 
0.031511 0.318386 0.000000 
0.090352 0.316082 0.000000 
0.084522 0.175466 0.000000 
0.087613 0.245241 0.000000 
0.024831 0.178490 0.000000 
0.149027 0.314778 0.000000 
0.207565 0.314117 0.000000 
0.074350 -0.026857 0.000000 
0.009353 -0.088389 0.000000 
0.201272 0.103135 0.000000 
0.138369 0.036961 0.000000 
0.017130 0.042694 0.000000 
0.077768 0.039341 0.000000 
0.081200 0.106810 0.000000 
0.382961 0.313736 0.000000 
0.266032 0.313832 0.000000 
0.324486 0.313743 0.000000 
0.323493 0.241820 0.000000 
0.262978 0.171511 0.000000 
0.144118 0.173476 0.000000 
0.203599 0.172236 0.000000 
0.205736 0.242581 0.000000 
0.036972 -0.153434 0.000000 
0.069549 -0.123515 0.000000 
0.038539 -0.121976 0.000000 
0.131504 -0.126110 0.000000 
0.100540 -0.124900 0.000000 
0.099213 -0.156368 0.000000 
0.103405 -0.060801 0.000000 
0.101938 -0.093039 0.000000 
0.134097 -0.061967 0.000000 
0.254981 -0.129340 0.000000 
0.224179 -0.128747 0.000000 
0.223425 -0.160300 0.000000 
0.225976 -0.064459 0.000000 
0.225038 -0.096795 0.000000 
0.256531 -0.065008 0.000000 
0.161404 -0.158654 0.000000 
0.193330 -0.128021 0.000000 
0.162437 -0.127147 0.000000 
0.230152 0.068517 0.000000 
0.229077 0.034747 0.000000 
0.260203 0.068085 0.000000 
0.166014 -0.030302 0.000000 
0.197678 0.001943 0.000000 
0.167311 0.002709 0.000000 
0.258317 0.000825 0.000000 
0.228013 0.001321 0.000000 
0.226974 -0.031750 0.000000 
0.163561 -0.095242 0.000000 
0.195385 -0.063781 0.000000 
0.164759 -0.062956 0.000000 
0.500000 -0.130936 0.000000 
0.469451 -0.130962 0.000000 
0.469404 -0.162635 0.000000 
0.469616 -0.066476 0.000000 
0.469525 -0.098910 0.000000 
0.500000 -0.066479 0.000000 
0.408160 -0.162510 0.000000 
0.438899 -0.130931 0.000000 
0.408331 -0.130843 0.000000 
0.470053 0.066995 0.000000 
0.469939 0.033080 0.000000 
0.500000 0.066986 0.000000 
0.409142 -0.033549 0.000000 
0.439650 -0.000438 0.000000 
0.409469 -0.000367 0.000000 
0.500000 -0.000484 0.000000 
0.469826 -0.000475 0.000000 
0.469717 -0.033663 0.000000 
0.285218 -0.161416 0.000000 
0.316445 -0.130193 0.000000 
0.285736 -0.129817 0.000000 
0.377737 -0.130696 0.000000 
0.347110 -0.130482 0.000000 
0.346783 -0.162120 0.000000 
0.347996 -0.066041 0.000000 
0.347521 -0.098453 0.000000 
0.378427 -0.066229 0.000000 
0.439231 -0.066439 0.000000 
0.408836 -0.066359 0.000000 
0.408562 -0.098792 0.000000 
[...]
POINT_DATA 1089

SCALARS u_h float 2
LOOKUP_TABLE default
0.005860 -0.151844 
-0.005860 -0.151844 
0.000000 0.000000 
0.000000 0.000000 
-0.000000 -0.162570 
-0.034118 -0.110225 
0.000000 0.000000 
0.034118 -0.110225 
-0.000000 -0.113125 
0.004351 -0.160917 
-0.000000 -0.148746 
0.011148 -0.147770 
-0.004351 -0.160917 
-0.011148 -0.147770 
-0.021049 -0.139951 
-0.017037 -0.113244 
-0.036330 -0.066501 
-0.014522 -0.061438 
0.000000 0.000000 
-0.000000 -0.061096 
0.000000 0.000000 
0.014522 -0.061438 
0.036330 -0.066501 
0.017037 -0.113244 
0.021049 -0.139951 
0.005324 -0.157596 
0.007404 -0.157274 
0.010485 -0.154341 
-0.000000 -0.158670 
0.003838 -0.158427 
0.002492 -0.162350 
0.007325 -0.133281 
0.005652 -0.148578 
-0.000000 -0.133339 
-0.002492 -0.162350 
-0.003838 -0.158427 
-0.010485 -0.154341 
-0.007404 -0.157274 
-0.005324 -0.157596 
-0.005652 -0.148578 
-0.007325 -0.133281 
-0.013188 -0.148488 
-0.016288 -0.145409 
-0.025860 -0.112894 
-0.021738 -0.131445 
-0.028360 -0.127049 
-0.014641 -0.132936 
-0.008382 -0.113110 
-0.037430 -0.090138 
-0.027368 -0.089974 
-0.015038 -0.031862 
-0.024511 -0.062796 
-0.027841 -0.038696 
-0.017315 -0.089176 
-0.008305 -0.088771 
0.000000 0.000000 
-0.008295 -0.031229 
-0.000000 -0.031308 
-0.003790 -0.031278 
0.000000 0.000000 
-0.006756 -0.061153 
-0.000000 -0.088655 
0.000000 0.000000 
0.003790 -0.031278 
0.015038 -0.031862 
0.008295 -0.031229 
0.000000 0.000000 
0.006756 -0.061153 
0.008305 -0.088771 
0.027841 -0.038696 
0.024511 -0.062796 
0.025860 -0.112894 
0.027368 -0.089974 
0.037430 -0.090138 
0.017315 -0.089176 
0.008382 -0.113110 
0.028360 -0.127049 
0.021738 -0.131445 
0.016288 -0.145409 
0.013188 -0.148488 
0.014641 -0.132936 
0.005589 -0.154973 
0.007766 -0.156728 
0.008582 -0.154170 
0.005717 -0.159866 
0.006819 -0.158593 
0.004941 -0.159551 
0.011370 -0.152165 
0.009011 -0.156099 
0.009255 -0.153220 
-0.000000 -0.161403 
0.001549 -0.161375 
0.001295 -0.162605 
0.002376 -0.154385 
0.001933 -0.158625 
-0.000000 -0.154430 
0.003527 -0.161813 
0.003055 -0.161154 
0.004456 -0.160680 
0.003965 -0.123760 
0.003657 -0.133320 
-0.000000 -0.123781 
0.008433 -0.148297 
0.006536 -0.141577 
0.009780 -0.141382 
-0.000000 -0.141690 
0.003270 -0.141663 
0.002833 -0.148709 
0.005673 -0.158009 
0.004731 -0.154217 
0.007034 -0.153860 
-0.001295 -0.162605 
-0.001549 -0.161375 
-0.004456 -0.160680 
-0.003055 -0.161154 
-0.003527 -0.161813 
-0.001933 -0.158625 
-0.002376 -0.154385 
-0.008582 -0.154170 
-0.007766 -0.156728 
-0.005589 -0.154973 
-0.009255 -0.153220 
-0.009011 -0.156099 
-0.011370 -0.152165 
-0.004941 -0.159551 
-0.006819 -0.158593 
-0.005717 -0.159866 
-0.003657 -0.133320 
-0.003965 -0.123760 
-0.002833 -0.148709 
-0.003270 -0.141663 
-0.009780 -0.141382 
-0.006536 -0.141577 
-0.008433 -0.148297 
-0.005673 -0.158009 
-0.007034 -0.153860 
-0.004731 -0.154217 
-0.009353 -0.150889 
-0.011850 -0.151857 
-0.018700 -0.143190 
-0.015268 -0.148159 
-0.017130 -0.144806 
-0.013369 -0.150539 
-0.013772 -0.146865 
-0.030122 -0.112058 
-0.027852 -0.121418 
-0.031511 -0.119114 
-0.020065 -0.123383 
-0.024027 -0.122722 
-0.021460 -0.113199 
-0.024831 -0.134010 
-0.025113 -0.129759 
-0.022022 -0.137034 
-0.007961 -0.123764 
-0.004171 -0.113066 
-0.012978 -0.140989 
-0.010993 -0.133180 
-0.012667 -0.113186 
-0.011986 -0.123757 
-0.016032 -0.123668 
-0.019118 -0.139024 
-0.018236 -0.132419 
-0.016099 -0.140264 
-0.036229 -0.100632 
-0.031763 -0.101694 
-0.032197 -0.077892 
-0.032534 -0.090313 
-0.037561 -0.078770 
-0.027036 -0.101973 
-0.022231 -0.101901 
-0.011030 -0.016621 
-0.020554 -0.033689 
-0.018608 -0.022037 
-0.019171 -0.061887 
-0.020726 -0.047706 
-0.015801 -0.046858 
-0.033315 -0.053235 
-0.026774 -0.049669 
-0.030431 -0.064374 
-0.008513 -0.101410 
-0.004230 -0.101339 
-0.017501 -0.101720 
-0.012925 -0.101542 
-0.011867 -0.075445 
-0.012682 -0.088925 
-0.016353 -0.075705 
-0.026621 -0.076909 
-0.021272 -0.076168 
-0.022232 -0.089538 
0.000000 0.000000 
-0.007731 -0.015783 
-0.004249 -0.015680 
-0.005735 -0.015656 
0.000000 0.000000 
-0.011207 -0.031341 
-0.011802 -0.046544 
0.000000 -0.015814 
-0.000952 -0.015809 
0.000000 0.000000 
-0.002659 -0.046437 
-0.001855 -0.031306 
-0.000000 -0.046428 
0.000000 0.000000 
-0.001945 -0.015780 
-0.003022 -0.015732 
-0.004110 -0.088689 
-0.000000 -0.101324 
-0.010440 -0.061236 
-0.007724 -0.075309 
-0.000000 -0.075209 
-0.003807 -0.075241 
-0.003319 -0.061118 
-0.005894 -0.031240 
-0.005425 -0.046435 
-0.008419 -0.046450 
0.000000 0.000000 
0.000952 -0.015809 
0.003022 -0.015732 
0.001945 -0.015780 
0.000000 0.000000 
0.001855 -0.031306 
0.002659 -0.046437 
0.011030 -0.016621 
0.007731 -0.015783 
0.000000 0.000000 
0.011802 -0.046544 
0.011207 -0.031341 
0.015801 -0.046858 
0.000000 0.000000 
0.005735 -0.015656 
0.004249 -0.015680 
0.004110 -0.088689 
0.004230 -0.101339 
0.003319 -0.061118 
0.003807 -0.075241 
0.011867 -0.075445 
0.007724 -0.075309 
0.010440 -0.061236 
0.005894 -0.031240 
0.008419 -0.046450 
0.005425 -0.046435 
0.018608 -0.022037 
0.020554 -0.033689 
0.030431 -0.064374 
0.026774 -0.049669 
0.033315 -0.053235 
0.020726 -0.047706 
0.019171 -0.061887 
0.030122 -0.112058 
0.031763 -0.101694 
0.036229 -0.100632 
0.022231 -0.101901 
0.027036 -0.101973 
0.021460 -0.113199 
0.037561 -0.078770 
0.032534 -0.090313 
0.032197 -0.077892 
0.008513 -0.101410 
0.004171 -0.113066 
0.016353 -0.075705 
0.012682 -0.088925 
0.012667 -0.113186 
0.012925 -0.101542 
0.017501 -0.101720 
0.026621 -0.076909 
0.022232 -0.089538 
0.021272 -0.076168 
0.031511 -0.119114 
0.027852 -0.121418 
0.022022 -0.137034 
0.025113 -0.129759 
0.024831 -0.134010 
0.024027 -0.122722 
0.020065 -0.123383 
0.011850 -0.151857 
0.009353 -0.150889 
0.013772 -0.146865 
0.013369 -0.150539 
0.017130 -0.144806 
0.015268 -0.148159 
0.018700 -0.143190 
0.007961 -0.123764 
0.016032 -0.123668 
0.011986 -0.123757 
0.010993 -0.133180 
0.012978 -0.140989 
0.019118 -0.139024 
0.016099 -0.140264 
0.018236 -0.132419 
0.005722 -0.153434 
0.007049 -0.154765 
0.007289 -0.153226 
0.006504 -0.157360 
0.006790 -0.156150 
0.005463 -0.156368 
0.009655 -0.154551 
0.008188 -0.155539 
0.009097 -0.155717 
0.004981 -0.160590 
0.005429 -0.159997 
0.004675 -0.160300 
0.007226 -0.158209 
0.006288 -0.159295 
0.006531 -0.158758 
0.005154 -0.158654 
0.005830 -0.159271 
0.006187 -0.158397 
0.011402 -0.150233 
0.010327 -0.152753 
0.010203 -0.150665 
0.009764 -0.155302 
0.010178 -0.154307 
0.011061 -0.153541 
0.008317 -0.155425 
0.009263 -0.154929 
0.008224 -0.156750 
0.007311 -0.157742 
0.007885 -0.157531 
0.008509 -0.156706 
-0.000000 -0.162186 
0.000701 -0.162212 
0.000654 -0.162635 
0.000866 -0.160226 
0.000775 -0.161410 
-0.000000 -0.160229 
0.001910 -0.162510 
0.001399 -0.162181 
0.002081 -0.162093 
0.001303 -0.151755 
0.001189 -0.154420 
-0.000000 -0.151764 
0.002892 -0.158549 
0.002150 -0.156688 
0.003219 -0.156617 
-0.000000 -0.156734 
0.001076 -0.156725 
0.000967 -0.158663 
0.003968 -0.161416 
0.003945 -0.161443 
0.004486 -0.161067 
0.002737 -0.161946 
0.003360 -0.161732 
0.003033 -0.162120 
0.004246 -0.159791 
0.003771 -0.160953 
0.003427 -0.159979 
0.001731 -0.160189 
0.002586 -0.160109 
0.002312 -0.161292 
0.002033 -0.118557 
0.001977 -0.123767 
-0.000000 -0.118582 
0.005490 -0.133305 
0.003823 -0.128687 
0.005742 -0.128680 
-0.000000 -0.128705 
0.001908 -0.128695 
0.001827 -0.133331 
0.009800 -0.148072 
0.009118 -0.145005 
0.010607 -0.144809 
0.006102 -0.145244 
0.007615 -0.145146 
0.007048 -0.148462 
0.008680 -0.137527 
0.008162 -0.141498 
0.006946 -0.137586 
-0.000000 -0.145385 
0.001528 -0.145377 
0.001417 -0.148737 
0.001735 -0.137664 
0.001635 -0.141682 
-0.000000 -0.137672 
0.004245 -0.148658 
0.003056 -0.145353 
0.004581 -0.145310 
0.005209 -0.137624 
0.004905 -0.141629 
0.003472 -0.137649 
0.005106 -0.160323 
0.004767 -0.158251 
0.005039 -0.159533 
0.005802 -0.159194 
0.006553 -0.157688 
0.002605 -0.151723 
0.005192 -0.151572 
0.003902 -0.151664 
0.003558 -0.154320 
0.004276 -0.156504 
0.008980 -0.150999 
0.007343 -0.155815 
0.008156 -0.153583 
0.007734 -0.151252 
0.006470 -0.151438 
0.005319 -0.156341 
0.005891 -0.154067 
0.006342 -0.156115 
-0.000654 -0.162635 
-0.000701 -0.162212 
-0.002081 -0.162093 
-0.001399 -0.162181 
-0.001910 -0.162510 
-0.000775 -0.161410 
-0.000866 -0.160226 
-0.004486 -0.161067 
-0.003945 -0.161443 
-0.003968 -0.161416 
-0.003427 -0.159979 
-0.003771 -0.160953 
-0.004246 -0.159791 
-0.003033 -0.162120 
-0.003360 -0.161732 
-0.002737 -0.161946 
-0.001189 -0.154420 
-0.001303 -0.151755 
-0.000967 -0.158663 
-0.001076 -0.156725 
-0.003219 -0.156617 
-0.002150 -0.156688 
-0.002892 -0.158549 
-0.002312 -0.161292 
-0.002586 -0.160109 
-0.001731 -0.160189 
-0.007289 -0.153226 
-0.007049 -0.154765 
-0.005722 -0.153434 
-0.009097 -0.155717 
-0.008188 -0.155539 
-0.009655 -0.154551 
-0.005463 -0.156368 
-0.006790 -0.156150 
-0.006504 -0.157360 
-0.010203 -0.150665 
-0.010327 -0.152753 
-0.011402 -0.150233 
-0.008224 -0.156750 
-0.009263 -0.154929 
-0.008317 -0.155425 
-0.011061 -0.153541 
-0.010178 -0.154307 
-0.009764 -0.155302 
-0.004675 -0.160300 
-0.005429 -0.159997 
-0.004981 -0.160590 
-0.006187 -0.158397 
-0.005830 -0.159271 
-0.005154 -0.158654 
-0.006531 -0.158758 
-0.006288 -0.159295 
-0.007226 -0.158209 
-0.008509 -0.156706 
-0.007885 -0.157531 
-0.007311 -0.157742 
-0.001977 -0.123767 
-0.002033 -0.118557 
-0.001827 -0.133331 
-0.001908 -0.128695 
-0.005742 -0.128680 
-0.003823 -0.128687 
-0.005490 -0.133305 
-0.001417 -0.148737 
-0.001528 -0.145377 
-0.004581 -0.145310 
-0.003056 -0.145353 
-0.004245 -0.148658 
-0.001635 -0.141682 
-0.001735 -0.137664 
-0.010607 -0.144809 
-0.009118 -0.145005 
-0.009800 -0.148072 
-0.006946 -0.137586 
-0.008162 -0.141498 
-0.008680 -0.137527 
-0.007048 -0.148462 
-0.007615 -0.145146 
-0.006102 -0.145244 
-0.003472 -0.137649 
-0.004905 -0.141629 
-0.005209 -0.137624 
-0.005106 -0.160323 
-0.006553 -0.157688 
-0.005802 -0.159194 
-0.005039 -0.159533 
-0.004767 -0.158251 
-0.008980 -0.150999 
-0.006470 -0.151438 
-0.007734 -0.151252 
-0.008156 -0.153583 
-0.007343 -0.155815 
-0.002605 -0.151723 
-0.004276 -0.156504 
-0.003558 -0.154320 
-0.003902 -0.151664 
-0.005192 -0.151572 
-0.006342 -0.156115 
-0.005891 -0.154067 
-0.005319 -0.156341 
-0.007532 -0.151563 
-0.008960 -0.152622 
-0.012513 -0.150295 
-0.010711 -0.151637 
-0.011248 -0.149857 
-0.010188 -0.153195 
-0.011178 -0.153199 
-0.019878 -0.141716 
-0.018046 -0.144315 
-0.019100 -0.142519 
-0.015921 -0.147091 
-0.016990 -0.145827 
-0.017505 -0.144410 
-0.015154 -0.146799 
-0.016198 -0.146620 
-0.014348 -0.148618 
-0.012573 -0.149682 
-0.012473 -0.147375 
-0.011915 -0.152611 
-0.012384 -0.151434 
-0.015044 -0.146218 
-0.013717 -0.148990 
-0.014832 -0.148135 
-0.013549 -0.150173 
-0.014328 -0.149456 
-0.012742 -0.151496 
-0.032161 -0.111310 
-0.030998 -0.115978 
-0.032900 -0.114787 
-0.027054 -0.117500 
-0.029052 -0.116862 
-0.028017 -0.112565 
-0.029991 -0.123201 
-0.029701 -0.120414 
-0.028280 -0.124608 
-0.018709 -0.118542 
-0.020825 -0.118432 
-0.019245 -0.113242 
-0.022932 -0.127224 
-0.022060 -0.123114 
-0.021078 -0.127702 
-0.023669 -0.113093 
-0.022929 -0.118243 
-0.025009 -0.117945 
-0.022965 -0.137112 
-0.023436 -0.135671 
-0.021680 -0.138831 
-0.026751 -0.128553 
-0.025131 -0.132243 
-0.026635 -0.130654 
-0.022048 -0.134566 
-0.023604 -0.133533 
-0.023443 -0.130709 
-0.025961 -0.122171 
-0.024752 -0.126576 
-0.026535 -0.125718 
-0.004082 -0.118549 
-0.002084 -0.113071 
-0.007666 -0.128670 
-0.005959 -0.123760 
-0.006269 -0.113082 
-0.006137 -0.118557 
-0.008202 -0.118574 
-0.012077 -0.144543 
-0.011387 -0.141218 
-0.012821 -0.133083 
-0.012129 -0.137307 
-0.013837 -0.137118 
-0.010409 -0.137438 
-0.009160 -0.133242 
-0.014842 -0.113221 
-0.014476 -0.118615 
-0.016590 -0.118597 
-0.010280 -0.118594 
-0.012371 -0.118610 
-0.010514 -0.113147 
-0.015377 -0.128450 
-0.014008 -0.123729 
-0.013452 -0.128554 
-0.009593 -0.128652 
-0.011522 -0.128617 
-0.009970 -0.123766 
-0.020382 -0.140256 
-0.020461 -0.135380 
-0.020584 -0.138139 
-0.019064 -0.141423 
-0.017721 -0.142369 
-0.018053 -0.123560 
-0.016447 -0.132722 
-0.017294 -0.128288 
-0.019197 -0.128047 
-0.020001 -0.132003 
-0.013527 -0.144188 
-0.016351 -0.143126 
-0.014952 -0.143723 
-0.014550 -0.140678 
-0.015528 -0.136854 
-0.018844 -0.136012 
-0.017199 -0.136493 
-0.017622 -0.139721 
-0.035287 -0.105546 
-0.033202 -0.106422 
-0.034658 -0.095931 
-0.034040 -0.101296 
-0.036949 -0.095495 
-0.031039 -0.107003 
-0.028812 -0.107365 
-0.034390 -0.072031 
-0.034939 -0.078385 
-0.037138 -0.072752 
-0.029965 -0.090175 
-0.032521 -0.084236 
-0.029840 -0.083913 
-0.037645 -0.084563 
-0.035140 -0.084481 
-0.035035 -0.090328 
-0.021931 -0.107686 
-0.019627 -0.107663 
-0.026540 -0.107569 
-0.024240 -0.107664 
-0.024822 -0.095990 
-0.024632 -0.101962 
-0.027322 -0.096108 
-0.032270 -0.096132 
-0.029814 -0.096170 
-0.029421 -0.101900 
-0.006949 -0.008795 
-0.014109 -0.018234 
-0.011523 -0.012129 
-0.017530 -0.032512 
-0.016226 -0.025245 
-0.013559 -0.024268 
-0.023828 -0.030735 
-0.019729 -0.027211 
-0.024095 -0.035668 
-0.016765 -0.061620 
-0.017648 -0.054452 
-0.015369 -0.054211 
-0.022847 -0.055365 
-0.020135 -0.054821 
-0.021752 -0.062269 
-0.015730 -0.039400 
-0.018127 -0.047185 
-0.018122 -0.039854 
-0.035079 -0.060004 
-0.032031 -0.058487 
-0.033441 -0.065404 
-0.027479 -0.043662 
-0.030078 -0.051252 
-0.030944 -0.046155 
-0.027423 -0.063495 
-0.028875 -0.057177 
-0.025778 -0.056137 
-0.020884 -0.040618 
-0.023618 -0.048506 
-0.024036 -0.041840 
-0.004223 -0.107325 
-0.002116 -0.107322 
-0.008486 -0.107384 
-0.006344 -0.107347 
-0.006309 -0.095153 
-0.006359 -0.101366 
-0.008454 -0.095201 
-0.017342 -0.107615 
-0.015082 -0.107554 
-0.015156 -0.095450 
-0.015192 -0.101627 
-0.017498 -0.095570 
-0.012853 -0.107492 
-0.010655 -0.107434 
-0.013335 -0.068521 
-0.014061 -0.075555 
-0.015550 -0.068662 
-0.010466 -0.088837 
-0.012350 -0.082285 
-0.010174 -0.082198 
-0.016938 -0.082549 
-0.014601 -0.082400 
-0.014964 -0.089037 
-0.010699 -0.101469 
-0.012871 -0.095349 
-0.010639 -0.095266 
-0.031518 -0.071275 
-0.025755 -0.069981 
-0.028613 -0.070577 
-0.029403 -0.077382 
-0.027146 -0.083574 
-0.017893 -0.068860 
-0.019366 -0.082739 
-0.018756 -0.075906 
-0.020374 -0.069134 
-0.022999 -0.069502 
-0.019850 -0.101815 
-0.024781 -0.089753 
-0.022340 -0.095849 
-0.019894 -0.095705 
-0.019739 -0.089343 
-0.023899 -0.076501 
-0.021884 -0.082974 
-0.024484 -0.083255 
0.000000 0.000000 
-0.005391 -0.008147 
-0.003820 -0.007845 
-0.004476 -0.007927 
0.000000 0.000000 
-0.009113 -0.016027 
-0.011532 -0.023809 
-0.002128 -0.007854 
-0.002474 -0.007836 
0.000000 0.000000 
-0.007368 -0.023472 
-0.004949 -0.015660 
-0.006319 -0.023474 
0.000000 0.000000 
-0.002859 -0.007822 
-0.003298 -0.007821 
-0.013707 -0.046660 
-0.013270 -0.054057 
-0.012969 -0.031517 
-0.013644 -0.039140 
-0.010135 -0.038926 
-0.011797 -0.038998 
-0.009669 -0.031259 
-0.006643 -0.015685 
-0.008547 -0.023502 
-0.009907 -0.023595 
0.000000 -0.007945 
-0.000238 -0.007945 
0.000000 0.000000 
-0.000703 -0.023605 
-0.000473 -0.015815 
-0.000000 -0.023604 
0.000000 0.000000 
-0.000479 -0.007941 
-0.000725 -0.007934 
-0.001497 -0.053833 
-0.001323 -0.046435 
-0.000000 -0.053825 
-0.002808 -0.031294 
-0.002273 -0.038922 
-0.003438 -0.038914 
-0.000000 -0.038919 
-0.001130 -0.038924 
-0.000923 -0.031311 
0.000000 0.000000 
-0.001518 -0.007892 
-0.001812 -0.007874 
-0.000978 -0.007923 
-0.001241 -0.007909 
0.000000 0.000000 
-0.003667 -0.023543 
-0.002469 -0.015758 
-0.002887 -0.023567 
-0.001413 -0.023599 
-0.002138 -0.023586 
-0.001441 -0.015797 
-0.002115 -0.101326 
-0.000000 -0.107337 
-0.006191 -0.088722 
-0.004192 -0.095122 
-0.000000 -0.095094 
-0.002094 -0.095103 
-0.002050 -0.088668 
-0.012421 -0.061316 
-0.011231 -0.068423 
-0.007288 -0.068309 
-0.009221 -0.068355 
-0.008558 -0.061185 
-0.009760 -0.075365 
-0.008063 -0.082135 
-0.000000 -0.068228 
-0.001786 -0.068241 
-0.001652 -0.061106 
-0.001985 -0.082036 
-0.001897 -0.075222 
-0.000000 -0.082023 
-0.005015 -0.061132 
-0.003586 -0.068256 
-0.005415 -0.068278 
-0.006003 -0.082089 
-0.005744 -0.075269 
-0.003982 -0.082057 
-0.003612 -0.015705 
-0.004814 -0.031259 
-0.004489 -0.023517 
-0.005368 -0.023493 
-0.007047 -0.031227 
-0.003009 -0.053840 
-0.006133 -0.053856 
-0.004549 -0.053846 
-0.004022 -0.046436 
-0.004640 -0.038904 
-0.011323 -0.053962 
-0.008617 -0.038896 
-0.010050 -0.046481 
-0.009500 -0.053906 
-0.007777 -0.053874 
-0.005892 -0.038894 
-0.006885 -0.046438 
-0.007211 -0.038889 
0.000000 0.000000 
0.000238 -0.007945 
0.000725 -0.007934 
0.000479 -0.007941 
0.000000 0.000000 
0.000473 -0.015815 
0.000703 -0.023605 
0.001812 -0.007874 
0.001518 -0.007892 
0.000000 0.000000 
0.002887 -0.023567 
0.002469 -0.015758 
0.003667 -0.023543 
0.000000 0.000000 
0.001241 -0.007909 
0.000978 -0.007923 
0.001323 -0.046435 
0.001497 -0.053833 
0.000923 -0.031311 
0.001130 -0.038924 
0.003438 -0.038914 
0.002273 -0.038922 
0.002808 -0.031294 
0.001441 -0.015797 
0.002138 -0.023586 
0.001413 -0.023599 
0.006949 -0.008795 
0.005391 -0.008147 
0.000000 0.000000 
0.011532 -0.023809 
0.009113 -0.016027 
0.013559 -0.024268 
0.000000 0.000000 
0.004476 -0.007927 
0.003820 -0.007845 
0.013270 -0.054057 
0.013707 -0.046660 
0.015369 -0.054211 
0.009669 -0.031259 
0.011797 -0.038998 
0.010135 -0.038926 
0.015730 -0.039400 
0.013644 -0.039140 
0.012969 -0.031517 
0.000000 0.000000 
0.002474 -0.007836 
0.002128 -0.007854 
0.003298 -0.007821 
0.002859 -0.007822 
0.000000 0.000000 
0.006319 -0.023474 
0.004949 -0.015660 
0.007368 -0.023472 
0.009907 -0.023595 
0.008547 -0.023502 
0.006643 -0.015685 
0.002115 -0.101326 
0.002116 -0.107322 
0.002050 -0.088668 
0.002094 -0.095103 
0.006309 -0.095153 
0.004192 -0.095122 
0.006191 -0.088722 
0.001652 -0.061106 
0.001786 -0.068241 
0.005415 -0.068278 
0.003586 -0.068256 
0.005015 -0.061132 
0.001897 -0.075222 
0.001985 -0.082036 
0.013335 -0.068521 
0.011231 -0.068423 
0.012421 -0.061316 
0.008063 -0.082135 
0.009760 -0.075365 
0.010174 -0.082198 
0.008558 -0.061185 
0.009221 -0.068355 
0.007288 -0.068309 
0.003982 -0.082057 
0.005744 -0.075269 
0.006003 -0.082089 
0.003612 -0.015705 
0.007047 -0.031227 
0.005368 -0.023493 
0.004489 -0.023517 
0.004814 -0.031259 
0.011323 -0.053962 
0.007777 -0.053874 
0.009500 -0.053906 
0.010050 -0.046481 
0.008617 -0.038896 
0.003009 -0.053840 
0.004640 -0.038904 
0.004022 -0.046436 
0.004549 -0.053846 
0.006133 -0.053856 
0.007211 -0.038889 
0.006885 -0.046438 
0.005892 -0.038894 
0.011523 -0.012129 
0.014109 -0.018234 
0.024095 -0.035668 
0.019729 -0.027211 
0.023828 -0.030735 
0.016226 -0.025245 
0.017530 -0.032512 
0.033441 -0.065404 
0.032031 -0.058487 
0.035079 -0.060004 
0.025778 -0.056137 
0.028875 -0.057177 
0.027423 -0.063495 
0.030944 -0.046155 
0.030078 -0.051252 
0.027479 -0.043662 
0.017648 -0.054452 
0.016765 -0.061620 
0.018122 -0.039854 
0.018127 -0.047185 
0.021752 -0.062269 
0.020135 -0.054821 
0.022847 -0.055365 
0.024036 -0.041840 
0.023618 -0.048506 
0.020884 -0.040618 
0.032161 -0.111310 
0.033202 -0.106422 
0.035287 -0.105546 
0.028812 -0.107365 
0.031039 -0.107003 
0.028017 -0.112565 
0.036949 -0.095495 
0.034040 -0.101296 
0.034658 -0.095931 
0.019627 -0.107663 
0.021931 -0.107686 
0.019245 -0.113242 
0.027322 -0.096108 
0.024632 -0.101962 
0.024822 -0.095990 
0.023669 -0.113093 
0.024240 -0.107664 
0.026540 -0.107569 
0.037138 -0.072752 
0.034939 -0.078385 
0.034390 -0.072031 
0.035035 -0.090328 
0.035140 -0.084481 
0.037645 -0.084563 
0.029840 -0.083913 
0.032521 -0.084236 
0.029965 -0.090175 
0.029421 -0.101900 
0.029814 -0.096170 
0.032270 -0.096132 
0.004223 -0.107325 
0.002084 -0.113071 
0.008454 -0.095201 
0.006359 -0.101366 
0.006269 -0.113082 
0.006344 -0.107347 
0.008486 -0.107384 
0.015550 -0.068662 
0.014061 -0.075555 
0.014964 -0.089037 
0.014601 -0.082400 
0.016938 -0.082549 
0.012350 -0.082285 
0.010466 -0.088837 
0.014842 -0.113221 
0.015082 -0.107554 
0.017342 -0.107615 
0.010655 -0.107434 