# vtk DataFile Version 2.0
Unstructured Grid Example
ASCII
DATASET UNSTRUCTURED_GRID

POINTS 9 float
0.017784 -0.165527 0.000000 
0.982216 -0.165527 0.000000 
1.000000 1.000000 0.000000 
0.000000 1.000000 0.000000 
0.500000 -0.150332 0.000000 
0.972716 0.392921 0.000000 
0.500000 1.000000 0.000000 
0.027284 0.392921 0.000000 
0.500000 0.388614 0.000000 

CELLS 8 32
3  0 4 8 
3  4 1 8 
3  1 5 8 
3  5 2 8 
3  2 6 8 
3  6 3 8 
3  3 7 8 
3  7 0 8 

CELL_TYPES 8
5
5
5
5
5
5
5
5

POINT_DATA 9

SCALARS u_h float 2
LOOKUP_TABLE default
0.017784 -0.165527 
-0.017784 -0.165527 
0.000000 0.000000 
0.000000 0.000000 
-0.000000 -0.150332 
-0.027284 -0.107079 
0.000000 0.000000 
0.027284 -0.107079 
-0.000000 -0.111386 

CELL_DATA 8

SCALARS epsilon float 4
LOOKUP_TABLE default
-0.036200 0.075302 0.000000 0.014078
-0.036200 0.075302 0.000000 -0.014078
-0.055736 0.110325 0.000000 -0.006095
-0.055330 0.191570 0.000000 0.031500
0.000000 0.198781 0.000000 0.000000
0.000000 0.198781 0.000000 0.000000
-0.055330 0.191570 0.000000 -0.031500
-0.055736 0.110325 0.000000 0.006095

SCALARS sigma float 4
LOOKUP_TABLE default
-0.188442 1.743465 0.391017 0.269892
-0.188442 1.743465 0.391017 -0.269892
-0.347809 2.603854 0.545891 -0.074987
0.432411 5.321661 1.362403 0.520376
1.987815 6.203910 1.987815 0.000000
1.987815 6.203910 1.987815 0.000000
0.432411 5.321661 1.362403 -0.520376
-0.347809 2.603854 0.545891 0.074987

