# vtk DataFile Version 2.0
Unstructured Grid Example
ASCII
DATASET UNSTRUCTURED_GRID

POINTS 4225 float
0.005438 -0.151429 0.000000 
0.994562 -0.151429 0.000000 
1.000000 1.000000 0.000000 
0.000000 1.000000 0.000000 
0.500000 -0.162803 0.000000 
0.965738 0.389689 0.000000 
0.500000 1.000000 0.000000 
0.034262 0.389689 0.000000 
0.500000 0.386883 0.000000 
0.254251 -0.160980 0.000000 
0.500000 0.101143 0.000000 
0.261178 0.102155 0.000000 
0.745749 -0.160980 0.000000 
0.738822 0.102155 0.000000 
0.978935 0.110131 0.000000 
0.732911 0.386701 0.000000 
0.963500 0.683510 0.000000 
0.735389 0.688521 0.000000 
0.750000 1.000000 0.000000 
0.500000 0.688863 0.000000 
0.250000 1.000000 0.000000 
0.264611 0.688521 0.000000 
0.036500 0.683510 0.000000 
0.267089 0.386701 0.000000 
0.021065 0.110131 0.000000 
0.130103 -0.157564 0.000000 
0.257371 -0.032352 0.000000 
0.135438 -0.029335 0.000000 
0.500000 -0.033826 0.000000 
0.378829 -0.033546 0.000000 
0.377448 -0.162462 0.000000 
0.382359 0.241642 0.000000 
0.380672 0.101319 0.000000 
0.500000 0.241598 0.000000 
0.622552 -0.162462 0.000000 
0.621171 -0.033546 0.000000 
0.864562 -0.029335 0.000000 
0.742629 -0.032352 0.000000 
0.869897 -0.157564 0.000000 
0.619328 0.101319 0.000000 
0.617641 0.241642 0.000000 
0.986877 -0.023303 0.000000 
0.858677 0.104578 0.000000 
0.849063 0.387061 0.000000 
0.853186 0.243519 0.000000 
0.971577 0.247965 0.000000 
0.735301 0.241997 0.000000 
0.616592 0.386833 0.000000 
0.962464 0.534854 0.000000 
0.847541 0.534975 0.000000 
0.859770 0.843096 0.000000 
0.850347 0.687148 0.000000 
0.971826 0.836194 0.000000 
0.732615 0.535774 0.000000 
0.616663 0.536185 0.000000 
0.875000 1.000000 0.000000 
0.741633 0.843754 0.000000 
0.500000 0.843672 0.000000 
0.621184 0.843711 0.000000 
0.625000 1.000000 0.000000 
0.618206 0.688817 0.000000 
0.500000 0.536299 0.000000 
0.375000 1.000000 0.000000 
0.378816 0.843711 0.000000 
0.140230 0.843096 0.000000 
0.258367 0.843754 0.000000 
0.125000 1.000000 0.000000 
0.381794 0.688817 0.000000 
0.383337 0.536185 0.000000 
0.028174 0.836194 0.000000 
0.149653 0.687148 0.000000 
0.150937 0.387061 0.000000 
0.152459 0.534975 0.000000 
0.037536 0.534854 0.000000 
0.267385 0.535774 0.000000 
0.383408 0.386833 0.000000 
0.028423 0.247965 0.000000 
0.146814 0.243519 0.000000 
0.141323 0.104578 0.000000 
0.013123 -0.023303 0.000000 
0.264699 0.241997 0.000000 
0.067768 -0.154826 0.000000 
0.132642 -0.094217 0.000000 
0.070941 -0.091560 0.000000 
0.255644 -0.097440 0.000000 
0.194220 -0.096135 0.000000 
0.192292 -0.159579 0.000000 
0.198872 0.035288 0.000000 
0.196468 -0.031145 0.000000 
0.259258 0.034203 0.000000 
0.500000 -0.099089 0.000000 
0.439040 -0.099022 0.000000 
0.438771 -0.162752 0.000000 
0.439882 0.032990 0.000000 
0.439432 -0.033764 0.000000 
0.500000 0.032937 0.000000 
0.315960 -0.161901 0.000000 
0.378027 -0.098772 0.000000 
0.316908 -0.098277 0.000000 
0.441485 0.313684 0.000000 
0.441177 0.241607 0.000000 
0.500000 0.313686 0.000000 
0.320958 0.101611 0.000000 
0.381566 0.170833 0.000000 
0.322320 0.171034 0.000000 
0.500000 0.170722 0.000000 
0.440787 0.170746 0.000000 
0.440345 0.101182 0.000000 
0.318152 -0.033109 0.000000 
0.379738 0.033171 0.000000 
0.319539 0.033542 0.000000 
0.561229 -0.162752 0.000000 
0.560960 -0.099022 0.000000 
0.683092 -0.098277 0.000000 
0.621973 -0.098772 0.000000 
0.684040 -0.161901 0.000000 
0.560568 -0.033764 0.000000 
0.560118 0.032990 0.000000 
0.929059 -0.091560 0.000000 
0.867358 -0.094217 0.000000 
0.932232 -0.154826 0.000000 
0.740742 0.034203 0.000000 
0.803532 -0.031145 0.000000 
0.801128 0.035288 0.000000 
0.807708 -0.159579 0.000000 
0.805780 -0.096135 0.000000 
0.744356 -0.097440 0.000000 
0.558823 0.241607 0.000000 
0.558515 0.313684 0.000000 
0.559655 0.101182 0.000000 
0.559213 0.170746 0.000000 
0.677680 0.171034 0.000000 
0.618434 0.170833 0.000000 
0.679042 0.101611 0.000000 
0.681848 -0.033109 0.000000 
0.680461 0.033542 0.000000 
0.620262 0.033171 0.000000 
0.990809 -0.088107 0.000000 
0.925700 -0.026770 0.000000 
0.918770 0.106844 0.000000 
0.922233 0.039401 0.000000 
0.982887 0.042819 0.000000 
0.861629 0.036959 0.000000 
0.798694 0.103086 0.000000 
0.907280 0.387898 0.000000 
0.909554 0.316047 0.000000 
0.968399 0.318359 0.000000 
0.792362 0.314064 0.000000 
0.850888 0.314734 0.000000 
0.790976 0.386751 0.000000 
0.975128 0.178538 0.000000 
0.912312 0.245225 0.000000 
0.915425 0.175474 0.000000 
0.617006 0.313670 0.000000 
0.558317 0.386888 0.000000 
0.736974 0.171439 0.000000 
0.676460 0.241745 0.000000 
0.674792 0.386756 0.000000 
0.675468 0.313677 0.000000 
0.733908 0.313771 0.000000 
0.855824 0.173451 0.000000 
0.794195 0.242527 0.000000 
0.796345 0.172184 0.000000 
0.963673 0.461833 0.000000 
0.905651 0.460764 0.000000 
0.905184 0.609560 0.000000 
0.904872 0.534644 0.000000 
0.962310 0.608738 0.000000 
0.847884 0.460480 0.000000 
0.790196 0.460548 0.000000 
0.926175 0.920816 0.000000 
0.916665 0.841247 0.000000 
0.980993 0.914995 0.000000 
0.793212 0.688063 0.000000 
0.854098 0.764740 0.000000 
0.796569 0.765601 0.000000 
0.966450 0.759257 0.000000 
0.910509 0.762765 0.000000 
0.906910 0.685570 0.000000 
0.616460 0.461040 0.000000 
0.558262 0.461119 0.000000 
0.732438 0.460727 0.000000 
0.674530 0.460905 0.000000 
0.675575 0.612013 0.000000 
0.674766 0.536028 0.000000 
0.733566 0.611748 0.000000 
0.848267 0.610537 0.000000 
0.791129 0.611280 0.000000 
0.790185 0.535411 0.000000 
0.937500 1.000000 0.000000 
0.867142 0.921704 0.000000 
0.745712 0.921816 0.000000 
0.806697 0.921838 0.000000 
0.812500 1.000000 0.000000 
0.801176 0.843633 0.000000 
0.738109 0.765924 0.000000 
0.500000 0.921676 0.000000 
0.561541 0.921686 0.000000 
0.562500 1.000000 0.000000 
0.559825 0.766041 0.000000 
0.560632 0.843681 0.000000 
0.500000 0.766040 0.000000 
0.687500 1.000000 0.000000 
0.623041 0.921716 0.000000 
0.684454 0.921764 0.000000 
0.558378 0.536270 0.000000 
0.500000 0.461144 0.000000 
0.676998 0.688730 0.000000 
0.617240 0.612154 0.000000 
0.500000 0.612244 0.000000 
0.558677 0.612221 0.000000 
0.559163 0.688851 0.000000 
0.681562 0.843747 0.000000 
0.619540 0.766044 0.000000 
0.679023 0.766026 0.000000 
0.437500 1.000000 0.000000 
0.438459 0.921686 0.000000 
0.315546 0.921764 0.000000 
0.376959 0.921716 0.000000 
0.312500 1.000000 0.000000 
0.439368 0.843681 0.000000 
0.440175 0.766041 0.000000 
0.073825 0.920816 0.000000 
0.132858 0.921704 0.000000 
0.062500 1.000000 0.000000 
0.261891 0.765924 0.000000 
0.198824 0.843633 0.000000 
0.203431 0.765601 0.000000 
0.187500 1.000000 0.000000 
0.193303 0.921838 0.000000 
0.254288 0.921816 0.000000 
0.441622 0.536270 0.000000 
0.441738 0.461119 0.000000 
0.440837 0.688851 0.000000 
0.441323 0.612221 0.000000 
0.324425 0.612013 0.000000 
0.382760 0.612154 0.000000 
0.323002 0.688730 0.000000 
0.318438 0.843747 0.000000 
0.320977 0.766026 0.000000 
0.380460 0.766044 0.000000 
0.019007 0.914995 0.000000 
0.083335 0.841247 0.000000 
0.093090 0.685570 0.000000 
0.089491 0.762765 0.000000 
0.033550 0.759257 0.000000 
0.145902 0.764740 0.000000 
0.206788 0.688063 0.000000 
0.092720 0.387898 0.000000 
0.094349 0.460764 0.000000 
0.036327 0.461833 0.000000 
0.209804 0.460548 0.000000 
0.152116 0.460480 0.000000 
0.209024 0.386751 0.000000 
0.037690 0.608738 0.000000 
0.095128 0.534644 0.000000 
0.094816 0.609560 0.000000 
0.383540 0.461040 0.000000 
0.441683 0.386888 0.000000 
0.266434 0.611748 0.000000 
0.325234 0.536028 0.000000 
0.325208 0.386756 0.000000 
0.325470 0.460905 0.000000 
0.267562 0.460727 0.000000 
0.151733 0.610537 0.000000 
0.209815 0.535411 0.000000 
0.208871 0.611280 0.000000 
0.031601 0.318359 0.000000 
0.090446 0.316047 0.000000 
0.084575 0.175474 0.000000 
0.087688 0.245225 0.000000 
0.024872 0.178538 0.000000 
0.149112 0.314734 0.000000 
0.207638 0.314064 0.000000 
0.074300 -0.026770 0.000000 
0.009191 -0.088107 0.000000 
0.201306 0.103086 0.000000 
0.138371 0.036959 0.000000 
0.017113 0.042819 0.000000 
0.077767 0.039401 0.000000 
0.081230 0.106844 0.000000 
0.382994 0.313670 0.000000 
0.266092 0.313771 0.000000 
0.324532 0.313677 0.000000 
0.323540 0.241745 0.000000 
0.263026 0.171439 0.000000 
0.144176 0.173451 0.000000 
0.203655 0.172184 0.000000 
0.205805 0.242527 0.000000 
0.036593 -0.153185 0.000000 
0.069331 -0.123393 0.000000 
0.038303 -0.121761 0.000000 
0.131333 -0.126092 0.000000 
0.100344 -0.124839 0.000000 
0.098945 -0.156289 0.000000 
0.103319 -0.060753 0.000000 
0.101804 -0.092986 0.000000 
0.134015 -0.061959 0.000000 
0.254892 -0.129409 0.000000 
0.224072 -0.128802 0.000000 
0.223302 -0.160348 0.000000 
0.225915 -0.064522 0.000000 
0.224952 -0.096855 0.000000 
0.256479 -0.065084 0.000000 
0.161223 -0.158656 0.000000 
0.193203 -0.128058 0.000000 
0.162288 -0.127161 0.000000 
0.230170 0.068454 0.000000 
0.229079 0.034683 0.000000 
0.260221 0.068008 0.000000 
0.165968 -0.030325 0.000000 
0.197659 0.001896 0.000000 
0.167292 0.002684 0.000000 
0.258303 0.000747 0.000000 
0.227996 0.001257 0.000000 
0.226936 -0.031814 0.000000 
0.163449 -0.095261 0.000000 
0.195316 -0.063826 0.000000 
0.164682 -0.062978 0.000000 
0.500000 -0.131143 0.000000 
0.469445 -0.131134 0.000000 
0.469393 -0.162811 0.000000 
0.469615 -0.066633 0.000000 
0.469523 -0.099075 0.000000 
0.500000 -0.066648 0.000000 
0.408125 -0.162637 0.000000 
0.438884 -0.131079 0.000000 
0.408306 -0.130973 0.000000 
0.470058 0.066875 0.000000 
0.469942 0.032950 0.000000 
0.500000 0.066864 0.000000 
0.409137 -0.033677 0.000000 
0.439653 -0.000571 0.000000 
0.409470 -0.000492 0.000000 
0.500000 -0.000629 0.000000 
0.469828 -0.000615 0.000000 
0.469718 -0.033812 0.000000 
0.285136 -0.161493 0.000000 
0.316385 -0.130286 0.000000 
0.285662 -0.129899 0.000000 
0.377701 -0.130811 0.000000 
0.347063 -0.130585 0.000000 
0.346729 -0.162220 0.000000 
0.347969 -0.066150 0.000000 
0.347484 -0.098560 0.000000 
0.378408 -0.066349 0.000000 
0.439226 -0.066583 0.000000 
0.408825 -0.066490 0.000000 
0.408544 -0.098923 0.000000 
[...]
POINT_DATA 4225

SCALARS u_h float 2
LOOKUP_TABLE default
0.005438 -0.151429 
-0.005438 -0.151429 
0.000000 0.000000 
0.000000 0.000000 
-0.000000 -0.162803 
-0.034262 -0.110311 
0.000000 0.000000 
0.034262 -0.110311 
-0.000000 -0.113117 
0.004251 -0.160980 
-0.000000 -0.148857 
0.011178 -0.147845 
-0.004251 -0.160980 
-0.011178 -0.147845 
-0.021065 -0.139869 
-0.017089 -0.113299 
-0.036500 -0.066490 
-0.014611 -0.061479 
0.000000 0.000000 
-0.000000 -0.061137 
0.000000 0.000000 
0.014611 -0.061479 
0.036500 -0.066490 
0.017089 -0.113299 
0.021065 -0.139869 
0.005103 -0.157564 
0.007371 -0.157352 
0.010438 -0.154335 
-0.000000 -0.158826 
0.003829 -0.158546 
0.002448 -0.162462 
0.007359 -0.133358 
0.005672 -0.148681 
-0.000000 -0.133402 
-0.002448 -0.162462 
-0.003829 -0.158546 
-0.010438 -0.154335 
-0.007371 -0.157352 
-0.005103 -0.157564 
-0.005672 -0.148681 
-0.007359 -0.133358 
-0.013123 -0.148303 
-0.016323 -0.145422 
-0.025937 -0.112939 
-0.021814 -0.131481 
-0.028423 -0.127035 
-0.014699 -0.133003 
-0.008408 -0.113167 
-0.037536 -0.090146 
-0.027459 -0.090025 
-0.015230 -0.031904 
-0.024653 -0.062852 
-0.028174 -0.038806 
-0.017385 -0.089226 
-0.008337 -0.088815 
0.000000 0.000000 
-0.008367 -0.031246 
-0.000000 -0.031328 
-0.003816 -0.031289 
0.000000 0.000000 
-0.006794 -0.061183 
-0.000000 -0.088701 
0.000000 0.000000 
0.003816 -0.031289 
0.015230 -0.031904 
0.008367 -0.031246 
0.000000 0.000000 
0.006794 -0.061183 
0.008337 -0.088815 
0.028174 -0.038806 
0.024653 -0.062852 
0.025937 -0.112939 
0.027459 -0.090025 
0.037536 -0.090146 
0.017385 -0.089226 
0.008408 -0.113167 
0.028423 -0.127035 
0.021814 -0.131481 
0.016323 -0.145422 
0.013123 -0.148303 
0.014699 -0.133003 
0.005268 -0.154826 
0.007642 -0.156717 
0.008441 -0.154060 
0.005644 -0.159940 
0.006720 -0.158635 
0.004792 -0.159579 
0.011372 -0.152212 
0.008968 -0.156145 
0.009258 -0.153297 
-0.000000 -0.161589 
0.001540 -0.161522 
0.001271 -0.162752 
0.002382 -0.154510 
0.001932 -0.158764 
-0.000000 -0.154563 
0.003460 -0.161901 
0.003027 -0.161272 
0.004408 -0.160777 
0.003985 -0.123816 
0.003677 -0.133393 
-0.000000 -0.123814 
0.008458 -0.148389 
0.006566 -0.141667 
0.009820 -0.141466 
-0.000000 -0.141778 
0.003287 -0.141754 
0.002845 -0.148818 
0.005652 -0.158109 
0.004738 -0.154329 
0.007039 -0.153958 
-0.001271 -0.162752 
-0.001540 -0.161522 
-0.004408 -0.160777 
-0.003027 -0.161272 
-0.003460 -0.161901 
-0.001932 -0.158764 
-0.002382 -0.154510 
-0.008441 -0.154060 
-0.007642 -0.156717 
-0.005268 -0.154826 
-0.009258 -0.153297 
-0.008968 -0.156145 
-0.011372 -0.152212 
-0.004792 -0.159579 
-0.006720 -0.158635 
-0.005644 -0.159940 
-0.003677 -0.133393 
-0.003985 -0.123816 
-0.002845 -0.148818 
-0.003287 -0.141754 
-0.009820 -0.141466 
-0.006566 -0.141667 
-0.008458 -0.148389 
-0.005652 -0.158109 
-0.007039 -0.153958 
-0.004738 -0.154329 
-0.009191 -0.150607 
-0.011800 -0.151770 
-0.018730 -0.143156 
-0.015267 -0.148099 
-0.017113 -0.144681 
-0.013371 -0.150541 
-0.013806 -0.146914 
-0.030220 -0.112102 
-0.027946 -0.121453 
-0.031601 -0.119141 
-0.020138 -0.123436 
-0.024112 -0.122766 
-0.021524 -0.113249 
-0.024872 -0.133962 
-0.025188 -0.129775 
-0.022075 -0.137026 
-0.007994 -0.123830 
-0.004183 -0.113112 
-0.013026 -0.141061 
-0.011040 -0.133255 
-0.012708 -0.113244 
-0.012032 -0.123823 
-0.016092 -0.123729 
-0.019176 -0.139049 
-0.018305 -0.132473 
-0.016155 -0.140316 
-0.036327 -0.100667 
-0.031849 -0.101736 
-0.032316 -0.077940 
-0.032628 -0.090356 
-0.037690 -0.078762 
-0.027116 -0.102020 
-0.022304 -0.101952 
-0.011325 -0.016684 
-0.020835 -0.033753 
-0.019007 -0.022505 
-0.019288 -0.061937 
-0.020902 -0.047760 
-0.015931 -0.046899 
-0.033550 -0.053243 
-0.026991 -0.049735 
-0.030590 -0.064430 
-0.008540 -0.101460 
-0.004238 -0.101381 
-0.017562 -0.101773 
-0.012970 -0.101595 
-0.011925 -0.075487 
-0.012734 -0.088972 
-0.016434 -0.075752 
-0.026733 -0.076963 
-0.021371 -0.076220 
-0.022315 -0.089589 
0.000000 0.000000 
-0.007858 -0.015796 
-0.004288 -0.015684 
-0.005803 -0.015662 
0.000000 0.000000 
-0.011324 -0.031367 
-0.011891 -0.046576 
-0.000000 -0.015824 
-0.000959 -0.015814 
0.000000 0.000000 
-0.002675 -0.046459 
-0.001868 -0.031319 
-0.000000 -0.046460 
0.000000 0.000000 
-0.001959 -0.015784 
-0.003046 -0.015736 
-0.004122 -0.088730 
-0.000000 -0.101356 
-0.010502 -0.061270 
-0.007760 -0.075346 
-0.000000 -0.075256 
-0.003823 -0.075279 
-0.003337 -0.061149 
-0.005938 -0.031253 
-0.005460 -0.046456 
-0.008477 -0.046474 
0.000000 0.000000 
0.000959 -0.015814 
0.003046 -0.015736 
0.001959 -0.015784 
0.000000 0.000000 
0.001868 -0.031319 
0.002675 -0.046459 
0.011325 -0.016684 
0.007858 -0.015796 
0.000000 0.000000 
0.011891 -0.046576 
0.011324 -0.031367 
0.015931 -0.046899 
0.000000 0.000000 
0.005803 -0.015662 
0.004288 -0.015684 
0.004122 -0.088730 
0.004238 -0.101381 
0.003337 -0.061149 
0.003823 -0.075279 
0.011925 -0.075487 
0.007760 -0.075346 
0.010502 -0.061270 
0.005938 -0.031253 
0.008477 -0.046474 
0.005460 -0.046456 
0.019007 -0.022505 
0.020835 -0.033753 
0.030590 -0.064430 
0.026991 -0.049735 
0.033550 -0.053243 
0.020902 -0.047760 
0.019288 -0.061937 
0.030220 -0.112102 
0.031849 -0.101736 
0.036327 -0.100667 
0.022304 -0.101952 
0.027116 -0.102020 
0.021524 -0.113249 
0.037690 -0.078762 
0.032628 -0.090356 
0.032316 -0.077940 
0.008540 -0.101460 
0.004183 -0.113112 
0.016434 -0.075752 
0.012734 -0.088972 
0.012708 -0.113244 
0.012970 -0.101595 
0.017562 -0.101773 
0.026733 -0.076963 
0.022315 -0.089589 
0.021371 -0.076220 
0.031601 -0.119141 
0.027946 -0.121453 
0.022075 -0.137026 
0.025188 -0.129775 
0.024872 -0.133962 
0.024112 -0.122766 
0.020138 -0.123436 
0.011800 -0.151770 
0.009191 -0.150607 
0.013806 -0.146914 
0.013371 -0.150541 
0.017113 -0.144681 
0.015267 -0.148099 
0.018730 -0.143156 
0.007994 -0.123830 
0.016092 -0.123729 
0.012032 -0.123823 
0.011040 -0.133255 
0.013026 -0.141061 
0.019176 -0.139049 
0.016155 -0.140316 
0.018305 -0.132473 
0.005343 -0.153185 
0.006831 -0.154643 
0.007053 -0.153011 
0.006333 -0.157342 
0.006594 -0.156089 
0.005195 -0.156289 
0.009569 -0.154503 
0.008054 -0.155486 
0.009015 -0.155709 
0.004892 -0.160659 
0.005322 -0.160052 
0.004552 -0.160348 
0.007165 -0.158272 
0.006202 -0.159355 
0.006479 -0.158834 
0.004973 -0.158656 
0.005703 -0.159308 
0.006038 -0.158411 
0.011420 -0.150296 
0.010329 -0.152817 
0.010221 -0.150742 
0.009718 -0.155325 
0.010159 -0.154354 
0.011042 -0.153566 
0.008303 -0.155503 
0.009246 -0.154993 
0.008186 -0.156814 
0.007199 -0.157761 
0.007816 -0.157576 
0.008432 -0.156728 
-0.000000 -0.162393 
0.000695 -0.162384 
0.000643 -0.162811 
0.000865 -0.160383 
0.000773 -0.161575 
-0.000000 -0.160398 
0.001875 -0.162637 
0.001384 -0.162329 
0.002056 -0.162223 
0.001308 -0.151875 
0.001192 -0.154550 
-0.000000 -0.151886 
0.002887 -0.158677 
0.002153 -0.156821 
0.003220 -0.156742 
-0.000000 -0.156879 
0.001078 -0.156865 
0.000968 -0.158812 
0.003886 -0.161493 
0.003885 -0.161536 
0.004412 -0.161149 
0.002701 -0.162061 
0.003313 -0.161835 
0.002979 -0.162220 
0.004219 -0.159900 
0.003734 -0.161060 
0.003408 -0.160099 
0.001726 -0.160333 
0.002575 -0.160240 
0.002294 -0.161423 
0.002046 -0.118593 
0.001990 -0.123813 
-0.000000 -0.118596 
0.005518 -0.133380 
0.003844 -0.128751 
0.005770 -0.128749 
-0.000000 -0.128754 
0.001920 -0.128752 
0.001838 -0.133399 
0.009828 -0.148156 
0.009152 -0.145093 
0.010644 -0.144891 
0.006128 -0.145340 
0.007645 -0.145239 
0.007072 -0.148560 
0.008719 -0.137610 
0.008197 -0.141586 
0.006979 -0.137670 
-0.000000 -0.145485 
0.001536 -0.145477 
0.001424 -0.148848 
0.001745 -0.137743 
0.001644 -0.141772 
-0.000000 -0.137747 
0.004262 -0.148764 
0.003071 -0.145453 
0.004602 -0.145409 
0.005236 -0.137708 
0.004929 -0.141721 
0.003491 -0.137730 
0.005046 -0.160409 
0.004751 -0.158360 
0.005004 -0.159632 
0.005758 -0.159282 
0.006526 -0.157778 
0.002614 -0.151840 
0.005206 -0.151680 
0.003914 -0.151777 
0.003565 -0.154439 
0.004275 -0.156621 
0.008996 -0.151086 
0.007332 -0.155905 
0.008160 -0.153671 
0.007750 -0.151347 
0.006486 -0.151540 
0.005315 -0.156449 
0.005897 -0.154173 
0.006335 -0.156215 
-0.000643 -0.162811 
-0.000695 -0.162384 
-0.002056 -0.162223 
-0.001384 -0.162329 
-0.001875 -0.162637 
-0.000773 -0.161575 
-0.000865 -0.160383 
-0.004412 -0.161149 
-0.003885 -0.161536 
-0.003886 -0.161493 
-0.003408 -0.160099 
-0.003734 -0.161060 
-0.004219 -0.159900 
-0.002979 -0.162220 
-0.003313 -0.161835 
-0.002701 -0.162061 
-0.001192 -0.154550 
-0.001308 -0.151875 
-0.000968 -0.158812 
-0.001078 -0.156865 
-0.003220 -0.156742 
-0.002153 -0.156821 
-0.002887 -0.158677 
-0.002294 -0.161423 
-0.002575 -0.160240 
-0.001726 -0.160333 
-0.007053 -0.153011 
-0.006831 -0.154643 
-0.005343 -0.153185 
-0.009015 -0.155709 
-0.008054 -0.155486 
-0.009569 -0.154503 
-0.005195 -0.156289 
-0.006594 -0.156089 
-0.006333 -0.157342 
-0.010221 -0.150742 
-0.010329 -0.152817 
-0.011420 -0.150296 
-0.008186 -0.156814 
-0.009246 -0.154993 
-0.008303 -0.155503 
-0.011042 -0.153566 
-0.010159 -0.154354 
-0.009718 -0.155325 
-0.004552 -0.160348 
-0.005322 -0.160052 
-0.004892 -0.160659 
-0.006038 -0.158411 
-0.005703 -0.159308 
-0.004973 -0.158656 
-0.006479 -0.158834 
-0.006202 -0.159355 
-0.007165 -0.158272 
-0.008432 -0.156728 
-0.007816 -0.157576 
-0.007199 -0.157761 
-0.001990 -0.123813 
-0.002046 -0.118593 
-0.001838 -0.133399 
-0.001920 -0.128752 
-0.005770 -0.128749 
-0.003844 -0.128751 
-0.005518 -0.133380 
-0.001424 -0.148848 
-0.001536 -0.145477 
-0.004602 -0.145409 
-0.003071 -0.145453 
-0.004262 -0.148764 
-0.001644 -0.141772 
-0.001745 -0.137743 
-0.010644 -0.144891 
-0.009152 -0.145093 
-0.009828 -0.148156 
-0.006979 -0.137670 
-0.008197 -0.141586 
-0.008719 -0.137610 
-0.007072 -0.148560 
-0.007645 -0.145239 
-0.006128 -0.145340 
-0.003491 -0.137730 
-0.004929 -0.141721 
-0.005236 -0.137708 
-0.005046 -0.160409 
-0.006526 -0.157778 
-0.005758 -0.159282 
-0.005004 -0.159632 
-0.004751 -0.158360 
-0.008996 -0.151086 
-0.006486 -0.151540 
-0.007750 -0.151347 
-0.008160 -0.153671 
-0.007332 -0.155905 
-0.002614 -0.151840 
-0.004275 -0.156621 
-0.003565 -0.154439 
-0.003914 -0.151777 
-0.005206 -0.151680 
-0.006335 -0.156215 
-0.005897 -0.154173 
-0.005315 -0.156449 
-0.007277 -0.151215 
-0.008814 -0.152434 
-0.012459 -0.150159 
-0.010620 -0.151476 
-0.011144 -0.149629 
-0.010101 -0.153096 
-0.011130 -0.153156 
-0.019902 -0.141657 
-0.018056 -0.144240 
-0.019101 -0.142417 
-0.015940 -0.147072 
-0.017006 -0.145781 
-0.017538 -0.144400 
-0.015116 -0.146647 
-0.016190 -0.146526 
-0.014321 -0.148504 
-0.012593 -0.149730 
-0.012505 -0.147438 
-0.011895 -0.152609 
-0.012386 -0.151461 
-0.015079 -0.146251 
-0.013737 -0.149020 
-0.014852 -0.148142 
-0.013527 -0.150100 
-0.014330 -0.149429 
-0.012721 -0.151461 
-0.032278 -0.111363 
-0.031105 -0.116023 
-0.033008 -0.114844 
-0.027145 -0.117542 
-0.029151 -0.116904 
-0.028102 -0.112608 
-0.030067 -0.123206 
-0.029796 -0.120447 
-0.028362 -0.124626 
-0.018773 -0.118597 
-0.020896 -0.118484 
-0.019304 -0.113295 
-0.023013 -0.127265 
-0.022139 -0.123162 
-0.021155 -0.127750 
-0.023739 -0.113140 
-0.023006 -0.118291 
-0.025093 -0.117990 
-0.022993 -0.137047 
-0.023484 -0.135644 
-0.021716 -0.138789 
-0.026822 -0.128556 
-0.025190 -0.132231 
-0.026687 -0.130622 
-0.022115 -0.134584 
-0.023668 -0.133537 
-0.023519 -0.130736 
-0.026050 -0.122210 
-0.024836 -0.126610 
-0.026620 -0.125745 
-0.004100 -0.118599 
-0.002089 -0.113102 
-0.007700 -0.128742 
-0.005986 -0.123823 
-0.006288 -0.113135 
-0.006161 -0.118615 
-0.008232 -0.118635 
-0.012118 -0.144616 
-0.011431 -0.141296 
-0.012874 -0.133154 
-0.012178 -0.137382 
-0.013891 -0.137187 
-0.010453 -0.137518 
-0.009201 -0.133319 
-0.014889 -0.113278 
-0.014526 -0.118675 
-0.016647 -0.118655 
-0.010317 -0.118656 
-0.012415 -0.118672 
-0.010547 -0.113205 
-0.015437 -0.128514 
-0.014061 -0.123793 
-0.013505 -0.128622 
-0.009634 -0.128724 
-0.011570 -0.128688 
-0.010009 -0.123833 
-0.020424 -0.140235 
-0.020529 -0.135411 
-0.020641 -0.138149 
-0.019110 -0.141423 
-0.017769 -0.142388 
-0.018120 -0.123617 
-0.016511 -0.132782 
-0.017361 -0.128347 
-0.019269 -0.128101 
-0.020074 -0.132049 
-0.013570 -0.144251 
-0.016398 -0.143162 
-0.014998 -0.143774 
-0.014602 -0.140741 
-0.015587 -0.136916 
-0.018911 -0.136055 
-0.017262 -0.136547 
-0.017680 -0.139761 
-0.035396 -0.105603 
-0.033299 -0.106467 
-0.034749 -0.095965 
-0.034130 -0.101334 
-0.037048 -0.095514 
-0.031127 -0.107045 
-0.028895 -0.107408 
-0.034530 -0.072064 
-0.035061 -0.078415 
-0.037285 -0.072741 
-0.030057 -0.090224 
-0.032626 -0.084280 
-0.029942 -0.083965 
-0.037761 -0.084562 
-0.035248 -0.084510 
-0.035132 -0.090358 
-0.021999 -0.107736 
-0.019690 -0.107715 
-0.026618 -0.107615 
-0.024313 -0.107712 
-0.024903 -0.096040 
-0.024709 -0.102011 
-0.027406 -0.096157 
-0.032358 -0.096174 
-0.029900 -0.096217 
-0.029503 -0.101944 
-0.007310 -0.008958 
-0.014475 -0.018344 
-0.011921 -0.012826 
-0.017766 -0.032564 
-0.016525 -0.025304 
-0.013795 -0.024312 
-0.024208 -0.030977 
-0.020092 -0.027319 
-0.024418 -0.035767 
-0.016869 -0.061666 
-0.017773 -0.054499 
-0.015476 -0.054252 
-0.023007 -0.055420 
-0.020277 -0.054872 
-0.021883 -0.062322 
-0.015887 -0.039442 
-0.018280 -0.047232 
-0.018311 -0.039903 
-0.035278 -0.059998 
-0.032222 -0.058537 
-0.033604 -0.065444 
-0.027753 -0.043743 
-0.030307 -0.051316 
-0.031224 -0.046197 
-0.027575 -0.063554 
-0.029061 -0.057238 
-0.025952 -0.056197 
-0.021104 -0.040675 
-0.023816 -0.048565 
-0.024286 -0.041908 
-0.004231 -0.107368 
-0.002114 -0.107354 
-0.008513 -0.107438 
-0.006361 -0.107397 
-0.006328 -0.095198 
-0.006376 -0.101413 
-0.008483 -0.095248 
-0.017399 -0.107668 
-0.015132 -0.107609 
-0.015214 -0.095502 
-0.015245 -0.101680 
-0.017563 -0.095622 
-0.012896 -0.107547 
-0.010690 -0.107489 
-0.013407 -0.068562 
-0.014130 -0.075600 
-0.015635 -0.068706 
-0.010508 -0.088883 
-0.012405 -0.082330 
-0.010219 -0.082241 
-0.017013 -0.082598 
-0.014667 -0.082447 
-0.015025 -0.089086 
-0.010736 -0.101521 
-0.012920 -0.095399 
-0.010678 -0.095315 
-0.031655 -0.071327 
-0.025882 -0.070037 
-0.028746 -0.070633 
-0.029519 -0.077435 
-0.027246 -0.083627 
-0.017990 -0.068908 
-0.019449 -0.082789 
-0.018846 -0.075955 
-0.020483 -0.069185 
-0.023117 -0.069556 
-0.019917 -0.101867 
-0.024869 -0.089804 
-0.022417 -0.095900 
-0.019966 -0.095757 
-0.019816 -0.089394 
-0.024006 -0.076555 
-0.021974 -0.083026 
-0.024580 -0.083307 
0.000000 0.000000 
-0.005545 -0.008172 
-0.003884 -0.007845 
-0.004569 -0.007931 
0.000000 0.000000 
-0.009301 -0.016052 
-0.011705 -0.023839 
-0.002148 -0.007855 
-0.002500 -0.007837 
0.000000 0.000000 
-0.007441 -0.023484 
-0.005000 -0.015665 
-0.006376 -0.023484 
0.000000 0.000000 
-0.002893 -0.007823 
-0.003345 -0.007821 
-0.013815 -0.046696 
-0.013361 -0.054094 
-0.013119 -0.031550 
-0.013771 -0.039175 
-0.010217 -0.038951 
-0.011900 -0.039027 
-0.009760 -0.031280 
-0.006734 -0.015694 
-0.008643 -0.023517 
-0.010035 -0.023615 
-0.000000 -0.007949 
-0.000240 -0.007948 
0.000000 0.000000 
-0.000708 -0.023616 
-0.000477 -0.015822 
-0.000000 -0.023618 
0.000000 0.000000 
-0.000483 -0.007944 
-0.000730 -0.007936 
-0.001506 -0.053864 
-0.001331 -0.046461 
-0.000000 -0.053861 
-0.002827 -0.031306 
-0.002287 -0.038940 
-0.003461 -0.038931 
-0.000000 -0.038945 
-0.001138 -0.038945 
-0.000929 -0.031327 
0.000000 0.000000 
-0.001530 -0.007894 
-0.001827 -0.007875 
-0.000985 -0.007924 
-0.001250 -0.007910 
0.000000 0.000000 
-0.003694 -0.023551 
-0.002488 -0.015762 
-0.002907 -0.023574 
-0.001423 -0.023608 
-0.002154 -0.023594 
-0.001451 -0.015801 
-0.002116 -0.101362 
-0.000000 -0.107353 
-0.006212 -0.088764 
-0.004202 -0.095163 
-0.000000 -0.095134 
-0.002096 -0.095143 
-0.002055 -0.088710 
-0.012496 -0.061353 
-0.011291 -0.068461 
-0.007325 -0.068343 
-0.009270 -0.068391 
-0.008608 -0.061217 
-0.009807 -0.075405 
-0.008097 -0.082176 
-0.000000 -0.068273 
-0.001794 -0.068279 
-0.001661 -0.061141 
-0.001992 -0.082078 
-0.001905 -0.075263 
-0.000000 -0.082070 
-0.005043 -0.061161 
-0.003603 -0.068291 
-0.005442 -0.068311 
-0.006027 -0.082129 
-0.005770 -0.075306 
-0.003996 -0.082097 
-0.003642 -0.015710 
-0.004848 -0.031271 
-0.004524 -0.023525 
-0.005412 -0.023501 
-0.007103 -0.031242 
-0.003027 -0.053867 
-0.006170 -0.053881 
-0.004576 -0.053872 
-0.004047 -0.046457 
-0.004671 -0.038920 
-0.011398 -0.053995 
-0.008683 -0.038917 
-0.010122 -0.046508 
-0.009561 -0.053935 
-0.007826 -0.053900 
-0.005933 -0.038911 
-0.006930 -0.046460 
-0.007263 -0.038908 
0.000000 0.000000 
0.000240 -0.007948 
0.000730 -0.007936 
0.000483 -0.007944 
0.000000 0.000000 
0.000477 -0.015822 
0.000708 -0.023616 
0.001827 -0.007875 
0.001530 -0.007894 
0.000000 0.000000 
0.002907 -0.023574 
0.002488 -0.015762 
0.003694 -0.023551 
0.000000 0.000000 
0.001250 -0.007910 
0.000985 -0.007924 
0.001331 -0.046461 
0.001506 -0.053864 
0.000929 -0.031327 
0.001138 -0.038945 
0.003461 -0.038931 
0.002287 -0.038940 
0.002827 -0.031306 
0.001451 -0.015801 
0.002154 -0.023594 
0.001423 -0.023608 
0.007310 -0.008958 
0.005545 -0.008172 
0.000000 0.000000 
0.011705 -0.023839 
0.009301 -0.016052 
0.013795 -0.024312 
0.000000 0.000000 
0.004569 -0.007931 
0.003884 -0.007845 
0.013361 -0.054094 
0.013815 -0.046696 
0.015476 -0.054252 
0.009760 -0.031280 
0.011900 -0.039027 
0.010217 -0.038951 
0.015887 -0.039442 
0.013771 -0.039175 
0.013119 -0.031550 
0.000000 0.000000 
0.002500 -0.007837 
0.002148 -0.007855 
0.003345 -0.007821 
0.002893 -0.007823 
0.000000 0.000000 
0.006376 -0.023484 
0.005000 -0.015665 
0.007441 -0.023484 
0.010035 -0.023615 
0.008643 -0.023517 
0.006734 -0.015694 
0.002116 -0.101362 
0.002114 -0.107354 
0.002055 -0.088710 
0.002096 -0.095143 
0.006328 -0.095198 
0.004202 -0.095163 
0.006212 -0.088764 
0.001661 -0.061141 
0.001794 -0.068279 
0.005442 -0.068311 
0.003603 -0.068291 
0.005043 -0.061161 
0.001905 -0.075263 
0.001992 -0.082078 
0.013407 -0.068562 
0.011291 -0.068461 
0.012496 -0.061353 
0.008097 -0.082176 
0.009807 -0.075405 
0.010219 -0.082241 
0.008608 -0.061217 
0.009270 -0.068391 
0.007325 -0.068343 
0.003996 -0.082097 
0.005770 -0.075306 
0.006027 -0.082129 
0.003642 -0.015710 
0.007103 -0.031242 
0.005412 -0.023501 
0.004524 -0.023525 
0.004848 -0.031271 
0.011398 -0.053995 
0.007826 -0.053900 
0.009561 -0.053935 
0.010122 -0.046508 
0.008683 -0.038917 
0.003027 -0.053867 
0.004671 -0.038920 
0.004047 -0.046457 
0.004576 -0.053872 
0.006170 -0.053881 
0.007263 -0.038908 
0.006930 -0.046460 
0.005933 -0.038911 
0.011921 -0.012826 
0.014475 -0.018344 
0.024418 -0.035767 
0.020092 -0.027319 
0.024208 -0.030977 
0.016525 -0.025304 
0.017766 -0.032564 
0.033604 -0.065444 
0.032222 -0.058537 
0.035278 -0.059998 
0.025952 -0.056197 
0.029061 -0.057238 
0.027575 -0.063554 
0.031224 -0.046197 
0.030307 -0.051316 
0.027753 -0.043743 
0.017773 -0.054499 
0.016869 -0.061666 
0.018311 -0.039903 
0.018280 -0.047232 
0.021883 -0.062322 
0.020277 -0.054872 
0.023007 -0.055420 
0.024286 -0.041908 
0.023816 -0.048565 
0.021104 -0.040675 
0.032278 -0.111363 
0.033299 -0.106467 
0.035396 -0.105603 
0.028895 -0.107408 
0.031127 -0.107045 
0.028102 -0.112608 
0.037048 -0.095514 
0.034130 -0.101334 
0.034749 -0.095965 
0.019690 -0.107715 
0.021999 -0.107736 
0.019304 -0.113295 
0.027406 -0.096157 
0.024709 -0.102011 
0.024903 -0.096040 
0.023739 -0.113140 
0.024313 -0.107712 
0.026618 -0.107615 
0.037285 -0.072741 
0.035061 -0.078415 
0.034530 -0.072064 
0.035132 -0.090358 
0.035248 -0.084510 
0.037761 -0.084562 
0.029942 -0.083965 
0.032626 -0.084280 
0.030057 -0.090224 
0.029503 -0.101944 
0.029900 -0.096217 
0.032358 -0.096174 
0.004231 -0.107368 
0.002089 -0.113102 
0.008483 -0.095248 
0.006376 -0.101413 
0.006288 -0.113135 
0.006361 -0.107397 
0.008513 -0.107438 
0.015635 -0.068706 
0.014130 -0.075600 
0.015025 -0.089086 
0.014667 -0.082447 
0.017013 -0.082598 
0.012405 -0.082330 
0.010508 -0.088883 
0.014889 -0.113278 
0.015132 -0.107609 
0.017399 -0.107668 
0.010690 -0.107489 