# vtk DataFile Version 2.0
Unstructured Grid Example
ASCII
DATASET UNSTRUCTURED_GRID

POINTS 16641 float
0.005305 -0.151298 0.000000 
0.994695 -0.151298 0.000000 
1.000000 1.000000 0.000000 
0.000000 1.000000 0.000000 
0.500000 -0.162876 0.000000 
0.965693 0.389656 0.000000 
0.500000 1.000000 0.000000 
0.034307 0.389656 0.000000 
0.500000 0.386883 0.000000 
0.254225 -0.161003 0.000000 
0.500000 0.101108 0.000000 
0.261187 0.102129 0.000000 
0.745775 -0.161003 0.000000 
0.738813 0.102129 0.000000 
0.978930 0.110148 0.000000 
0.732894 0.386681 0.000000 
0.963448 0.683512 0.000000 
0.735358 0.688505 0.000000 
0.750000 1.000000 0.000000 
0.500000 0.688850 0.000000 
0.250000 1.000000 0.000000 
0.264642 0.688505 0.000000 
0.036552 0.683512 0.000000 
0.267106 0.386681 0.000000 
0.021070 0.110148 0.000000 
0.130047 -0.157562 0.000000 
0.257362 -0.032378 0.000000 
0.135426 -0.029339 0.000000 
0.500000 -0.033873 0.000000 
0.378826 -0.033583 0.000000 
0.377436 -0.162496 0.000000 
0.382369 0.241616 0.000000 
0.380678 0.101286 0.000000 
0.500000 0.241575 0.000000 
0.622564 -0.162496 0.000000 
0.621174 -0.033583 0.000000 
0.864574 -0.029339 0.000000 
0.742638 -0.032378 0.000000 
0.869953 -0.157562 0.000000 
0.619322 0.101286 0.000000 
0.617631 0.241616 0.000000 
0.986893 -0.023261 0.000000 
0.858668 0.104570 0.000000 
0.849041 0.387045 0.000000 
0.853165 0.243504 0.000000 
0.971559 0.247966 0.000000 
0.735284 0.241974 0.000000 
0.616583 0.386812 0.000000 
0.962433 0.534850 0.000000 
0.847512 0.534956 0.000000 
0.859699 0.843077 0.000000 
0.850300 0.687126 0.000000 
0.971712 0.836192 0.000000 
0.732592 0.535755 0.000000 
0.616652 0.536169 0.000000 
0.875000 1.000000 0.000000 
0.741606 0.843747 0.000000 
0.500000 0.843665 0.000000 
0.621174 0.843706 0.000000 
0.625000 1.000000 0.000000 
0.618192 0.688806 0.000000 
0.500000 0.536282 0.000000 
0.375000 1.000000 0.000000 
0.378826 0.843706 0.000000 
0.140301 0.843077 0.000000 
0.258394 0.843747 0.000000 
0.125000 1.000000 0.000000 
0.381808 0.688806 0.000000 
0.383348 0.536169 0.000000 
0.028288 0.836192 0.000000 
0.149700 0.687126 0.000000 
0.150959 0.387045 0.000000 
0.152488 0.534956 0.000000 
0.037567 0.534850 0.000000 
0.267408 0.535755 0.000000 
0.383417 0.386812 0.000000 
0.028441 0.247966 0.000000 
0.146835 0.243504 0.000000 
0.141332 0.104570 0.000000 
0.013107 -0.023261 0.000000 
0.264716 0.241974 0.000000 
0.067681 -0.154796 0.000000 
0.132609 -0.094220 0.000000 
0.070906 -0.091537 0.000000 
0.255625 -0.097465 0.000000 
0.194194 -0.096152 0.000000 
0.192254 -0.159592 0.000000 
0.198873 0.035270 0.000000 
0.196457 -0.031163 0.000000 
0.259258 0.034177 0.000000 
0.500000 -0.099143 0.000000 
0.439038 -0.099066 0.000000 
0.438763 -0.162795 0.000000 
0.439884 0.032951 0.000000 
0.439432 -0.033806 0.000000 
0.500000 0.032897 0.000000 
0.315943 -0.161930 0.000000 
0.378020 -0.098808 0.000000 
0.316895 -0.098307 0.000000 
0.441491 0.313663 0.000000 
0.441183 0.241582 0.000000 
0.500000 0.313671 0.000000 
0.320965 0.101581 0.000000 
0.381574 0.170803 0.000000 
0.322331 0.171006 0.000000 
0.500000 0.170693 0.000000 
0.440792 0.170717 0.000000 
0.440348 0.101148 0.000000 
0.318146 -0.033140 0.000000 
0.379740 0.033135 0.000000 
0.319540 0.033511 0.000000 
0.561237 -0.162795 0.000000 
0.560962 -0.099066 0.000000 
0.683105 -0.098307 0.000000 
0.621980 -0.098808 0.000000 
0.684057 -0.161930 0.000000 
0.560568 -0.033806 0.000000 
0.560116 0.032951 0.000000 
0.929094 -0.091537 0.000000 
0.867391 -0.094220 0.000000 
0.932319 -0.154796 0.000000 
0.740742 0.034177 0.000000 
0.803543 -0.031163 0.000000 
0.801127 0.035270 0.000000 
0.807746 -0.159592 0.000000 
0.805806 -0.096152 0.000000 
0.744375 -0.097465 0.000000 
0.558817 0.241582 0.000000 
0.558509 0.313663 0.000000 
0.559652 0.101148 0.000000 
0.559208 0.170717 0.000000 
0.677669 0.171006 0.000000 
0.618426 0.170803 0.000000 
0.679035 0.101581 0.000000 
0.681854 -0.033140 0.000000 
0.680460 0.033511 0.000000 
0.620260 0.033135 0.000000 
0.990847 -0.088037 0.000000 
0.925712 -0.026753 0.000000 
0.918762 0.106848 0.000000 
0.922233 0.039412 0.000000 
0.982890 0.042846 0.000000 
0.861628 0.036953 0.000000 
0.798685 0.103067 0.000000 
0.907252 0.387883 0.000000 
0.909527 0.316033 0.000000 
0.968373 0.318349 0.000000 
0.792341 0.314045 0.000000 
0.850864 0.314718 0.000000 
0.790957 0.386732 0.000000 
0.975117 0.178546 0.000000 
0.912291 0.245216 0.000000 
0.915410 0.175471 0.000000 
0.616997 0.313646 0.000000 
0.558313 0.386870 0.000000 
0.736960 0.171415 0.000000 
0.676447 0.241719 0.000000 
0.674780 0.386735 0.000000 
0.675455 0.313653 0.000000 
0.733891 0.313749 0.000000 
0.855808 0.173439 0.000000 
0.794176 0.242508 0.000000 
0.796330 0.172165 0.000000 
0.963645 0.461820 0.000000 
0.905626 0.460749 0.000000 
0.905147 0.609544 0.000000 
0.904843 0.534628 0.000000 
0.962270 0.608737 0.000000 
0.847860 0.460462 0.000000 
0.790174 0.460530 0.000000 
0.926047 0.920797 0.000000 
0.916561 0.841219 0.000000 
0.980774 0.914908 0.000000 
0.793172 0.688044 0.000000 
0.854037 0.764718 0.000000 
0.796523 0.765583 0.000000 
0.966378 0.759260 0.000000 
0.910439 0.762741 0.000000 
0.906860 0.685550 0.000000 
0.616451 0.461021 0.000000 
0.558259 0.461103 0.000000 
0.732419 0.460708 0.000000 
0.674515 0.460885 0.000000 
0.675555 0.611997 0.000000 
0.674748 0.536010 0.000000 
0.733539 0.611730 0.000000 
0.848232 0.610516 0.000000 
0.791096 0.611260 0.000000 
0.790159 0.535392 0.000000 
0.937500 1.000000 0.000000 
0.867087 0.921698 0.000000 
0.745696 0.921814 0.000000 
0.806670 0.921835 0.000000 
0.812500 1.000000 0.000000 
0.801131 0.843622 0.000000 
0.738077 0.765912 0.000000 
0.500000 0.921674 0.000000 
0.561538 0.921684 0.000000 
0.562500 1.000000 0.000000 
0.559818 0.766033 0.000000 
0.560627 0.843676 0.000000 
0.500000 0.766030 0.000000 
0.687500 1.000000 0.000000 
0.623036 0.921715 0.000000 
0.684445 0.921762 0.000000 
0.558373 0.536254 0.000000 
0.500000 0.461130 0.000000 
0.676976 0.688717 0.000000 
0.617227 0.612140 0.000000 
0.500000 0.612228 0.000000 
0.558671 0.612207 0.000000 
0.559156 0.688840 0.000000 
0.681545 0.843742 0.000000 
0.619528 0.766037 0.000000 
0.679002 0.766016 0.000000 
0.437500 1.000000 0.000000 
0.438462 0.921684 0.000000 
0.315555 0.921762 0.000000 
0.376964 0.921715 0.000000 
0.312500 1.000000 0.000000 
0.439373 0.843676 0.000000 
0.440182 0.766033 0.000000 
0.073953 0.920797 0.000000 
0.132913 0.921698 0.000000 
0.062500 1.000000 0.000000 
0.261923 0.765912 0.000000 
0.198869 0.843622 0.000000 
0.203477 0.765583 0.000000 
0.187500 1.000000 0.000000 
0.193330 0.921835 0.000000 
0.254304 0.921814 0.000000 
0.441627 0.536254 0.000000 
0.441741 0.461103 0.000000 
0.440844 0.688840 0.000000 
0.441329 0.612207 0.000000 
0.324445 0.611997 0.000000 
0.382773 0.612140 0.000000 
0.323024 0.688717 0.000000 
0.318455 0.843742 0.000000 
0.320998 0.766016 0.000000 
0.380472 0.766037 0.000000 
0.019226 0.914908 0.000000 
0.083439 0.841219 0.000000 
0.093140 0.685550 0.000000 
0.089561 0.762741 0.000000 
0.033622 0.759260 0.000000 
0.145963 0.764718 0.000000 
0.206828 0.688044 0.000000 
0.092748 0.387883 0.000000 
0.094374 0.460749 0.000000 
0.036355 0.461820 0.000000 
0.209826 0.460530 0.000000 
0.152140 0.460462 0.000000 
0.209043 0.386732 0.000000 
0.037730 0.608737 0.000000 
0.095157 0.534628 0.000000 
0.094853 0.609544 0.000000 
0.383549 0.461021 0.000000 
0.441687 0.386870 0.000000 
0.266461 0.611730 0.000000 
0.325252 0.536010 0.000000 
0.325220 0.386735 0.000000 
0.325485 0.460885 0.000000 
0.267581 0.460708 0.000000 
0.151768 0.610516 0.000000 
0.209841 0.535392 0.000000 
0.208904 0.611260 0.000000 
0.031627 0.318349 0.000000 
0.090473 0.316033 0.000000 
0.084590 0.175471 0.000000 
0.087709 0.245216 0.000000 
0.024883 0.178546 0.000000 
0.149136 0.314718 0.000000 
0.207659 0.314045 0.000000 
0.074288 -0.026753 0.000000 
0.009153 -0.088037 0.000000 
0.201315 0.103067 0.000000 
0.138372 0.036953 0.000000 
0.017110 0.042846 0.000000 
0.077767 0.039412 0.000000 
0.081238 0.106848 0.000000 
0.383003 0.313646 0.000000 
0.266109 0.313749 0.000000 
0.324545 0.313653 0.000000 
0.323553 0.241719 0.000000 
0.263040 0.171415 0.000000 
0.144192 0.173439 0.000000 
0.203670 0.172165 0.000000 
0.205824 0.242508 0.000000 
0.036483 -0.153124 0.000000 
0.069274 -0.123369 0.000000 
0.038242 -0.121709 0.000000 
0.131287 -0.126094 0.000000 
0.100292 -0.124830 0.000000 
0.098876 -0.156276 0.000000 
0.103298 -0.060746 0.000000 
0.101769 -0.092979 0.000000 
0.133994 -0.061963 0.000000 
0.254868 -0.129433 0.000000 
0.224044 -0.128822 0.000000 
0.223271 -0.160366 0.000000 
0.225898 -0.064544 0.000000 
0.224930 -0.096876 0.000000 
0.256465 -0.065110 0.000000 
0.161177 -0.158663 0.000000 
0.193170 -0.128074 0.000000 
0.162249 -0.127170 0.000000 
0.230175 0.068431 0.000000 
0.229080 0.034660 0.000000 
0.260225 0.067983 0.000000 
0.165956 -0.030337 0.000000 
0.197654 0.001879 0.000000 
0.167287 0.002672 0.000000 
0.258299 0.000721 0.000000 
0.227991 0.001235 0.000000 
0.226925 -0.031836 0.000000 
0.163419 -0.095272 0.000000 
0.195297 -0.063843 0.000000 
0.164662 -0.062989 0.000000 
0.500000 -0.131204 0.000000 
0.469444 -0.131186 0.000000 
0.469388 -0.162864 0.000000 
0.469615 -0.066681 0.000000 
0.469522 -0.099125 0.000000 
0.500000 -0.066698 0.000000 
0.408116 -0.162675 0.000000 
0.438880 -0.131123 0.000000 
0.408299 -0.131012 0.000000 
0.470060 0.066837 0.000000 
0.469944 0.032910 0.000000 
0.500000 0.066826 0.000000 
0.409136 -0.033717 0.000000 
0.439654 -0.000611 0.000000 
0.409471 -0.000530 0.000000 
0.500000 -0.000672 0.000000 
0.469829 -0.000657 0.000000 
0.469718 -0.033856 0.000000 
0.285115 -0.161518 0.000000 
0.316369 -0.130315 0.000000 
0.285643 -0.129925 0.000000 
0.377691 -0.130847 0.000000 
0.347050 -0.130618 0.000000 
0.346715 -0.162251 0.000000 
0.347962 -0.066184 0.000000 
0.347474 -0.098594 0.000000 
0.378404 -0.066385 0.000000 
0.439225 -0.066626 0.000000 
0.408823 -0.066530 0.000000 
0.408539 -0.098963 0.000000 
[...]
POINT_DATA 16641

SCALARS u_h float 2
LOOKUP_TABLE default
0.005305 -0.151298 
-0.005305 -0.151298 
0.000000 0.000000 
0.000000 0.000000 
0.000000 -0.162876 
-0.034307 -0.110344 
0.000000 0.000000 
0.034307 -0.110344 
-0.000000 -0.113117 
0.004225 -0.161003 
-0.000000 -0.148892 
0.011187 -0.147871 
-0.004225 -0.161003 
-0.011187 -0.147871 
-0.021070 -0.139852 
-0.017106 -0.113319 
-0.036552 -0.066488 
-0.014642 -0.061495 
0.000000 0.000000 
-0.000000 -0.061150 
0.000000 0.000000 
0.014642 -0.061495 
0.036552 -0.066488 
0.017106 -0.113319 
0.021070 -0.139852 
0.005047 -0.157562 
0.007362 -0.157378 
0.010426 -0.154339 
0.000000 -0.158873 
0.003826 -0.158583 
0.002436 -0.162496 
0.007369 -0.133384 
0.005678 -0.148714 
-0.000000 -0.133425 
-0.002436 -0.162496 
-0.003826 -0.158583 
-0.010426 -0.154339 
-0.007362 -0.157378 
-0.005047 -0.157562 
-0.005678 -0.148714 
-0.007369 -0.133384 
-0.013107 -0.148261 
-0.016332 -0.145430 
-0.025959 -0.112955 
-0.021835 -0.131496 
-0.028441 -0.127034 
-0.014716 -0.133026 
-0.008417 -0.113188 
-0.037567 -0.090150 
-0.027488 -0.090044 
-0.015301 -0.031923 
-0.024700 -0.062874 
-0.028288 -0.038808 
-0.017408 -0.089245 
-0.008348 -0.088831 
0.000000 0.000000 
-0.008394 -0.031253 
-0.000000 -0.031335 
-0.003826 -0.031294 
0.000000 0.000000 
-0.006808 -0.061194 
-0.000000 -0.088718 
0.000000 0.000000 
0.003826 -0.031294 
0.015301 -0.031923 
0.008394 -0.031253 
0.000000 0.000000 
0.006808 -0.061194 
0.008348 -0.088831 
0.028288 -0.038808 
0.024700 -0.062874 
0.025959 -0.112955 
0.027488 -0.090044 
0.037567 -0.090150 
0.017408 -0.089245 
0.008417 -0.113188 
0.028441 -0.127034 
0.021835 -0.131496 
0.016332 -0.145430 
0.013107 -0.148261 
0.014716 -0.133026 
0.005181 -0.154796 
0.007609 -0.156720 
0.008406 -0.154037 
0.005625 -0.159965 
0.006694 -0.158652 
0.004754 -0.159592 
0.011373 -0.152230 
0.008957 -0.156163 
0.009258 -0.153323 
0.000000 -0.161643 
0.001538 -0.161566 
0.001263 -0.162795 
0.002384 -0.154549 
0.001932 -0.158806 
-0.000000 -0.154603 
0.003443 -0.161930 
0.003020 -0.161308 
0.004395 -0.160807 
0.003991 -0.123837 
0.003683 -0.133418 
-0.000000 -0.123829 
0.008465 -0.148419 
0.006574 -0.141697 
0.009831 -0.141494 
-0.000000 -0.141807 
0.003292 -0.141783 
0.002848 -0.148852 
0.005646 -0.158140 
0.004740 -0.154365 
0.007040 -0.153989 
-0.001263 -0.162795 
-0.001538 -0.161566 
-0.004395 -0.160807 
-0.003020 -0.161308 
-0.003443 -0.161930 
-0.001932 -0.158806 
-0.002384 -0.154549 
-0.008406 -0.154037 
-0.007609 -0.156720 
-0.005181 -0.154796 
-0.009258 -0.153323 
-0.008957 -0.156163 
-0.011373 -0.152230 
-0.004754 -0.159592 
-0.006694 -0.158652 
-0.005625 -0.159965 
-0.003683 -0.133418 
-0.003991 -0.123837 
-0.002848 -0.148852 
-0.003292 -0.141783 
-0.009831 -0.141494 
-0.006574 -0.141697 
-0.008465 -0.148419 
-0.005646 -0.158140 
-0.007040 -0.153989 
-0.004740 -0.154365 
-0.009153 -0.150537 
-0.011788 -0.151753 
-0.018738 -0.143152 
-0.015267 -0.148088 
-0.017110 -0.144654 
-0.013372 -0.150547 
-0.013815 -0.146933 
-0.030248 -0.112117 
-0.027973 -0.121467 
-0.031627 -0.119151 
-0.020159 -0.123455 
-0.024136 -0.122782 
-0.021543 -0.113268 
-0.024883 -0.133954 
-0.025209 -0.129784 
-0.022090 -0.137029 
-0.008003 -0.123854 
-0.004187 -0.113130 
-0.013040 -0.141085 
-0.011053 -0.133281 
-0.012720 -0.113265 
-0.012045 -0.123847 
-0.016109 -0.123751 
-0.019192 -0.139061 
-0.018324 -0.132492 
-0.016170 -0.140335 
-0.036355 -0.100680 
-0.031874 -0.101751 
-0.032353 -0.077956 
-0.032657 -0.090372 
-0.037730 -0.078763 
-0.027140 -0.102038 
-0.022326 -0.101970 
-0.011453 -0.016703 
-0.020939 -0.033781 
-0.019226 -0.022592 
-0.019328 -0.061956 
-0.020963 -0.047782 
-0.015977 -0.046917 
-0.033622 -0.053240 
-0.027061 -0.049759 
-0.030640 -0.064450 
-0.008549 -0.101479 
-0.004241 -0.101397 
-0.017581 -0.101792 
-0.012985 -0.101615 
-0.011945 -0.075503 
-0.012752 -0.088990 
-0.016461 -0.075770 
-0.026768 -0.076984 
-0.021404 -0.076240 
-0.022341 -0.089608 
0.000000 0.000000 
-0.007913 -0.015802 
-0.004304 -0.015686 
-0.005830 -0.015665 
0.000000 0.000000 
-0.011369 -0.031378 
-0.011923 -0.046588 
0.000000 -0.015826 
-0.000962 -0.015816 
0.000000 0.000000 
-0.002682 -0.046467 
-0.001873 -0.031324 
-0.000000 -0.046470 
0.000000 0.000000 
-0.001964 -0.015785 
-0.003055 -0.015738 
-0.004127 -0.088746 
-0.000000 -0.101370 
-0.010524 -0.061283 
-0.007773 -0.075360 
-0.000000 -0.075272 
-0.003829 -0.075293 
-0.003344 -0.061160 
-0.005955 -0.031258 
-0.005472 -0.046463 
-0.008498 -0.046484 
0.000000 0.000000 
0.000962 -0.015816 
0.003055 -0.015738 
0.001964 -0.015785 
0.000000 0.000000 
0.001873 -0.031324 
0.002682 -0.046467 
0.011453 -0.016703 
0.007913 -0.015802 
0.000000 0.000000 
0.011923 -0.046588 
0.011369 -0.031378 
0.015977 -0.046917 
0.000000 0.000000 
0.005830 -0.015665 
0.004304 -0.015686 
0.004127 -0.088746 
0.004241 -0.101397 
0.003344 -0.061160 
0.003829 -0.075293 
0.011945 -0.075503 
0.007773 -0.075360 
0.010524 -0.061283 
0.005955 -0.031258 
0.008498 -0.046484 
0.005472 -0.046463 
0.019226 -0.022592 
0.020939 -0.033781 
0.030640 -0.064450 
0.027061 -0.049759 
0.033622 -0.053240 
0.020963 -0.047782 
0.019328 -0.061956 
0.030248 -0.112117 
0.031874 -0.101751 
0.036355 -0.100680 
0.022326 -0.101970 
0.027140 -0.102038 
0.021543 -0.113268 
0.037730 -0.078763 
0.032657 -0.090372 
0.032353 -0.077956 
0.008549 -0.101479 
0.004187 -0.113130 
0.016461 -0.075770 
0.012752 -0.088990 
0.012720 -0.113265 
0.012985 -0.101615 
0.017581 -0.101792 
0.026768 -0.076984 
0.022341 -0.089608 
0.021404 -0.076240 
0.031627 -0.119151 
0.027973 -0.121467 
0.022090 -0.137029 
0.025209 -0.129784 
0.024883 -0.133954 
0.024136 -0.122782 
0.020159 -0.123455 
0.011788 -0.151753 
0.009153 -0.150537 
0.013815 -0.146933 
0.013372 -0.150547 
0.017110 -0.144654 
0.015267 -0.148088 
0.018738 -0.143152 
0.008003 -0.123854 
0.016109 -0.123751 
0.012045 -0.123847 
0.011053 -0.133281 
0.013040 -0.141085 
0.019192 -0.139061 
0.016170 -0.140335 
0.018324 -0.132492 
0.005233 -0.153124 
0.006774 -0.154619 
0.006992 -0.152959 
0.006287 -0.157344 
0.006542 -0.156080 
0.005126 -0.156276 
0.009548 -0.154496 
0.008019 -0.155479 
0.008994 -0.155713 
0.004868 -0.160683 
0.005294 -0.160072 
0.004521 -0.160366 
0.007148 -0.158294 
0.006180 -0.159376 
0.006465 -0.158860 
0.004927 -0.158663 
0.005670 -0.159324 
0.005999 -0.158420 
0.011425 -0.150319 
0.010330 -0.152840 
0.010225 -0.150767 
0.009706 -0.155337 
0.010154 -0.154371 
0.011037 -0.153578 
0.008299 -0.155529 
0.009241 -0.155015 
0.008175 -0.156836 
0.007169 -0.157772 
0.007797 -0.157593 
0.008412 -0.156739 
0.000000 -0.162454 
0.000694 -0.162436 
0.000638 -0.162864 
0.000865 -0.160431 
0.000772 -0.161625 
0.000000 -0.160448 
0.001866 -0.162675 
0.001380 -0.162373 
0.002049 -0.162262 
0.001310 -0.151913 
0.001194 -0.154590 
-0.000000 -0.151924 
0.002886 -0.158717 
0.002154 -0.156861 
0.003221 -0.156780 
-0.000000 -0.156922 
0.001079 -0.156907 
0.000968 -0.158856 
0.003865 -0.161518 
0.003869 -0.161565 
0.004393 -0.161175 
0.002691 -0.162097 
0.003300 -0.161868 
0.002965 -0.162251 
0.004212 -0.159934 
0.003724 -0.161094 
0.003404 -0.160135 
0.001725 -0.160376 
0.002573 -0.160280 
0.002289 -0.161463 
0.002050 -0.118608 
0.001994 -0.123831 
-0.000000 -0.118606 
0.005526 -0.133406 
0.003849 -0.128774 
0.005778 -0.128773 
-0.000000 -0.128773 
0.001924 -0.128773 
0.001841 -0.133423 
0.009836 -0.148184 
0.009161 -0.145122 
0.010654 -0.144918 
0.006135 -0.145372 
0.007653 -0.145269 
0.007078 -0.148591 
0.008729 -0.137637 
0.008207 -0.141615 
0.006988 -0.137698 
-0.000000 -0.145517 
0.001538 -0.145509 
0.001425 -0.148882 
0.001748 -0.137769 
0.001647 -0.141801 
-0.000000 -0.137773 
0.004267 -0.148798 
0.003075 -0.145485 
0.004608 -0.145441 
0.005243 -0.137736 
0.004935 -0.141750 
0.003496 -0.137758 
0.005030 -0.160436 
0.004748 -0.158394 
0.004994 -0.159663 
0.005746 -0.159311 
0.006519 -0.157807 
0.002617 -0.151877 
0.005210 -0.151714 
0.003918 -0.151813 
0.003567 -0.154476 
0.004275 -0.156657 
0.009001 -0.151114 
0.007329 -0.155934 
0.008161 -0.153700 
0.007755 -0.151377 
0.006490 -0.151573 
0.005314 -0.156483 
0.005898 -0.154206 
0.006333 -0.156246 
-0.000638 -0.162864 
-0.000694 -0.162436 
-0.002049 -0.162262 
-0.001380 -0.162373 
-0.001866 -0.162675 
-0.000772 -0.161625 
-0.000865 -0.160431 
-0.004393 -0.161175 
-0.003869 -0.161565 
-0.003865 -0.161518 
-0.003404 -0.160135 
-0.003724 -0.161094 
-0.004212 -0.159934 
-0.002965 -0.162251 
-0.003300 -0.161868 
-0.002691 -0.162097 
-0.001194 -0.154590 
-0.001310 -0.151913 
-0.000968 -0.158856 
-0.001079 -0.156907 
-0.003221 -0.156780 
-0.002154 -0.156861 
-0.002886 -0.158717 
-0.002289 -0.161463 
-0.002573 -0.160280 
-0.001725 -0.160376 
-0.006992 -0.152959 
-0.006774 -0.154619 
-0.005233 -0.153124 
-0.008994 -0.155713 
-0.008019 -0.155479 
-0.009548 -0.154496 
-0.005126 -0.156276 
-0.006542 -0.156080 
-0.006287 -0.157344 
-0.010225 -0.150767 
-0.010330 -0.152840 
-0.011425 -0.150319 
-0.008175 -0.156836 
-0.009241 -0.155015 
-0.008299 -0.155529 
-0.011037 -0.153578 
-0.010154 -0.154371 
-0.009706 -0.155337 
-0.004521 -0.160366 
-0.005294 -0.160072 
-0.004868 -0.160683 
-0.005999 -0.158420 
-0.005670 -0.159324 
-0.004927 -0.158663 
-0.006465 -0.158860 
-0.006180 -0.159376 
-0.007148 -0.158294 
-0.008412 -0.156739 
-0.007797 -0.157593 
-0.007169 -0.157772 
-0.001994 -0.123831 
-0.002050 -0.118608 
-0.001841 -0.133423 
-0.001924 -0.128773 
-0.005778 -0.128773 
-0.003849 -0.128774 
-0.005526 -0.133406 
-0.001425 -0.148882 
-0.001538 -0.145509 
-0.004608 -0.145441 
-0.003075 -0.145485 
-0.004267 -0.148798 
-0.001647 -0.141801 
-0.001748 -0.137769 
-0.010654 -0.144918 
-0.009161 -0.145122 
-0.009836 -0.148184 
-0.006988 -0.137698 
-0.008207 -0.141615 
-0.008729 -0.137637 
-0.007078 -0.148591 
-0.007653 -0.145269 
-0.006135 -0.145372 
-0.003496 -0.137758 
-0.004935 -0.141750 
-0.005243 -0.137736 
-0.005030 -0.160436 
-0.006519 -0.157807 
-0.005746 -0.159311 
-0.004994 -0.159663 
-0.004748 -0.158394 
-0.009001 -0.151114 
-0.006490 -0.151573 
-0.007755 -0.151377 
-0.008161 -0.153700 
-0.007329 -0.155934 
-0.002617 -0.151877 
-0.004275 -0.156657 
-0.003567 -0.154476 
-0.003918 -0.151813 
-0.005210 -0.151714 
-0.006333 -0.156246 
-0.005898 -0.154206 
-0.005314 -0.156483 
-0.007211 -0.151118 
-0.008778 -0.152389 
-0.012447 -0.150128 
-0.010598 -0.151438 
-0.011119 -0.149576 
-0.010079 -0.153075 
-0.011118 -0.153151 
-0.019909 -0.141647 
-0.018058 -0.144225 
-0.019102 -0.142395 
-0.015945 -0.147072 
-0.017010 -0.145774 
-0.017548 -0.144403 
-0.015108 -0.146614 
-0.016189 -0.146507 
-0.014314 -0.148479 
-0.012598 -0.149748 
-0.012514 -0.147460 
-0.011890 -0.152613 
-0.012387 -0.151473 
-0.015088 -0.146264 
-0.013742 -0.149033 
-0.014857 -0.148149 
-0.013522 -0.150085 
-0.014330 -0.149426 
-0.012716 -0.151456 
-0.032311 -0.111380 
-0.031137 -0.116040 
-0.033040 -0.114862 
-0.027171 -0.117558 
-0.029180 -0.116919 
-0.028126 -0.112623 
-0.030088 -0.123210 
-0.029823 -0.120460 
-0.028386 -0.124635 
-0.018792 -0.118617 
-0.020916 -0.118503 
-0.019321 -0.113314 
-0.023036 -0.127280 
-0.022161 -0.123180 
-0.021177 -0.127768 
-0.023760 -0.113158 
-0.023028 -0.118309 
-0.025117 -0.118006 
-0.023001 -0.137035 
-0.023497 -0.135642 
-0.021726 -0.138783 
-0.026841 -0.128561 
-0.025207 -0.132232 
-0.026701 -0.130618 
-0.022134 -0.134594 
-0.023686 -0.133543 
-0.023540 -0.130748 
-0.026076 -0.122225 
-0.024860 -0.126623 
-0.026644 -0.125757 
-0.004105 -0.118618 
-0.002091 -0.113116 
-0.007710 -0.128766 
-0.005994 -0.123845 
-0.006294 -0.113155 
-0.006168 -0.118636 
-0.008241 -0.118657 
-0.012129 -0.144641 
-0.011443 -0.141323 
-0.012888 -0.133179 
-0.012192 -0.137407 
-0.013906 -0.137211 
-0.010465 -0.137544 
-0.009212 -0.133345 
-0.014904 -0.113298 
-0.014541 -0.118697 
-0.016664 -0.118676 
-0.010328 -0.118678 
-0.012428 -0.118694 
-0.010558 -0.113226 
-0.015454 -0.128537 
-0.014076 -0.123816 
-0.013521 -0.128646 
-0.009645 -0.128749 
-0.011583 -0.128712 
-0.010020 -0.123856 
-0.020436 -0.140235 
-0.020548 -0.135424 
-0.020656 -0.138156 
-0.019123 -0.141428 
-0.017782 -0.142398 
-0.018139 -0.123637 
-0.016529 -0.132804 
-0.017379 -0.128368 
-0.019289 -0.128120 
-0.020094 -0.132066 
-0.013582 -0.144273 
-0.016411 -0.143177 
-0.015011 -0.143793 
-0.014617 -0.140763 
-0.015604 -0.136938 
-0.018929 -0.136071 
-0.017279 -0.136566 
-0.017696 -0.139777 
-0.035426 -0.105623 
-0.033326 -0.106483 
-0.034776 -0.095978 
-0.034155 -0.101349 
-0.037077 -0.095522 
-0.031153 -0.107060 
-0.028920 -0.107424 
-0.034573 -0.072075 
-0.035099 -0.078426 
-0.037330 -0.072740 
-0.030086 -0.090242 
-0.032658 -0.084296 
-0.029974 -0.083983 
-0.037796 -0.084565 
-0.035281 -0.084521 
-0.035162 -0.090370 
-0.022019 -0.107755 
-0.019709 -0.107735 
-0.026641 -0.107632 
-0.024335 -0.107730 
-0.024928 -0.096059 
-0.024732 -0.102029 
-0.027431 -0.096175 
-0.032385 -0.096189 
-0.029927 -0.096233 
-0.029528 -0.101961 
-0.007495 -0.008990 
-0.014659 -0.018378 
-0.012183 -0.013143 
-0.017855 -0.032587 
-0.016647 -0.025330 
-0.013889 -0.024331 
-0.024364 -0.030996 
-0.020239 -0.027356 
-0.024531 -0.035798 
-0.016904 -0.061683 
-0.017816 -0.054517 
-0.015514 -0.054269 
-0.023060 -0.055443 
-0.020327 -0.054893 
-0.021927 -0.062343 
-0.015944 -0.039460 
-0.018334 -0.047252 
-0.018379 -0.039925 
-0.035339 -0.059995 
-0.032282 -0.058552 
-0.033654 -0.065457 
-0.027841 -0.043768 
-0.030378 -0.051335 
-0.031313 -0.046194 
-0.027624 -0.063575 
-0.029120 -0.057260 
-0.026009 -0.056219 
-0.021182 -0.040699 
-0.023883 -0.048589 
-0.024371 -0.041934 
-0.004234 -0.107386 
-0.002114 -0.107368 
-0.008522 -0.107458 
-0.006367 -0.107416 
-0.006335 -0.095215 
-0.006382 -0.101431 
-0.008493 -0.095266 
-0.017416 -0.107688 
-0.015148 -0.107629 
-0.015232 -0.095521 
-0.015262 -0.101700 
-0.017584 -0.095641 
-0.012909 -0.107567 
-0.010701 -0.107509 
-0.013433 -0.068578 
-0.014154 -0.075617 
-0.015664 -0.068723 
-0.010522 -0.088900 
-0.012424 -0.082347 
-0.010234 -0.082257 
-0.017038 -0.082616 
-0.014689 -0.082464 
-0.015045 -0.089104 
-0.010748 -0.101540 
-0.012936 -0.095418 
-0.010691 -0.095333 
-0.031697 -0.071344 
-0.025923 -0.070058 
-0.028788 -0.070653 
-0.029556 -0.077455 
-0.027278 -0.083647 
-0.018023 -0.068926 
-0.019477 -0.082808 
-0.018876 -0.075974 
-0.020519 -0.069204 
-0.023156 -0.069576 
-0.019938 -0.101886 
-0.024897 -0.089824 
-0.022441 -0.095919 
-0.019989 -0.095776 
-0.019841 -0.089413 
-0.024040 -0.076575 
-0.022004 -0.083045 
-0.024610 -0.083327 
0.000000 0.000000 
-0.005627 -0.008175 
-0.003914 -0.007846 
-0.004616 -0.007931 
0.000000 0.000000 
-0.009383 -0.016063 
-0.011774 -0.023852 
-0.002156 -0.007856 
-0.002511 -0.007837 
0.000000 0.000000 
-0.007470 -0.023490 
-0.005021 -0.015668 
-0.006398 -0.023489 
0.000000 0.000000 
-0.002908 -0.007823 
-0.003365 -0.007821 
-0.013853 -0.046710 
-0.013393 -0.054108 
-0.013176 -0.031564 
-0.013818 -0.039190 
-0.010248 -0.038961 
-0.011937 -0.039039 
-0.009795 -0.031288 
-0.006772 -0.015698 
-0.008681 -0.023524 
-0.010086 -0.023625 
0.000000 -0.007951 
-0.000241 -0.007949 
0.000000 0.000000 
-0.000710 -0.023620 
-0.000478 -0.015824 
-0.000000 -0.023623 
0.000000 0.000000 
-0.000484 -0.007944 
-0.000732 -0.007936 
-0.001509 -0.053874 
-0.001334 -0.046470 
-0.000000 -0.053873 
-0.002834 -0.031311 
-0.002293 -0.038946 
-0.003469 -0.038937 
-0.000000 -0.038953 
-0.001141 -0.038952 
-0.000931 -0.031332 
0.000000 0.000000 
-0.001534 -0.007894 
-0.001833 -0.007875 
-0.000988 -0.007925 
-0.001254 -0.007911 
0.000000 0.000000 
-0.003704 -0.023554 
-0.002495 -0.015763 
-0.002915 -0.023577 
-0.001427 -0.023611 
-0.002159 -0.023597 
-0.001455 -0.015803 
-0.002116 -0.101377 
-0.000000 -0.107363 
-0.006220 -0.088780 
-0.004206 -0.095179 
-0.000000 -0.095151 
-0.002098 -0.095158 
-0.002058 -0.088725 
-0.012522 -0.061368 
-0.011312 -0.068475 
-0.007339 -0.068356 
-0.009287 -0.068404 
-0.008625 -0.061229 
-0.009823 -0.075420 
-0.008109 -0.082191 
-0.000000 -0.068288 
-0.001798 -0.068292 
-0.001664 -0.061153 
-0.001994 -0.082093 
-0.001908 -0.075277 
-0.000000 -0.082087 
-0.005053 -0.061172 
-0.003610 -0.068303 
-0.005452 -0.068324 
-0.006036 -0.082143 
-0.005780 -0.075319 
-0.004002 -0.082112 
-0.003654 -0.015711 
-0.004861 -0.031275 
-0.004537 -0.023528 
-0.005429 -0.023505 
-0.007125 -0.031248 
-0.003033 -0.053876 
-0.006184 -0.053891 
-0.004586 -0.053881 
-0.004056 -0.046465 
-0.004683 -0.038927 
-0.011425 -0.054008 
-0.008707 -0.038925 
-0.010148 -0.046519 
-0.009583 -0.053946 
-0.007843 -0.053911 
-0.005948 -0.038918 
-0.006947 -0.046468 
-0.007283 -0.038915 
0.000000 0.000000 
0.000241 -0.007949 
0.000732 -0.007936 
0.000484 -0.007944 
0.000000 0.000000 
0.000478 -0.015824 
0.000710 -0.023620 
0.001833 -0.007875 
0.001534 -0.007894 
0.000000 0.000000 
0.002915 -0.023577 
0.002495 -0.015763 
0.003704 -0.023554 
0.000000 0.000000 
0.001254 -0.007911 
0.000988 -0.007925 
0.001334 -0.046470 
0.001509 -0.053874 
0.000931 -0.031332 
0.001141 -0.038952 
0.003469 -0.038937 
0.002293 -0.038946 
0.002834 -0.031311 
0.001455 -0.015803 
0.002159 -0.023597 
0.001427 -0.023611 
0.007495 -0.008990 
0.005627 -0.008175 
0.000000 0.000000 
0.011774 -0.023852 
0.009383 -0.016063 
0.013889 -0.024331 
0.000000 0.000000 
0.004616 -0.007931 
0.003914 -0.007846 
0.013393 -0.054108 
0.013853 -0.046710 
0.015514 -0.054269 
0.009795 -0.031288 
0.011937 -0.039039 
0.010248 -0.038961 
0.015944 -0.039460 
0.013818 -0.039190 
0.013176 -0.031564 
0.000000 0.000000 
0.002511 -0.007837 
0.002156 -0.007856 
0.003365 -0.007821 
0.002908 -0.007823 
0.000000 0.000000 
0.006398 -0.023489 
0.005021 -0.015668 
0.007470 -0.023490 
0.010086 -0.023625 
0.008681 -0.023524 
0.006772 -0.015698 
0.002116 -0.101377 
0.002114 -0.107368 
0.002058 -0.088725 
0.002098 -0.095158 
0.006335 -0.095215 
0.004206 -0.095179 
0.006220 -0.088780 
0.001664 -0.061153 
0.001798 -0.068292 
0.005452 -0.068324 
0.003610 -0.068303 
0.005053 -0.061172 
0.001908 -0.075277 
0.001994 -0.082093 
0.013433 -0.068578 
0.011312 -0.068475 
0.012522 -0.061368 
0.008109 -0.082191 
0.009823 -0.075420 
0.010234 -0.082257 
0.008625 -0.061229 
0.009287 -0.068404 
0.007339 -0.068356 
0.004002 -0.082112 
0.005780 -0.075319 
0.006036 -0.082143 
0.003654 -0.015711 
0.007125 -0.031248 
0.005429 -0.023505 
0.004537 -0.023528 
0.004861 -0.031275 
0.011425 -0.054008 
0.007843 -0.053911 
0.009583 -0.053946 
0.010148 -0.046519 
0.008707 -0.038925 
0.003033 -0.053876 
0.004683 -0.038927 
0.004056 -0.046465 
0.004586 -0.053881 
0.006184 -0.053891 
0.007283 -0.038915 
0.006947 -0.046468 
0.005948 -0.038918 
0.012183 -0.013143 
0.014659 -0.018378 
0.024531 -0.035798 
0.020239 -0.027356 
0.024364 -0.030996 
0.016647 -0.025330 
0.017855 -0.032587 
0.033654 -0.065457 
0.032282 -0.058552 
0.035339 -0.059995 
0.026009 -0.056219 
0.029120 -0.057260 
0.027624 -0.063575 
0.031313 -0.046194 
0.030378 -0.051335 
0.027841 -0.043768 
0.017816 -0.054517 
0.016904 -0.061683 
0.018379 -0.039925 
0.018334 -0.047252 
0.021927 -0.062343 
0.020327 -0.054893 
0.023060 -0.055443 
0.024371 -0.041934 
0.023883 -0.048589 
0.021182 -0.040699 
0.032311 -0.111380 
0.033326 -0.106483 
0.035426 -0.105623 
0.028920 -0.107424 
0.031153 -0.107060 
0.028126 -0.112623 
0.037077 -0.095522 
0.034155 -0.101349 
0.034776 -0.095978 
0.019709 -0.107735 
0.022019 -0.107755 
0.019321 -0.113314 
0.027431 -0.096175 
0.024732 -0.102029 
0.024928 -0.096059 
0.023760 -0.113158 
0.024335 -0.107730 
0.026641 -0.107632 
0.037330 -0.072740 
0.035099 -0.078426 
0.034573 -0.072075 
0.035162 -0.090370 
0.035281 -0.084521 
0.037796 -0.084565 
0.029974 -0.083983 
0.032658 -0.084296 
0.030086 -0.090242 
0.029528 -0.101961 
0.029927 -0.096233 
0.032385 -0.096189 
0.004234 -0.107386 
0.002091 -0.113116 
0.008493 -0.095266 
0.006382 -0.101431 
0.006294 -0.113155 
0.006367 -0.107416 
0.008522 -0.107458 
0.015664 -0.068723 
0.014154 -0.075617 
0.015045 -0.089104 
0.014689 -0.082464 
0.017038 -0.082616 
0.012424 -0.082347 
0.010522 -0.088900 
0.014904 -0.113298 
0.015148 -0.107629 
0.017416 -0.107688 
0.010701 -0.107509 