# vtk DataFile Version 2.0
Unstructured Grid Example
ASCII
DATASET UNSTRUCTURED_GRID

POINTS 25 float
0.014843 -0.160744 0.000000 
0.985157 -0.160744 0.000000 
1.000000 1.000000 0.000000 
0.000000 1.000000 0.000000 
0.500000 -0.156137 0.000000 
0.969768 0.391212 0.000000 
0.500000 1.000000 0.000000 
0.030232 0.391212 0.000000 
0.500000 0.387030 0.000000 
0.257961 -0.159667 0.000000 
0.500000 0.105179 0.000000 
0.260023 0.104247 0.000000 
0.742039 -0.159667 0.000000 
0.739977 0.104247 0.000000 
0.978893 0.106492 0.000000 
0.735022 0.388341 0.000000 
0.967855 0.685355 0.000000 
0.737608 0.689758 0.000000 
0.750000 1.000000 0.000000 
0.500000 0.689902 0.000000 
0.250000 1.000000 0.000000 
0.262392 0.689758 0.000000 
0.032145 0.685355 0.000000 
0.264978 0.388341 0.000000 
0.021107 0.106492 0.000000 

CELLS 32 128
3  0 9 11 
3  4 10 9 
3  8 11 10 
3  9 10 11 
3  4 12 10 
3  1 13 12 
3  8 10 13 
3  12 13 10 
3  1 14 13 
3  5 15 14 
3  8 13 15 
3  14 15 13 
3  5 16 15 
3  2 17 16 
3  8 15 17 
3  16 17 15 
3  2 18 17 
3  6 19 18 
3  8 17 19 
3  18 19 17 
3  6 20 19 
3  3 21 20 
3  8 19 21 
3  20 21 19 
3  3 22 21 
3  7 23 22 
3  8 21 23 
3  22 23 21 
3  7 24 23 
3  0 11 24 
3  8 23 11 
3  24 11 23 

CELL_TYPES 32
5
5
5
5
5
5
5
5
5
5
5
5
5
5
5
5
5
5
5
5
5
5
5
5
5
5
5
5
5
5
5
5

POINT_DATA 25

SCALARS u_h float 2
LOOKUP_TABLE default
0.014843 -0.160744 
-0.014843 -0.160744 
0.000000 0.000000 
0.000000 0.000000 
-0.000000 -0.156137 
-0.030232 -0.108788 
0.000000 0.000000 
0.030232 -0.108788 
-0.000000 -0.112970 
0.007961 -0.159667 
-0.000000 -0.144821 
0.010023 -0.145753 
-0.007961 -0.159667 
-0.010023 -0.145753 
-0.021107 -0.143508 
-0.014978 -0.111659 
-0.032145 -0.064645 
-0.012392 -0.060242 
0.000000 0.000000 
-0.000000 -0.060098 
0.000000 0.000000 
0.012392 -0.060242 
0.032145 -0.064645 
0.014978 -0.111659 
0.021107 -0.143508 

CELL_DATA 32

SCALARS epsilon float 4
LOOKUP_TABLE default
-0.027909 0.054086 0.000000 0.006266
-0.032351 0.044341 0.000000 0.006746
-0.040893 0.119398 0.000000 0.001650
-0.040890 0.054088 0.000000 0.006046
-0.032351 0.044341 0.000000 -0.006746
-0.027909 0.054086 0.000000 -0.006266
-0.040893 0.119398 0.000000 -0.001650
-0.040890 0.054088 0.000000 -0.006046
-0.044800 0.066833 0.000000 -0.008864
-0.061900 0.129824 0.000000 -0.014124
-0.061430 0.127316 0.000000 -0.008093
-0.044990 0.127404 0.000000 -0.006279
-0.062769 0.161467 0.000000 0.000878
-0.074047 0.228542 0.000000 0.059868
-0.061705 0.185099 0.000000 0.007507
-0.081907 0.185420 0.000000 -0.001797
0.000798 0.213030 0.000000 0.023849
0.000000 0.212584 0.000000 0.000000
-0.050791 0.189804 0.000000 -0.000237
-0.049884 0.213054 0.000000 0.024861
0.000000 0.212584 0.000000 0.000000
0.000798 0.213030 0.000000 -0.023849
-0.050791 0.189804 0.000000 0.000237
-0.049884 0.213054 0.000000 -0.024861
-0.074047 0.228542 0.000000 -0.059868
-0.062769 0.161467 0.000000 -0.000878
-0.061705 0.185099 0.000000 -0.007507
-0.081907 0.185420 0.000000 0.001797
-0.061900 0.129824 0.000000 0.014124
-0.044800 0.066833 0.000000 0.008864
-0.061430 0.127316 0.000000 0.008093
-0.044990 0.127404 0.000000 0.006279

SCALARS sigma float 4
LOOKUP_TABLE default
-0.189957 1.210120 0.261765 0.104677
-0.395615 0.883781 0.119899 0.118805
0.109725 3.053169 0.785050 0.035387
-0.515738 1.073519 0.131979 0.098754
-0.395615 0.883781 0.119899 -0.118805
-0.189957 1.210120 0.261765 -0.104677
0.109725 3.053169 0.785050 -0.035387
-0.515738 1.073519 0.131979 -0.098754
-0.491915 1.405123 0.220330 -0.127096
-0.316713 3.159683 0.679241 -0.186528
-0.327052 3.079195 0.658866 -0.110806
0.081462 3.265516 0.824140 -0.074129
-0.039523 4.180715 0.986982 0.051245
0.288026 6.497422 1.544951 0.819413
0.208398 4.998842 1.233943 0.135006
-0.281306 4.771590 1.035123 -0.091584
2.151361 6.741203 2.138280 0.391117
2.125841 6.699892 2.125841 0.000000
0.528100 5.288979 1.390130 -0.005930
0.770989 6.138322 1.631696 0.383968
2.125841 6.699892 2.125841 0.000000
2.151361 6.741203 2.138280 -0.391117
0.528100 5.288979 1.390130 0.005930
0.770989 6.138322 1.631696 -0.383968
0.288026 6.497422 1.544951 -0.819413
-0.039523 4.180715 0.986982 -0.051245
0.208398 4.998842 1.233943 -0.135006
-0.281306 4.771590 1.035123 0.091584
-0.316713 3.159683 0.679241 0.186528
-0.491915 1.405123 0.220330 0.127096
-0.327052 3.079195 0.658866 0.110806
0.081462 3.265516 0.824140 0.074129

