# vtk DataFile Version 2.0
Unstructured Grid Example
ASCII
DATASET UNSTRUCTURED_GRID

POINTS 81 float
0.009288 -0.142736 0.000000 
0.990712 -0.142736 0.000000 
1.000000 1.000000 0.000000 
0.000000 1.000000 0.000000 
0.500000 -0.097491 0.000000 
0.975173 0.400998 0.000000 
0.500000 1.000000 0.000000 
0.024827 0.400998 0.000000 
0.500000 0.402131 0.000000 
0.256276 -0.134071 0.000000 
0.500000 0.133767 0.000000 
0.254274 0.123484 0.000000 
0.743724 -0.134071 0.000000 
0.745726 0.123484 0.000000 
0.986771 0.121718 0.000000 
0.739079 0.399952 0.000000 
0.970835 0.690205 0.000000 
0.739156 0.694473 0.000000 
0.750000 1.000000 0.000000 
0.500000 0.695556 0.000000 
0.250000 1.000000 0.000000 
0.260844 0.694473 0.000000 
0.029165 0.690205 0.000000 
0.260921 0.399952 0.000000 
0.013229 0.121718 0.000000 
0.133055 -0.140820 0.000000 
0.252762 -0.007499 0.000000 
0.131090 -0.012677 0.000000 
0.500000 0.012176 0.000000 
0.374700 0.004362 0.000000 
0.377272 -0.112583 0.000000 
0.377903 0.262921 0.000000 
0.375945 0.130040 0.000000 
0.500000 0.264474 0.000000 
0.622728 -0.112583 0.000000 
0.625300 0.004362 0.000000 
0.868910 -0.012677 0.000000 
0.747238 -0.007499 0.000000 
0.866945 -0.140820 0.000000 
0.624055 0.130040 0.000000 
0.622097 0.262921 0.000000 
0.990937 -0.012903 0.000000 
0.866428 0.120185 0.000000 
0.857031 0.398625 0.000000 
0.861838 0.257378 0.000000 
0.980741 0.259834 0.000000 
0.742468 0.259281 0.000000 
0.620208 0.402090 0.000000 
0.971011 0.543696 0.000000 
0.854531 0.543712 0.000000 
0.863439 0.846121 0.000000 
0.855943 0.692934 0.000000 
0.977400 0.841352 0.000000 
0.737684 0.545225 0.000000 
0.619262 0.546568 0.000000 
0.875000 1.000000 0.000000 
0.743612 0.846495 0.000000 
0.500000 0.846777 0.000000 
0.622123 0.846610 0.000000 
0.625000 1.000000 0.000000 
0.620043 0.695171 0.000000 
0.500000 0.547027 0.000000 
0.375000 1.000000 0.000000 
0.377877 0.846610 0.000000 
0.136561 0.846121 0.000000 
0.256388 0.846495 0.000000 
0.125000 1.000000 0.000000 
0.379957 0.695171 0.000000 
0.380738 0.546568 0.000000 
0.022600 0.841352 0.000000 
0.144057 0.692934 0.000000 
0.142969 0.398625 0.000000 
0.145469 0.543712 0.000000 
0.028989 0.543696 0.000000 
0.262316 0.545225 0.000000 
0.379792 0.402090 0.000000 
0.019259 0.259834 0.000000 
0.138162 0.257378 0.000000 
0.133572 0.120185 0.000000 
0.009063 -0.012903 0.000000 
0.257532 0.259281 0.000000 

CELLS 128 512
3  0 25 27 
3  9 26 25 
3  11 27 26 
3  25 26 27 
3  4 28 30 
3  10 29 28 
3  9 30 29 
3  28 29 30 
3  8 31 33 
3  11 32 31 
3  10 33 32 
3  31 32 33 
3  9 29 26 
3  10 32 29 
3  11 26 32 
3  29 32 26 
3  4 34 28 
3  12 35 34 
3  10 28 35 
3  34 35 28 
3  1 36 38 
3  13 37 36 
3  12 38 37 
3  36 37 38 
3  8 33 40 
3  10 39 33 
3  13 40 39 
3  33 39 40 
3  12 37 35 
3  13 39 37 
3  10 35 39 
3  37 39 35 
3  1 41 36 
3  14 42 41 
3  13 36 42 
3  41 42 36 
3  5 43 45 
3  15 44 43 
3  14 45 44 
3  43 44 45 
3  8 40 47 
3  13 46 40 
3  15 47 46 
3  40 46 47 
3  14 44 42 
3  15 46 44 
3  13 42 46 
3  44 46 42 
3  5 48 43 
3  16 49 48 
3  15 43 49 
3  48 49 43 
3  2 50 52 
3  17 51 50 
3  16 52 51 
3  50 51 52 
3  8 47 54 
3  15 53 47 
3  17 54 53 
3  47 53 54 
3  16 51 49 
3  17 53 51 
3  15 49 53 
3  51 53 49 
3  2 55 50 
3  18 56 55 
3  17 50 56 
3  55 56 50 
3  6 57 59 
3  19 58 57 
3  18 59 58 
3  57 58 59 
3  8 54 61 
3  17 60 54 
3  19 61 60 
3  54 60 61 
3  18 58 56 
3  19 60 58 
3  17 56 60 
3  58 60 56 
3  6 62 57 
3  20 63 62 
3  19 57 63 
3  62 63 57 
3  3 64 66 
3  21 65 64 
3  20 66 65 
3  64 65 66 
3  8 61 68 
3  19 67 61 
3  21 68 67 
3  61 67 68 
3  20 65 63 
3  21 67 65 
3  19 63 67 
3  65 67 63 
3  3 69 64 
3  22 70 69 
3  21 64 70 
3  69 70 64 
3  7 71 73 
3  23 72 71 
3  22 73 72 
3  71 72 73 
3  8 68 75 
3  21 74 68 
3  23 75 74 
3  68 74 75 
3  22 72 70 
3  23 74 72 
3  21 70 74 
3  72 74 70 
3  7 76 71 
3  24 77 76 
3  23 71 77 
3  76 77 71 
3  0 27 79 
3  11 78 27 
3  24 79 78 
3  27 78 79 
3  8 75 31 
3  23 80 75 
3  11 31 80 
3  75 80 31 
3  24 78 77 
3  11 80 78 
3  23 77 80 
3  78 80 77 

CELL_TYPES 128
5
5
5
5
5
5
5
5
5
5
5
5
5
5
5
5
5
5
5
5
5
5
5
5
5
5
5
5
5
5
5
5
5
5
5
5
5
5
5
5
5
5
5
5
5
5
5
5
5
5
5
5
5
5
5
5
5
5
5
5
5
5
5
5
5
5
5
5
5
5
5
5
5
5
5
5
5
5
5
5
5
5
5
5
5
5
5
5
5
5
5
5
5
5
5
5
5
5
5
5
5
5
5
5
5
5
5
5
5
5
5
5
5
5
5
5
5
5
5
5
5
5
5
5
5
5
5
5

POINT_DATA 81

SCALARS u_h float 2
LOOKUP_TABLE default
0.009288 -0.142736 
-0.009288 -0.142736 
0.000000 0.000000 
0.000000 0.000000 
-0.000000 -0.097491 
-0.024827 -0.099002 
0.000000 0.000000 
0.024827 -0.099002 
-0.000000 -0.097869 
0.006276 -0.134071 
-0.000000 -0.116233 
0.004274 -0.126516 
-0.006276 -0.134071 
-0.004274 -0.126516 
-0.013229 -0.128282 
-0.010921 -0.100048 
-0.029165 -0.059795 
-0.010844 -0.055527 
0.000000 0.000000 
0.000000 -0.054444 
0.000000 0.000000 
0.010844 -0.055527 
0.029165 -0.059795 
0.010921 -0.100048 
0.013229 -0.128282 
0.008055 -0.140820 
0.002762 -0.132499 
0.006090 -0.137677 
-0.000000 -0.112824 
-0.000300 -0.120638 
0.002272 -0.112583 
0.002903 -0.112079 
0.000945 -0.119960 
-0.000000 -0.110526 
-0.002272 -0.112583 
0.000300 -0.120638 
-0.006090 -0.137677 
-0.002762 -0.132499 
-0.008055 -0.140820 
-0.000945 -0.119960 
-0.002903 -0.112079 
-0.009063 -0.137903 
-0.008572 -0.129815 
-0.017969 -0.101375 
-0.013162 -0.117622 
-0.019259 -0.115166 
-0.007532 -0.115719 
-0.004792 -0.097910 
-0.028989 -0.081304 
-0.020469 -0.081288 
-0.011561 -0.028879 
-0.019057 -0.057066 
-0.022600 -0.033648 
-0.012316 -0.079775 
-0.005738 -0.078432 
0.000000 0.000000 
-0.006388 -0.028505 
0.000000 -0.028223 
-0.002877 -0.028390 
0.000000 0.000000 
-0.004957 -0.054829 
0.000000 -0.077973 
0.000000 0.000000 
0.002877 -0.028390 
0.011561 -0.028879 
0.006388 -0.028505 
0.000000 0.000000 
0.004957 -0.054829 
0.005738 -0.078432 
0.022600 -0.033648 
0.019057 -0.057066 
0.017969 -0.101375 
0.020469 -0.081288 
0.028989 -0.081304 
0.012316 -0.079775 
0.004792 -0.097910 
0.019259 -0.115166 
0.013162 -0.117622 
0.008572 -0.129815 
0.009063 -0.137903 
0.007532 -0.115719 

CELL_DATA 128

SCALARS epsilon float 4
LOOKUP_TABLE default
-0.009553 0.025182 0.000000 -0.000459
-0.012422 0.015476 0.000000 0.012402
-0.027395 0.047050 0.000000 0.025952
-0.026199 0.026344 0.000000 0.012118
-0.018344 -0.120222 0.000000 0.068790
0.002393 -0.025583 0.000000 0.032131
-0.028388 -0.044747 0.000000 0.081208
0.004004 -0.062924 0.000000 0.023191
-0.023497 0.096241 0.000000 0.005637
-0.027664 0.061567 0.000000 0.032669
-0.007590 0.045026 0.000000 0.014259
-0.023570 0.060957 0.000000 0.013830
-0.021693 0.019783 0.000000 0.032425
-0.007838 0.005557 0.000000 0.019846
-0.027537 0.047417 0.000000 0.031209
-0.025703 0.009133 0.000000 0.052258
-0.018344 -0.120222 0.000000 -0.068790
-0.028388 -0.044747 0.000000 -0.081208
0.002393 -0.025583 0.000000 -0.032131
0.004004 -0.062924 0.000000 -0.023191
-0.009553 0.025182 0.000000 0.000459
-0.027395 0.047050 0.000000 -0.025952
-0.012422 0.015476 0.000000 -0.012402
-0.026199 0.026344 0.000000 -0.012118
-0.023497 0.096241 0.000000 -0.005637
-0.007590 0.045026 0.000000 -0.014259
-0.027664 0.061567 0.000000 -0.032669
-0.023570 0.060957 0.000000 -0.013830
-0.021693 0.019783 0.000000 -0.032425
-0.027537 0.047417 0.000000 -0.031209
-0.007838 0.005557 0.000000 -0.019846
-0.025703 0.009133 0.000000 -0.052258
-0.024067 0.037924 0.000000 0.000048
-0.037037 0.074485 0.000000 -0.011533
-0.035299 0.060744 0.000000 -0.022646
-0.023923 0.060889 0.000000 -0.010989
-0.054709 0.121996 0.000000 -0.014876
-0.057695 0.121308 0.000000 -0.024789
-0.048009 0.100539 0.000000 -0.016254
-0.048619 0.122496 0.000000 -0.011270
-0.038971 0.106990 0.000000 -0.007919
-0.038127 0.082336 0.000000 -0.026833
-0.050346 0.117308 0.000000 -0.021661
-0.038023 0.106958 0.000000 -0.020823
-0.036918 0.093314 0.000000 -0.013338
-0.046118 0.117329 0.000000 -0.020768
-0.035322 0.082334 0.000000 -0.025540
-0.045971 0.092401 0.000000 -0.025992
-0.055308 0.132447 0.000000 -0.009051
-0.070468 0.157591 0.000000 -0.000796
-0.057991 0.147890 0.000000 -0.014952
-0.070300 0.148031 0.000000 -0.010581
-0.074226 0.240792 0.000000 0.079592
-0.065835 0.201614 0.000000 0.026003
-0.081974 0.189143 0.000000 0.018747
-0.088721 0.203490 0.000000 0.016328
-0.039045 0.143902 0.000000 -0.004008
-0.050356 0.149242 0.000000 -0.013095
-0.053836 0.175817 0.000000 0.001563
-0.054051 0.143879 0.000000 -0.008560
-0.083836 0.175916 0.000000 -0.003090
-0.067661 0.175851 0.000000 0.001005
-0.067409 0.149232 0.000000 -0.011037
-0.067165 0.175678 0.000000 0.000836
0.002822 0.205282 0.000000 0.044614
0.000866 0.202935 0.000000 0.024669
-0.041680 0.193641 0.000000 0.016782
-0.038936 0.205511 0.000000 0.045324
0.000000 0.201158 0.000000 -0.000000
-0.023284 0.188432 0.000000 -0.000551
0.000176 0.202209 0.000000 0.011115
-0.023074 0.202234 0.000000 0.010834
-0.046959 0.146745 0.000000 -0.001579
-0.048156 0.171484 0.000000 0.000853
-0.040445 0.170962 0.000000 -0.001294
-0.046924 0.171467 0.000000 0.001652
-0.027520 0.202974 0.000000 0.025006
-0.040299 0.189876 0.000000 0.007131
-0.047558 0.193728 0.000000 0.015827
-0.028363 0.189842 0.000000 0.007919
0.000000 0.201158 0.000000 -0.000000
0.000176 0.202209 0.000000 -0.011115
-0.023284 0.188432 0.000000 0.000551
-0.023074 0.202234 0.000000 -0.010834
0.002822 0.205282 0.000000 -0.044614
-0.041680 0.193641 0.000000 -0.016782
0.000866 0.202935 0.000000 -0.024669
-0.038936 0.205511 0.000000 -0.045324
-0.046959 0.146745 0.000000 0.001579
-0.040445 0.170962 0.000000 0.001294
-0.048156 0.171484 0.000000 -0.000853
-0.046924 0.171467 0.000000 -0.001652
-0.027520 0.202974 0.000000 -0.025006
-0.047558 0.193728 0.000000 -0.015827
-0.040299 0.189876 0.000000 -0.007131
-0.028363 0.189842 0.000000 -0.007919
-0.074226 0.240792 0.000000 -0.079592
-0.081974 0.189143 0.000000 -0.018747
-0.065835 0.201614 0.000000 -0.026003
-0.088721 0.203490 0.000000 -0.016328
-0.055308 0.132447 0.000000 0.009051
-0.057991 0.147890 0.000000 0.014952
-0.070468 0.157591 0.000000 0.000796
-0.070300 0.148031 0.000000 0.010581
-0.039045 0.143902 0.000000 0.004008
-0.053836 0.175817 0.000000 -0.001563
-0.050356 0.149242 0.000000 0.013095
-0.054051 0.143879 0.000000 0.008560
-0.083836 0.175916 0.000000 0.003090
-0.067409 0.149232 0.000000 0.011037
-0.067661 0.175851 0.000000 -0.001005
-0.067165 0.175678 0.000000 -0.000836
-0.054709 0.121996 0.000000 0.014876
-0.048009 0.100539 0.000000 0.016254
-0.057695 0.121308 0.000000 0.024789
-0.048619 0.122496 0.000000 0.011270
-0.024067 0.037924 0.000000 -0.000048
-0.035299 0.060744 0.000000 0.022646
-0.037037 0.074485 0.000000 0.011533
-0.023923 0.060889 0.000000 0.010989
-0.038971 0.106990 0.000000 0.007919
-0.050346 0.117308 0.000000 0.021661
-0.038127 0.082336 0.000000 0.026833
-0.038023 0.106958 0.000000 0.020823
-0.036918 0.093314 0.000000 0.013338
-0.035322 0.082334 0.000000 0.025540
-0.046118 0.117329 0.000000 0.020768
-0.045971 0.092401 0.000000 0.025992

SCALARS sigma float 4
LOOKUP_TABLE default
-0.000494 0.583493 0.156290 0.001144
-0.159952 0.282597 0.030546 0.216123
-0.228411 1.016968 0.196541 0.453094
-0.408544 0.441264 0.001448 0.211412
-1.497146 -2.887885 -1.385665 0.636651
-0.159326 -0.633197 -0.231897 0.486449
-0.910304 -1.400525 -0.731351 1.016061
-0.500187 -1.520195 -0.589199 0.273855
0.335021 2.517791 0.727437 0.116869
-0.084250 1.435843 0.339032 0.589095
0.254692 1.161365 0.374356 0.264044
-0.009668 1.458214 0.373867 0.237812
-0.315552 0.294861 -0.019100 0.549137
-0.140424 0.071926 -0.022809 0.324943
-0.219377 1.026542 0.198808 0.547735
-0.488910 -0.007286 -0.165700 0.833119
-1.497146 -2.887885 -1.385665 -0.636651
-0.910304 -1.400525 -0.731351 -1.016061
-0.159326 -0.633197 -0.231897 -0.486449
-0.500187 -1.520195 -0.589199 -0.273855
-0.000494 0.583493 0.156290 -0.001144
-0.228411 1.016968 0.196541 -0.453094
-0.159952 0.282597 0.030546 -0.216123
-0.408544 0.441264 0.001448 -0.211412
0.335021 2.517791 0.727437 -0.116869
0.254692 1.161365 0.374356 -0.264044
-0.084250 1.435843 0.339032 -0.589095
-0.009668 1.458214 0.373867 -0.237812
-0.315552 0.294861 -0.019100 -0.549137
-0.219377 1.026542 0.198808 -0.547735
-0.140424 0.071926 -0.022809 -0.324943
-0.488910 -0.007286 -0.165700 -0.833119
-0.249878 0.788849 0.138576 -0.000596
-0.226245 1.716758 0.374479 -0.163033
-0.303174 1.331253 0.254452 -0.390148
-0.021800 1.452622 0.369667 -0.178213
-0.215843 2.991799 0.672877 -0.182495
-0.287379 2.941346 0.636124 -0.408232
-0.253826 2.394616 0.525308 -0.212544
-0.058996 3.072073 0.738772 -0.125300
0.039460 2.684549 0.680189 -0.125430
-0.163741 1.944685 0.442093 -0.472748
-0.142266 2.890380 0.669613 -0.378250
0.072495 2.696146 0.689349 -0.394631
-0.042440 2.288867 0.563965 -0.186079
-0.037299 2.937691 0.712109 -0.361736
-0.094664 1.974449 0.470118 -0.449480
-0.269617 2.169593 0.464296 -0.434691
-0.130489 3.314684 0.771389 -0.088151
-0.263637 3.963084 0.871230 -0.012502
-0.046566 3.788562 0.898988 -0.262751
-0.348116 3.651945 0.777308 -0.161207
0.365044 7.034456 1.665661 1.003296
0.254142 5.547262 1.357784 0.346640
-0.255037 4.913688 1.071687 0.198850
-0.287365 5.332002 1.147695 0.089588
0.391969 3.868532 1.048567 -0.064106
0.157901 3.917654 0.988857 -0.256855
0.317996 4.770506 1.219817 -0.014763
0.012556 3.697882 0.898280 -0.164542
-0.413250 4.423803 0.920804 -0.121939
-0.025990 4.610762 1.081892 -0.028434
-0.265180 3.722872 0.818228 -0.204754
-0.015384 4.610606 1.085128 -0.030278
2.127326 6.525013 2.081043 0.731667
2.052207 6.379441 2.038009 0.404577
0.799338 5.538704 1.519612 0.251329
0.981238 6.040488 1.665759 0.698652
2.011583 6.288760 2.011583 -0.000000
1.239725 5.563972 1.651481 -0.014177
2.026735 6.331847 2.023850 0.182289
1.379740 6.057211 1.791607 0.167806
0.216857 3.871950 0.997858 -0.035949
0.421540 4.688357 1.233278 -0.006639
0.615423 4.759844 1.305169 -0.031432
0.452906 4.702150 1.245431 0.012661
1.265291 6.044963 1.754536 0.394340
0.800124 5.416379 1.495771 0.099921
0.646928 5.472028 1.461698 0.224430
1.116338 5.555588 1.614794 0.122418
2.011583 6.288760 2.011583 -0.000000
2.026735 6.331847 2.023850 -0.182289
1.239725 5.563972 1.651481 0.014177
1.379740 6.057211 1.791607 -0.167806
2.127326 6.525013 2.081043 -0.731667
0.799338 5.538704 1.519612 -0.251329
2.052207 6.379441 2.038009 -0.404577
0.981238 6.040488 1.665759 -0.698652
0.216857 3.871950 0.997858 0.035949
0.615423 4.759844 1.305169 0.031432
0.421540 4.688357 1.233278 0.006639
0.452906 4.702150 1.245431 -0.012661
1.265291 6.044963 1.754536 -0.394340
0.646928 5.472028 1.461698 -0.224430
0.800124 5.416379 1.495771 -0.099921
1.116338 5.555588 1.614794 -0.122418
0.365044 7.034456 1.665661 -1.003296
-0.255037 4.913688 1.071687 -0.198850
0.254142 5.547262 1.357784 -0.346640
-0.287365 5.332002 1.147695 -0.089588
-0.130489 3.314684 0.771389 0.088151
-0.046566 3.788562 0.898988 0.262751
-0.263637 3.963084 0.871230 0.012502
-0.348116 3.651945 0.777308 0.161207
0.391969 3.868532 1.048567 0.064106
0.317996 4.770506 1.219817 0.014763
0.157901 3.917654 0.988857 0.256855
0.012556 3.697882 0.898280 0.164542
-0.413250 4.423803 0.920804 0.121939
-0.265180 3.722872 0.818228 0.204754
-0.025990 4.610762 1.081892 0.028434
-0.015384 4.610606 1.085128 0.030278
-0.215843 2.991799 0.672877 0.182495
-0.253826 2.394616 0.525308 0.212544
-0.287379 2.941346 0.636124 0.408232
-0.058996 3.072073 0.738772 0.125300
-0.249878 0.788849 0.138576 0.000596
-0.303174 1.331253 0.254452 0.390148
-0.226245 1.716758 0.374479 0.163033
-0.021800 1.452622 0.369667 0.178213
0.039460 2.684549 0.680189 0.125430
-0.142266 2.890380 0.669613 0.378250
-0.163741 1.944685 0.442093 0.472748
0.072495 2.696146 0.689349 0.394631
-0.042440 2.288867 0.563965 0.186079
-0.094664 1.974449 0.470118 0.449480
-0.037299 2.937691 0.712109 0.361736
-0.269617 2.169593 0.464296 0.434691

