# vtk DataFile Version 2.0
Unstructured Grid Example
ASCII
DATASET UNSTRUCTURED_GRID

POINTS 25 float
0.013649 -0.147049 0.000000 
0.986351 -0.147049 0.000000 
1.000000 1.000000 0.000000 
0.000000 1.000000 0.000000 
0.500000 -0.090282 0.000000 
0.974761 0.400203 0.000000 
0.500000 1.000000 0.000000 
0.025239 0.400203 0.000000 
0.500000 0.403203 0.000000 
0.258388 -0.137149 0.000000 
0.500000 0.137584 0.000000 
0.255953 0.121582 0.000000 
0.741612 -0.137149 0.000000 
0.744047 0.121582 0.000000 
0.984311 0.118642 0.000000 
0.738395 0.399531 0.000000 
0.972442 0.690184 0.000000 
0.740064 0.694832 0.000000 
0.750000 1.000000 0.000000 
0.500000 0.696578 0.000000 
0.250000 1.000000 0.000000 
0.259936 0.694832 0.000000 
0.027558 0.690184 0.000000 
0.261605 0.399531 0.000000 
0.015689 0.118642 0.000000 

CELLS 32 128
3  0 9 11 
3  4 10 9 
3  8 11 10 
3  9 10 11 
3  4 12 10 
3  1 13 12 
3  8 10 13 
3  12 13 10 
3  1 14 13 
3  5 15 14 
3  8 13 15 
3  14 15 13 
3  5 16 15 
3  2 17 16 
3  8 15 17 
3  16 17 15 
3  2 18 17 
3  6 19 18 
3  8 17 19 
3  18 19 17 
3  6 20 19 
3  3 21 20 
3  8 19 21 
3  20 21 19 
3  3 22 21 
3  7 23 22 
3  8 21 23 
3  22 23 21 
3  7 24 23 
3  0 11 24 
3  8 23 11 
3  24 11 23 

CELL_TYPES 32
5
5
5
5
5
5
5
5
5
5
5
5
5
5
5
5
5
5
5
5
5
5
5
5
5
5
5
5
5
5
5
5

POINT_DATA 25

SCALARS u_h float 2
LOOKUP_TABLE default
0.013649 -0.147049 
-0.013649 -0.147049 
0.000000 0.000000 
0.000000 0.000000 
-0.000000 -0.090282 
-0.025239 -0.099797 
0.000000 0.000000 
0.025239 -0.099797 
-0.000000 -0.096797 
0.008388 -0.137149 
-0.000000 -0.112416 
0.005953 -0.128418 
-0.008388 -0.137149 
-0.005953 -0.128418 
-0.015689 -0.131358 
-0.011605 -0.100469 
-0.027558 -0.059816 
-0.009936 -0.055168 
0.000000 0.000000 
-0.000000 -0.053422 
0.000000 0.000000 
0.009936 -0.055168 
0.027558 -0.059816 
0.011605 -0.100469 
0.015689 -0.131358 

CELL_DATA 32

SCALARS epsilon float 4
LOOKUP_TABLE default
-0.020839 0.035457 0.000000 0.014156
-0.034114 -0.069769 0.000000 0.102714
-0.024097 0.062436 0.000000 0.030106
-0.023434 0.036934 0.000000 0.025926
-0.034114 -0.069769 0.000000 -0.102714
-0.020839 0.035457 0.000000 -0.014156
-0.024097 0.062436 0.000000 -0.030106
-0.023434 0.036934 0.000000 -0.025926
-0.039762 0.060773 0.000000 -0.009754
-0.055278 0.118475 0.000000 -0.018757
-0.047579 0.105397 0.000000 -0.018325
-0.039724 0.105425 0.000000 -0.016923
-0.055959 0.147405 0.000000 -0.003657
-0.066625 0.213548 0.000000 0.049591
-0.047390 0.165345 0.000000 -0.002787
-0.072825 0.165428 0.000000 -0.004320
0.000530 0.197119 0.000000 0.019223
0.000000 0.191564 0.000000 0.000000
-0.040534 0.158796 0.000000 -0.002971
-0.039723 0.197366 0.000000 0.017162
0.000000 0.191564 0.000000 0.000000
0.000530 0.197119 0.000000 -0.019223
-0.040534 0.158796 0.000000 0.002971
-0.039723 0.197366 0.000000 -0.017162
-0.066625 0.213548 0.000000 -0.049591
-0.055959 0.147405 0.000000 0.003657
-0.047390 0.165345 0.000000 0.002787
-0.072825 0.165428 0.000000 0.004320
-0.055278 0.118475 0.000000 0.018757
-0.039762 0.060773 0.000000 0.009754
-0.047579 0.105397 0.000000 0.018325
-0.039724 0.105425 0.000000 0.016923

SCALARS sigma float 4
LOOKUP_TABLE default
-0.182384 0.750259 0.146177 0.255682
-1.184317 -1.971004 -1.038831 1.161443
0.018966 1.490089 0.383390 0.568551
-0.216459 0.762067 0.135005 0.461994
-1.184317 -1.971004 -1.038831 -1.161443
-0.182384 0.750259 0.146177 -0.255682
0.018966 1.490089 0.383390 -0.568551
-0.216459 0.762067 0.135005 -0.461994
-0.422186 1.279225 0.210111 -0.167369
-0.259551 2.874856 0.631972 -0.283399
-0.188050 2.544385 0.578175 -0.317777
0.008356 2.631233 0.657005 -0.292479
-0.003218 3.791876 0.914466 -0.048354
0.335624 6.016039 1.469221 0.673083
0.383408 4.488156 1.179550 -0.094236
-0.246777 4.197235 0.926036 -0.127092
1.985186 6.161232 1.976492 0.315260
1.915640 5.947699 1.915640 0.000000
0.496735 4.346755 1.182622 -0.070171
0.885244 5.693837 1.576431 0.241198
1.915640 5.947699 1.915640 0.000000
1.985186 6.161232 1.976492 -0.315260
0.496735 4.346755 1.182622 0.070171
0.885244 5.693837 1.576431 -0.241198
0.335624 6.016039 1.469221 -0.673083
-0.003218 3.791876 0.914466 0.048354
0.383408 4.488156 1.179550 0.094236
-0.246777 4.197235 0.926036 0.127092
-0.259551 2.874856 0.631972 0.283399
-0.422186 1.279225 0.210111 0.167369
-0.188050 2.544385 0.578175 0.317777
0.008356 2.631233 0.657005 0.292479

