# vtk DataFile Version 2.0
Unstructured Grid Example
ASCII
DATASET UNSTRUCTURED_GRID

POINTS 1089 float
0.007615 -0.142535 0.000000 
0.992385 -0.142535 0.000000 
1.000000 1.000000 0.000000 
0.000000 1.000000 0.000000 
0.500000 -0.099843 0.000000 
0.974118 0.399702 0.000000 
0.500000 1.000000 0.000000 
0.025882 0.399702 0.000000 
0.500000 0.401610 0.000000 
0.258214 -0.137258 0.000000 
0.500000 0.131167 0.000000 
0.254337 0.121920 0.000000 
0.741786 -0.137258 0.000000 
0.745663 0.121920 0.000000 
0.986421 0.120855 0.000000 
0.738762 0.398727 0.000000 
0.969182 0.689460 0.000000 
0.738432 0.693738 0.000000 
0.750000 1.000000 0.000000 
0.500000 0.694770 0.000000 
0.250000 1.000000 0.000000 
0.261568 0.693738 0.000000 
0.030818 0.689460 0.000000 
0.261238 0.398727 0.000000 
0.013579 0.120855 0.000000 
0.132663 -0.142714 0.000000 
0.252767 -0.009648 0.000000 
0.131546 -0.014521 0.000000 
0.500000 0.009208 0.000000 
0.374258 0.002104 0.000000 
0.379058 -0.114467 0.000000 
0.378254 0.261239 0.000000 
0.375959 0.127961 0.000000 
0.500000 0.262835 0.000000 
0.620942 -0.114467 0.000000 
0.625742 0.002104 0.000000 
0.868454 -0.014521 0.000000 
0.747233 -0.009648 0.000000 
0.867337 -0.142714 0.000000 
0.624041 0.127961 0.000000 
0.621746 0.261239 0.000000 
0.990657 -0.013614 0.000000 
0.866036 0.118712 0.000000 
0.856524 0.397332 0.000000 
0.861335 0.256026 0.000000 
0.980267 0.258860 0.000000 
0.742103 0.257900 0.000000 
0.619905 0.400815 0.000000 
0.969711 0.543045 0.000000 
0.853646 0.542693 0.000000 
0.862026 0.845475 0.000000 
0.854701 0.692182 0.000000 
0.975532 0.839695 0.000000 
0.737148 0.544212 0.000000 
0.619114 0.545610 0.000000 
0.875000 1.000000 0.000000 
0.743126 0.846152 0.000000 
0.500000 0.846337 0.000000 
0.621971 0.846284 0.000000 
0.625000 1.000000 0.000000 
0.619809 0.694496 0.000000 
0.500000 0.546160 0.000000 
0.375000 1.000000 0.000000 
0.378029 0.846284 0.000000 
0.137974 0.845475 0.000000 
0.256874 0.846152 0.000000 
0.125000 1.000000 0.000000 
0.380191 0.694496 0.000000 
0.380886 0.545610 0.000000 
0.024468 0.839695 0.000000 
0.145299 0.692182 0.000000 
0.143476 0.397332 0.000000 
0.146354 0.542693 0.000000 
0.030289 0.543045 0.000000 
0.262852 0.544212 0.000000 
0.380095 0.400815 0.000000 
0.019733 0.258860 0.000000 
0.138665 0.256026 0.000000 
0.133964 0.118712 0.000000 
0.009343 -0.013614 0.000000 
0.257897 0.257900 0.000000 
0.069997 -0.142933 0.000000 
0.131751 -0.079387 0.000000 
0.070021 -0.079566 0.000000 
0.254136 -0.074060 0.000000 
0.193204 -0.077768 0.000000 
0.195503 -0.141085 0.000000 
0.192756 0.052893 0.000000 
0.192317 -0.012972 0.000000 
0.253091 0.055644 0.000000 
0.500000 -0.047011 0.000000 
0.436927 -0.049833 0.000000 
0.438752 -0.103597 0.000000 
0.437127 0.067450 0.000000 
0.436697 0.007243 0.000000 
0.500000 0.068757 0.000000 
0.320011 -0.129566 0.000000 
0.374802 -0.057559 0.000000 
0.314382 -0.067342 0.000000 
0.439534 0.331179 0.000000 
0.439005 0.262418 0.000000 
0.500000 0.331461 0.000000 
0.314853 0.124877 0.000000 
0.377121 0.193746 0.000000 
0.316343 0.191528 0.000000 
0.500000 0.195978 0.000000 
0.438398 0.195380 0.000000 
0.437749 0.130293 0.000000 
0.313153 -0.004361 0.000000 
0.374906 0.064026 0.000000 
0.313644 0.059621 0.000000 
0.561248 -0.103597 0.000000 
0.563073 -0.049833 0.000000 
0.685618 -0.067342 0.000000 
0.625198 -0.057559 0.000000 
0.679989 -0.129566 0.000000 
0.563303 0.007243 0.000000 
0.562873 0.067450 0.000000 
0.929979 -0.079566 0.000000 
0.868249 -0.079387 0.000000 
0.930003 -0.142933 0.000000 
0.746909 0.055644 0.000000 
0.807683 -0.012972 0.000000 
0.807244 0.052893 0.000000 
0.804497 -0.141085 0.000000 
0.806796 -0.077768 0.000000 
0.745864 -0.074060 0.000000 
0.560995 0.262418 0.000000 
0.560466 0.331179 0.000000 
0.562251 0.130293 0.000000 
0.561602 0.195380 0.000000 
0.683657 0.191528 0.000000 
0.622879 0.193746 0.000000 
0.685147 0.124877 0.000000 
0.686847 -0.004361 0.000000 
0.686356 0.059621 0.000000 
0.625094 0.064026 0.000000 
0.991766 -0.078917 0.000000 
0.929512 -0.014625 0.000000 
0.926241 0.119014 0.000000 
0.928256 0.051638 0.000000 
0.988874 0.053081 0.000000 
0.867669 0.051564 0.000000 
0.805878 0.119748 0.000000 
0.915267 0.397773 0.000000 
0.917939 0.326778 0.000000 
0.977061 0.328928 0.000000 
0.799649 0.326629 0.000000 
0.858821 0.326179 0.000000 
0.797737 0.397789 0.000000 
0.983471 0.189488 0.000000 
0.920818 0.256638 0.000000 
0.923674 0.187371 0.000000 
0.620730 0.330306 0.000000 
0.560036 0.401480 0.000000 
0.743961 0.189312 0.000000 
0.682118 0.259596 0.000000 
0.679496 0.399825 0.000000 
0.680687 0.329049 0.000000 
0.740308 0.327709 0.000000 
0.863829 0.186870 0.000000 
0.801797 0.256578 0.000000 
0.803959 0.187627 0.000000 
0.971546 0.470999 0.000000 
0.913068 0.469635 0.000000 
0.911105 0.616130 0.000000 
0.911593 0.542404 0.000000 
0.968822 0.615849 0.000000 
0.854727 0.469500 0.000000 
0.796316 0.470052 0.000000 
0.927676 0.922114 0.000000 
0.919520 0.843897 0.000000 
0.983383 0.917356 0.000000 
0.796914 0.693106 0.000000 
0.857446 0.768430 0.000000 
0.799357 0.769255 0.000000 
0.971205 0.763989 0.000000 
0.914522 0.766773 0.000000 
0.911931 0.690885 0.000000 
0.619340 0.472628 0.000000 
0.559734 0.473145 0.000000 
0.737662 0.470917 0.000000 
0.678672 0.471838 0.000000 
0.678529 0.619148 0.000000 
0.678321 0.544986 0.000000 
0.737368 0.618527 0.000000 
0.853540 0.616920 0.000000 
0.795699 0.617771 0.000000 
0.795566 0.543394 0.000000 
0.937500 1.000000 0.000000 
0.868235 0.922840 0.000000 
0.746445 0.922963 0.000000 
0.807590 0.922958 0.000000 
0.812500 1.000000 0.000000 
0.803016 0.845974 0.000000 
0.740379 0.769679 0.000000 
0.500000 0.922941 0.000000 
0.561742 0.922938 0.000000 
0.562500 1.000000 0.000000 
0.560429 0.770201 0.000000 
0.561033 0.846317 0.000000 
0.500000 0.770247 0.000000 
0.687500 1.000000 0.000000 
0.623434 0.922941 0.000000 
0.685024 0.922950 0.000000 
0.559626 0.546013 0.000000 
0.500000 0.473311 0.000000 
0.679347 0.694184 0.000000 
0.619265 0.619616 0.000000 
0.500000 0.620028 0.000000 
0.559706 0.619913 0.000000 
0.559977 0.694691 0.000000 
0.682712 0.846234 0.000000 
0.620731 0.770098 0.000000 
0.680767 0.769933 0.000000 
0.437500 1.000000 0.000000 
0.438258 0.922938 0.000000 
0.314976 0.922950 0.000000 
0.376566 0.922941 0.000000 
0.312500 1.000000 0.000000 
0.438967 0.846317 0.000000 
0.439571 0.770201 0.000000 
0.072324 0.922114 0.000000 
0.131765 0.922840 0.000000 
0.062500 1.000000 0.000000 
0.259621 0.769679 0.000000 
0.196984 0.845974 0.000000 
0.200643 0.769255 0.000000 
0.187500 1.000000 0.000000 
0.192410 0.922958 0.000000 
0.253555 0.922963 0.000000 
0.440374 0.546013 0.000000 
0.440266 0.473145 0.000000 
0.440023 0.694691 0.000000 
0.440294 0.619913 0.000000 
0.321471 0.619148 0.000000 
0.380735 0.619616 0.000000 
0.320653 0.694184 0.000000 
0.317288 0.846234 0.000000 
0.319233 0.769933 0.000000 
0.379269 0.770098 0.000000 
0.016617 0.917356 0.000000 
0.080480 0.843897 0.000000 
0.088069 0.690885 0.000000 
0.085478 0.766773 0.000000 
0.028795 0.763989 0.000000 
0.142554 0.768430 0.000000 
0.203086 0.693106 0.000000 
0.084733 0.397773 0.000000 
0.086932 0.469635 0.000000 
0.028454 0.470999 0.000000 
0.203684 0.470052 0.000000 
0.145273 0.469500 0.000000 
0.202263 0.397789 0.000000 
0.031178 0.615849 0.000000 
0.088407 0.542404 0.000000 
0.088895 0.616130 0.000000 
0.380660 0.472628 0.000000 
0.439964 0.401480 0.000000 
0.262632 0.618527 0.000000 
0.321679 0.544986 0.000000 
0.320504 0.399825 0.000000 
0.321328 0.471838 0.000000 
0.262338 0.470917 0.000000 
0.146460 0.616920 0.000000 
0.204434 0.543394 0.000000 
0.204301 0.617771 0.000000 
0.022939 0.328928 0.000000 
0.082061 0.326778 0.000000 
0.076326 0.187371 0.000000 
0.079182 0.256638 0.000000 
0.016529 0.189488 0.000000 
0.141179 0.326179 0.000000 
0.200351 0.326629 0.000000 
0.070488 -0.014625 0.000000 
0.008234 -0.078917 0.000000 
0.194122 0.119748 0.000000 
0.132331 0.051564 0.000000 
0.011126 0.053081 0.000000 
0.071744 0.051638 0.000000 
0.073759 0.119014 0.000000 
0.379270 0.330306 0.000000 
0.259692 0.327709 0.000000 
0.319313 0.329049 0.000000 
0.317882 0.259596 0.000000 
0.256039 0.189312 0.000000 
0.136171 0.186870 0.000000 
0.196041 0.187627 0.000000 
0.198203 0.256578 0.000000 
0.038779 -0.142737 0.000000 
0.069999 -0.111457 0.000000 
0.038920 -0.111237 0.000000 
0.132167 -0.111269 0.000000 
0.101086 -0.111501 0.000000 
0.101296 -0.142958 0.000000 
0.100874 -0.047351 0.000000 
0.100908 -0.079619 0.000000 
0.131527 -0.047122 0.000000 
0.255789 -0.105873 0.000000 
0.225086 -0.108097 0.000000 
0.226903 -0.139514 0.000000 
0.222934 -0.044020 0.000000 
0.223752 -0.076224 0.000000 
0.253176 -0.041966 0.000000 
0.164076 -0.142118 0.000000 
0.194208 -0.109656 0.000000 
0.163219 -0.110682 0.000000 
0.223478 0.087275 0.000000 
0.222921 0.054095 0.000000 
0.253633 0.088650 0.000000 
0.161974 -0.013948 0.000000 
0.192394 0.019837 0.000000 
0.162138 0.018919 0.000000 
0.252774 0.022885 0.000000 
0.222597 0.021155 0.000000 
0.222576 -0.011551 0.000000 
0.162526 -0.078794 0.000000 
0.192574 -0.045519 0.000000 
0.162100 -0.046531 0.000000 
0.500000 -0.073820 0.000000 
0.468721 -0.074686 0.000000 
0.469288 -0.100787 0.000000 
0.468282 -0.019975 0.000000 
0.468406 -0.047765 0.000000 
0.500000 -0.019338 0.000000 
0.408639 -0.108193 0.000000 
0.437576 -0.077096 0.000000 
0.406692 -0.081026 0.000000 
0.468675 0.099358 0.000000 
0.468517 0.068414 0.000000 
0.500000 0.099635 0.000000 
0.405323 0.004988 0.000000 
0.436870 0.036988 0.000000 
0.405553 0.035148 0.000000 
0.500000 0.038593 0.000000 
0.468382 0.038167 0.000000 
0.468291 0.008684 0.000000 
0.289324 -0.134087 0.000000 
0.316345 -0.098570 0.000000 
0.286236 -0.102796 0.000000 
0.376164 -0.086389 0.000000 
0.346142 -0.092737 0.000000 
0.349804 -0.122377 0.000000 
0.343698 -0.032043 0.000000 
0.344420 -0.062578 0.000000 
0.374291 -0.028033 0.000000 
0.436680 -0.021718 0.000000 
0.405310 -0.024473 0.000000 
0.405679 -0.053162 0.000000 
0.469861 0.366330 0.000000 
[...]
POINT_DATA 1089

SCALARS u_h float 2
LOOKUP_TABLE default
0.007615 -0.142535 
-0.007615 -0.142535 
0.000000 0.000000 
0.000000 0.000000 
0.000000 -0.099843 
-0.025882 -0.100298 
0.000000 0.000000 
0.025882 -0.100298 
0.000000 -0.098390 
0.008214 -0.137258 
0.000000 -0.118833 
0.004337 -0.128080 
-0.008214 -0.137258 
-0.004337 -0.128080 
-0.013579 -0.129145 
-0.011238 -0.101273 
-0.030818 -0.060540 
-0.011568 -0.056262 
0.000000 0.000000 
0.000000 -0.055230 
0.000000 0.000000 
0.011568 -0.056262 
0.030818 -0.060540 
0.011238 -0.101273 
0.013579 -0.129145 
0.007663 -0.142714 
0.002767 -0.134648 
0.006546 -0.139521 
0.000000 -0.115792 
-0.000742 -0.122896 
0.004058 -0.114467 
0.003254 -0.113761 
0.000959 -0.122039 
0.000000 -0.112165 
-0.004058 -0.114467 
0.000742 -0.122896 
-0.006546 -0.139521 
-0.002767 -0.134648 
-0.007663 -0.142714 
-0.000959 -0.122039 
-0.003254 -0.113761 
-0.009343 -0.138614 
-0.008964 -0.131288 
-0.018476 -0.102668 
-0.013665 -0.118974 
-0.019733 -0.116140 
-0.007897 -0.117100 
-0.005095 -0.099185 
-0.030289 -0.081955 
-0.021354 -0.082307 
-0.012974 -0.029525 
-0.020299 -0.057818 
-0.024468 -0.035305 
-0.012852 -0.080788 
-0.005886 -0.079390 
0.000000 0.000000 
-0.006874 -0.028848 
0.000000 -0.028663 
-0.003029 -0.028716 
0.000000 0.000000 
-0.005191 -0.055504 
0.000000 -0.078840 
0.000000 0.000000 
0.003029 -0.028716 
0.012974 -0.029525 
0.006874 -0.028848 
0.000000 0.000000 
0.005191 -0.055504 
0.005886 -0.079390 
0.024468 -0.035305 
0.020299 -0.057818 
0.018476 -0.102668 
0.021354 -0.082307 
0.030289 -0.081955 
0.012852 -0.080788 
0.005095 -0.099185 
0.019733 -0.116140 
0.013665 -0.118974 
0.008964 -0.131288 
0.009343 -0.138614 
0.007897 -0.117100 
0.007497 -0.142933 
0.006751 -0.141887 
0.007521 -0.142066 
0.004136 -0.136560 
0.005704 -0.140268 
0.008003 -0.141085 
0.005256 -0.134607 
0.004817 -0.137972 
0.003091 -0.131856 
0.000000 -0.109511 
-0.000573 -0.112333 
0.001252 -0.103597 
-0.000373 -0.120050 
-0.000803 -0.117757 
0.000000 -0.118743 
0.007511 -0.129566 
-0.000198 -0.120059 
0.001882 -0.129842 
0.002034 -0.106321 
0.001505 -0.112582 
0.000000 -0.106039 
0.002353 -0.125123 
0.002121 -0.118754 
0.003843 -0.120972 
0.000000 -0.116522 
0.000898 -0.117120 
0.000249 -0.119707 
0.000653 -0.129361 
-0.000094 -0.123474 
0.001144 -0.127879 
-0.001252 -0.103597 
0.000573 -0.112333 
-0.001882 -0.129842 
0.000198 -0.120059 
-0.007511 -0.129566 
0.000803 -0.117757 
0.000373 -0.120050 
-0.007521 -0.142066 
-0.006751 -0.141887 
-0.007497 -0.142933 
-0.003091 -0.131856 
-0.004817 -0.137972 
-0.005256 -0.134607 
-0.008003 -0.141085 
-0.005704 -0.140268 
-0.004136 -0.136560 
-0.001505 -0.112582 
-0.002034 -0.106321 
-0.000249 -0.119707 
-0.000898 -0.117120 
-0.003843 -0.120972 
-0.002121 -0.118754 
-0.002353 -0.125123 
-0.000653 -0.129361 
-0.001144 -0.127879 
0.000094 -0.123474 
-0.008234 -0.141417 
-0.007988 -0.139625 
-0.011259 -0.130986 
-0.009244 -0.135862 
-0.011126 -0.134419 
-0.007331 -0.135936 
-0.006622 -0.130252 
-0.022233 -0.102227 
-0.019561 -0.110722 
-0.022939 -0.108572 
-0.012851 -0.110871 
-0.016179 -0.111321 
-0.014763 -0.102211 
-0.016529 -0.123012 
-0.016682 -0.118362 
-0.013826 -0.125129 
-0.004270 -0.107194 
-0.002464 -0.098520 
-0.006039 -0.123188 
-0.005382 -0.115404 
-0.008004 -0.100175 
-0.006813 -0.108451 
-0.009692 -0.109791 
-0.011171 -0.125630 
-0.010703 -0.118422 
-0.008541 -0.124873 
-0.028454 -0.091501 
-0.024432 -0.092865 
-0.026395 -0.071370 
-0.025907 -0.082596 
-0.031178 -0.071651 
-0.020273 -0.093000 
-0.016184 -0.092448 
-0.009824 -0.015386 
-0.017980 -0.031103 
-0.016617 -0.020144 
-0.015586 -0.056894 
-0.017554 -0.044070 
-0.013143 -0.043245 
-0.028795 -0.048511 
-0.022978 -0.045727 
-0.025569 -0.059115 
-0.005660 -0.089872 
-0.002766 -0.089355 
-0.012338 -0.091583 
-0.008828 -0.090662 
-0.008971 -0.068352 
-0.009179 -0.080014 
-0.012632 -0.068973 
-0.021460 -0.070580 
-0.016801 -0.069729 
-0.016934 -0.081606 
0.000000 0.000000 
-0.006765 -0.014660 
-0.003555 -0.014537 
-0.004910 -0.014542 
0.000000 0.000000 
-0.009484 -0.029026 
-0.009621 -0.042821 
0.000000 -0.014559 
-0.000758 -0.014562 
0.000000 0.000000 
-0.002071 -0.042299 
-0.001467 -0.028683 
0.000000 -0.042253 
0.000000 0.000000 
-0.001566 -0.014559 
-0.002476 -0.014550 
-0.002874 -0.078987 
0.000000 -0.089189 
-0.008153 -0.055816 
-0.005735 -0.067884 
0.000000 -0.067472 
-0.002794 -0.067587 
-0.002523 -0.055309 
-0.004788 -0.028766 
-0.004269 -0.042402 
-0.006733 -0.042567 
0.000000 0.000000 
0.000758 -0.014562 
0.002476 -0.014550 
0.001566 -0.014559 
0.000000 0.000000 
0.001467 -0.028683 
0.002071 -0.042299 
0.009824 -0.015386 
0.006765 -0.014660 
0.000000 0.000000 
0.009621 -0.042821 
0.009484 -0.029026 
0.013143 -0.043245 
0.000000 0.000000 
0.004910 -0.014542 
0.003555 -0.014537 
0.002874 -0.078987 
0.002766 -0.089355 
0.002523 -0.055309 
0.002794 -0.067587 
0.008971 -0.068352 
0.005735 -0.067884 
0.008153 -0.055816 
0.004788 -0.028766 
0.006733 -0.042567 
0.004269 -0.042402 
0.016617 -0.020144 
0.017980 -0.031103 
0.025569 -0.059115 
0.022978 -0.045727 
0.028795 -0.048511 
0.017554 -0.044070 
0.015586 -0.056894 
0.022233 -0.102227 
0.024432 -0.092865 
0.028454 -0.091501 
0.016184 -0.092448 
0.020273 -0.093000 
0.014763 -0.102211 
0.031178 -0.071651 
0.025907 -0.082596 
0.026395 -0.071370 
0.005660 -0.089872 
0.002464 -0.098520 
0.012632 -0.068973 
0.009179 -0.080014 
0.008004 -0.100175 
0.008828 -0.090662 
0.012338 -0.091583 
0.021460 -0.070580 
0.016934 -0.081606 
0.016801 -0.069729 
0.022939 -0.108572 
0.019561 -0.110722 
0.013826 -0.125129 
0.016682 -0.118362 
0.016529 -0.123012 
0.016179 -0.111321 
0.012851 -0.110871 
0.007988 -0.139625 
0.008234 -0.141417 
0.006622 -0.130252 
0.007331 -0.135936 
0.011126 -0.134419 
0.009244 -0.135862 
0.011259 -0.130986 
0.004270 -0.107194 
0.009692 -0.109791 
0.006813 -0.108451 
0.005382 -0.115404 
0.006039 -0.123188 
0.011171 -0.125630 
0.008541 -0.124873 
0.010703 -0.118422 
0.007529 -0.142737 
0.007499 -0.142707 
0.007670 -0.142487 
0.007167 -0.142519 
0.007336 -0.142751 
0.007546 -0.142958 
0.007124 -0.141101 
0.007158 -0.142119 
0.006527 -0.140872 
0.005789 -0.137123 
0.006336 -0.139347 
0.008153 -0.139514 
0.004184 -0.137770 
0.005002 -0.138724 
0.003176 -0.135716 
0.007826 -0.142118 
0.006708 -0.140906 
0.006969 -0.141932 
0.004728 -0.131475 
0.004171 -0.133405 
0.003633 -0.130100 
0.005724 -0.138948 
0.004894 -0.136413 
0.005888 -0.137331 
0.002774 -0.133365 
0.003847 -0.135095 
0.003826 -0.136551 
0.006276 -0.141294 
0.005074 -0.139269 
0.005850 -0.140281 
0.000000 -0.105070 
-0.000029 -0.105936 
0.000538 -0.100787 
-0.000468 -0.113725 
-0.000344 -0.110265 
0.000000 -0.113088 
0.002389 -0.108193 
0.000076 -0.108346 
0.000442 -0.112276 
-0.000075 -0.119392 
-0.000233 -0.119086 
0.000000 -0.119115 
-0.000927 -0.120012 
-0.000630 -0.119262 
-0.000697 -0.121102 
0.000000 -0.117657 
-0.000368 -0.118083 
-0.000459 -0.116316 
0.008074 -0.134087 
0.003845 -0.129820 
0.004986 -0.134046 
0.001164 -0.117639 
0.002392 -0.123987 
0.006054 -0.122377 
-0.000052 -0.125793 
0.000670 -0.125078 
-0.000709 -0.121783 
-0.000820 -0.115468 
-0.000940 -0.118223 
-0.000571 -0.115662 
0.001111 -0.102420 
0.000999 -0.106099 
0.000000 -0.102389 
0.002338 -0.113091 
0.001781 -0.109655 
0.002744 -0.110089 
0.000000 -0.109308 
0.000874 -0.109390 
0.000735 -0.112267 
0.003288 -0.126667 
0.003080 -0.123224 
0.004062 -0.124551 
0.001537 -0.120619 
0.002233 -0.121883 
0.001569 -0.123543 
0.003600 -0.117378 
0.002917 -0.119826 
0.002697 -0.116463 
0.000000 -0.117953 
0.000260 -0.118137 
0.000092 -0.119058 
0.000585 -0.114705 
0.000425 -0.116673 
0.000000 -0.114580 
0.000526 -0.120727 
0.000576 -0.118673 
0.000990 -0.119522 
0.001905 -0.115679 
0.001453 -0.117830 
0.001209 -0.115080 
0.003087 -0.133648 
-0.000199 -0.126135 
0.000948 -0.129702 
0.002074 -0.133039 
0.001683 -0.132243 
-0.000071 -0.120180 
0.000406 -0.122998 
0.000073 -0.121415 
-0.000345 -0.121554 
-0.000499 -0.123449 
0.002605 -0.128474 
0.001723 -0.131237 
0.002061 -0.129990 
0.001693 -0.126671 
0.000948 -0.124798 
-0.000002 -0.126090 
0.000407 -0.125647 
0.000767 -0.128767 
-0.000538 -0.100787 
0.000029 -0.105936 
-0.000442 -0.112276 
-0.000076 -0.108346 
-0.002389 -0.108193 
0.000344 -0.110265 
0.000468 -0.113725 
-0.004986 -0.134046 
-0.003845 -0.129820 
-0.008074 -0.134087 
0.000709 -0.121783 
-0.000670 -0.125078 
0.000052 -0.125793 
-0.006054 -0.122377 
-0.002392 -0.123987 
-0.001164 -0.117639 
0.000233 -0.119086 
0.000075 -0.119392 
0.000459 -0.116316 
0.000368 -0.118083 
0.000697 -0.121102 
0.000630 -0.119262 
0.000927 -0.120012 
0.000571 -0.115662 
0.000940 -0.118223 
0.000820 -0.115468 
-0.007670 -0.142487 
-0.007499 -0.142707 
-0.007529 -0.142737 
-0.006527 -0.140872 
-0.007158 -0.142119 
-0.007124 -0.141101 
-0.007546 -0.142958 
-0.007336 -0.142751 
-0.007167 -0.142519 
-0.003633 -0.130100 
-0.004171 -0.133405 
-0.004728 -0.131475 
-0.003826 -0.136551 
-0.003847 -0.135095 
-0.002774 -0.133365 
-0.005888 -0.137331 
-0.004894 -0.136413 
-0.005724 -0.138948 
-0.008153 -0.139514 
-0.006336 -0.139347 
-0.005789 -0.137123 
-0.006969 -0.141932 
-0.006708 -0.140906 
-0.007826 -0.142118 
-0.003176 -0.135716 
-0.005002 -0.138724 
-0.004184 -0.137770 
-0.005850 -0.140281 
-0.005074 -0.139269 
-0.006276 -0.141294 
-0.000999 -0.106099 
-0.001111 -0.102420 
-0.000735 -0.112267 
-0.000874 -0.109390 
-0.002744 -0.110089 
-0.001781 -0.109655 
-0.002338 -0.113091 
-0.000092 -0.119058 
-0.000260 -0.118137 
-0.000990 -0.119522 
-0.000576 -0.118673 
-0.000526 -0.120727 
-0.000425 -0.116673 
-0.000585 -0.114705 
-0.004062 -0.124551 
-0.003080 -0.123224 
-0.003288 -0.126667 
-0.002697 -0.116463 
-0.002917 -0.119826 
-0.003600 -0.117378 
-0.001569 -0.123543 
-0.002233 -0.121883 
-0.001537 -0.120619 
-0.001209 -0.115080 
-0.001453 -0.117830 
-0.001905 -0.115679 
-0.003087 -0.133648 
-0.001683 -0.132243 
-0.002074 -0.133039 
-0.000948 -0.129702 
0.000199 -0.126135 
-0.002605 -0.128474 
-0.000948 -0.124798 
-0.001693 -0.126671 
-0.002061 -0.129990 
-0.001723 -0.131237 
0.000071 -0.120180 
0.000499 -0.123449 
0.000345 -0.121554 
-0.000073 -0.121415 
-0.000406 -0.122998 
-0.000767 -0.128767 
-0.000407 -0.125647 
0.000002 -0.126090 
-0.007868 -0.142200 
-0.007867 -0.141805 
-0.008657 -0.139239 
-0.008182 -0.140710 
-0.008714 -0.140210 
-0.007666 -0.141027 
-0.007294 -0.139733 
-0.012404 -0.130274 
-0.011207 -0.132919 
-0.012277 -0.131901 
-0.009123 -0.133823 
-0.010167 -0.133553 
-0.010117 -0.131315 
-0.010145 -0.136670 
-0.010172 -0.135312 
-0.009319 -0.137428 
-0.005848 -0.132554 
-0.005460 -0.129292 
-0.006818 -0.137868 
-0.006314 -0.135450 
-0.007796 -0.130926 
-0.006964 -0.133314 
-0.008057 -0.133740 
-0.008513 -0.137894 
-0.008304 -0.136071 
-0.007688 -0.138048 
-0.024079 -0.101500 
-0.022704 -0.105781 
-0.024464 -0.104525 
-0.019153 -0.107004 
-0.020935 -0.106581 
-0.020359 -0.102591 
-0.021351 -0.112442 
-0.021250 -0.109875 
-0.019739 -0.113777 
-0.012149 -0.106227 
-0.013850 -0.106680 
-0.012970 -0.101781 
-0.014935 -0.115273 
-0.014501 -0.111199 
-0.013351 -0.115141 
-0.016605 -0.102523 
-0.015595 -0.106994 
-0.017368 -0.107120 
-0.015006 -0.126176 
-0.015165 -0.124299 
-0.013734 -0.127396 
-0.018201 -0.117483 
-0.016665 -0.120992 
-0.018115 -0.119664 
-0.013814 -0.122317 
-0.015235 -0.121856 
-0.015170 -0.118840 
-0.017869 -0.111182 
-0.016532 -0.115128 
-0.018134 -0.114650 
-0.002262 -0.102602 
-0.001220 -0.098368 
-0.003781 -0.110666 
-0.003119 -0.106693 
-0.003750 -0.098800 
-0.003457 -0.102923 
-0.004711 -0.103361 
-0.005152 -0.125780 
-0.004891 -0.122116 
-0.006596 -0.116273 
-0.005743 -0.119357 
-0.006964 -0.120296 
-0.004618 -0.118364 
-0.004267 -0.114549 
-0.009581 -0.100726 
-0.008937 -0.105084 
-0.010507 -0.105681 
-0.006038 -0.103888 
-0.007446 -0.104474 
-0.006510 -0.099652 
-0.008815 -0.113598 
-0.008212 -0.109132 
-0.007425 -0.112863 
-0.004904 -0.111350 
-0.006119 -0.112098 
-0.005499 -0.107792 
-0.012490 -0.128174 
-0.012399 -0.122427 
-0.012497 -0.125557 
-0.011253 -0.128558 
-0.010014 -0.128584 
-0.011243 -0.110386 
-0.009272 -0.117833 
-0.010276 -0.114255 
-0.011793 -0.114785 
-0.012172 -0.118818 
-0.006319 -0.126845 
-0.008771 -0.128285 
-0.007534 -0.127694 
-0.007264 -0.124124 
-0.008259 -0.121122 
-0.010994 -0.122234 
-0.009609 -0.121784 
-0.009849 -0.125389 
-0.027254 -0.095996 
-0.025355 -0.097039 
-0.027410 -0.087511 
-0.026473 -0.092378 
-0.029474 -0.086821 
-0.023408 -0.097658 
-0.021432 -0.097940 
-0.028728 -0.065862 
-0.028837 -0.071620 
-0.031176 -0.066201 
-0.023632 -0.082529 
-0.026293 -0.077106 
-0.023916 -0.076894 
-0.030869 -0.076900 
-0.028627 -0.077140 
-0.028139 -0.082434 
-0.015544 -0.097466 
-0.013664 -0.097048 
-0.019448 -0.097961 
-0.017479 -0.097786 
-0.018762 -0.087516 
-0.018207 -0.092783 
-0.020919 -0.087782 
-0.025275 -0.087846 
-0.023101 -0.087912 
-0.022357 -0.093048 
-0.006286 -0.008113 
-0.012620 -0.016804 
-0.010391 -0.011112 
-0.015243 -0.030095 
-0.014324 -0.023341 
-0.011891 -0.022493 
-0.021107 -0.028063 
-0.017476 -0.025040 
-0.021151 -0.032778 
-0.013493 -0.056549 
-0.014523 -0.050159 
-0.012522 -0.049858 
-0.019144 -0.051060 
-0.016727 -0.050549 
-0.017856 -0.057312 
-0.013335 -0.036455 
-0.015221 -0.043585 
-0.015498 -0.036875 
-0.030047 -0.054651 
-0.027340 -0.053570 
-0.028249 -0.059852 
-0.023905 -0.040075 
-0.025924 -0.046990 
-0.026975 -0.042084 
-0.022889 -0.058422 
-0.024529 -0.052570 
-0.021763 -0.051728 
-0.017995 -0.037542 
-0.020151 -0.044763 
-0.020830 -0.038573 
-0.002641 -0.094098 
-0.001320 -0.093962 
-0.005417 -0.094683 
-0.004000 -0.094344 
-0.004304 -0.084504 
-0.004186 -0.089572 
-0.005819 -0.084769 
-0.011852 -0.096571 
-0.010118 -0.096067 
-0.010826 -0.085886 
-0.010539 -0.091117 
-0.012678 -0.086319 
-0.008469 -0.095567 
-0.006903 -0.095098 
-0.010361 -0.062433 
-0.010741 -0.068645 
-0.012210 -0.062721 
-0.007490 -0.079678 
-0.009149 -0.074302 
-0.007460 -0.074006 
-0.012841 -0.075001 
-0.010940 -0.074636 
-0.010964 -0.080388 
-0.007204 -0.090241 
-0.009069 -0.085473 
-0.007402 -0.085096 
-0.026171 -0.065377 
-0.021057 -0.064327 
-0.023589 -0.064846 
-0.023916 -0.071001 
-0.021546 -0.076573 
-0.014200 -0.063049 
-0.014859 -0.075391 
-0.014651 -0.069336 
-0.016340 -0.063424 
-0.018630 -0.063850 
-0.014223 -0.092037 
-0.019112 -0.081986 
-0.016657 -0.087160 
-0.014624 -0.086751 
-0.014843 -0.081200 
-0.019077 -0.070148 
-0.016991 -0.075793 
-0.019227 -0.076195 
0.000000 0.000000 
-0.004840 -0.007544 
-0.003359 -0.007293 
-0.003979 -0.007358 
0.000000 0.000000 
-0.008052 -0.014870 
-0.010026 -0.022092 
-0.001784 -0.007294 
-0.002099 -0.007283 
0.000000 0.000000 
-0.006208 -0.021750 
-0.004188 -0.014534 
-0.005267 -0.021725 
0.000000 0.000000 
-0.002455 -0.007274 
-0.002867 -0.007274 
-0.011288 -0.043002 
-0.010703 -0.049621 
-0.011086 -0.029207 
-0.011455 -0.036188 
-0.008337 -0.035888 
-0.009804 -0.036011 
-0.008097 -0.028917 
-0.005751 -0.014574 
-0.007280 -0.021799 
-0.008529 -0.021896 
0.000000 -0.007334 
-0.000189 -0.007334 
0.000000 0.000000 
-0.000556 -0.021676 
-0.000376 -0.014561 
0.000000 -0.021671 
0.000000 0.000000 
-0.000381 -0.007334 
-0.000580 -0.007331 
-0.001150 -0.048846 
-0.001027 -0.042269 
0.000000 -0.048825 
-0.002230 -0.028698 
-0.001785 -0.035560 
-0.002713 -0.035588 
0.000000 -0.035528 
-0.000885 -0.035540 
-0.000727 -0.028672 
0.000000 0.000000 
-0.001245 -0.007314 
-0.001502 -0.007305 
-0.000788 -0.007327 
-0.001008 -0.007322 
0.000000 0.000000 
-0.002967 -0.021697 
-0.002004 -0.014555 
-0.002318 -0.021691 
-0.001122 -0.021681 
-0.001706 -0.021686 
-0.001152 -0.014562 
-0.001379 -0.089227 
0.000000 -0.093939 
-0.004353 -0.079158 
-0.002843 -0.084310 
0.000000 -0.084151 
-0.001415 -0.084193 
-0.001429 -0.078881 
-0.009794 -0.056021 
-0.008640 -0.062184 
-0.005512 -0.061793 
-0.007029 -0.061970 
-0.006625 -0.055645 
-0.007307 -0.068097 
-0.005860 -0.073756 
0.000000 -0.061451 
-0.001332 -0.061481 
-0.001252 -0.055255 
-0.001420 -0.073313 
-0.001388 -0.067507 
0.000000 -0.073275 
-0.003829 -0.055392 
-0.002682 -0.061548 
-0.004069 -0.061652 
-0.004331 -0.073554 
-0.004237 -0.067713 
-0.002858 -0.073406 
-0.002989 -0.014543 
-0.003877 -0.028739 
-0.003666 -0.021703 
-0.004427 -0.021712 
-0.005780 -0.028801 
-0.002318 -0.048887 
-0.004774 -0.049034 
-0.003520 -0.048950 
-0.003146 -0.042343 
-0.003684 -0.035624 
-0.009042 -0.049429 
-0.007018 -0.035797 
-0.008112 -0.042680 
-0.007515 -0.049271 
-0.006100 -0.049140 
-0.004713 -0.035670 
-0.005459 -0.042476 
-0.005818 -0.035726 
0.000000 0.000000 
0.000189 -0.007334 
0.000580 -0.007331 
0.000381 -0.007334 
0.000000 0.000000 
0.000376 -0.014561 
0.000556 -0.021676 
0.001502 -0.007305 
0.001245 -0.007314 
0.000000 0.000000 
0.002318 -0.021691 
0.002004 -0.014555 
0.002967 -0.021697 
0.000000 0.000000 
0.001008 -0.007322 
0.000788 -0.007327 
0.001027 -0.042269 
0.001150 -0.048846 
0.000727 -0.028672 
0.000885 -0.035540 
0.002713 -0.035588 
0.001785 -0.035560 
0.002230 -0.028698 
0.001152 -0.014562 
0.001706 -0.021686 
0.001122 -0.021681 
0.006286 -0.008113 
0.004840 -0.007544 
0.000000 0.000000 
0.010026 -0.022092 
0.008052 -0.014870 
0.011891 -0.022493 
0.000000 0.000000 
0.003979 -0.007358 
0.003359 -0.007293 
0.010703 -0.049621 
0.011288 -0.043002 
0.012522 -0.049858 
0.008097 -0.028917 
0.009804 -0.036011 
0.008337 -0.035888 
0.013335 -0.036455 
0.011455 -0.036188 
0.011086 -0.029207 
0.000000 0.000000 
0.002099 -0.007283 
0.001784 -0.007294 
0.002867 -0.007274 
0.002455 -0.007274 
0.000000 0.000000 
0.005267 -0.021725 
0.004188 -0.014534 
0.006208 -0.021750 
0.008529 -0.021896 
0.007280 -0.021799 
0.005751 -0.014574 
0.001379 -0.089227 
0.001320 -0.093962 
0.001429 -0.078881 
0.001415 -0.084193 
0.004304 -0.084504 
0.002843 -0.084310 
0.004353 -0.079158 
0.001252 -0.055255 
0.001332 -0.061481 
0.004069 -0.061652 
0.002682 -0.061548 
0.003829 -0.055392 
0.001388 -0.067507 
0.001420 -0.073313 
0.010361 -0.062433 
0.008640 -0.062184 
0.009794 -0.056021 
0.005860 -0.073756 
0.007307 -0.068097 
0.007460 -0.074006 
0.006625 -0.055645 
0.007029 -0.061970 
0.005512 -0.061793 
0.002858 -0.073406 
0.004237 -0.067713 
0.004331 -0.073554 
0.002989 -0.014543 
0.005780 -0.028801 
0.004427 -0.021712 
0.003666 -0.021703 
0.003877 -0.028739 
0.009042 -0.049429 
0.006100 -0.049140 
0.007515 -0.049271 
0.008112 -0.042680 
0.007018 -0.035797 
0.002318 -0.048887 
0.003684 -0.035624 
0.003146 -0.042343 
0.003520 -0.048950 
0.004774 -0.049034 
0.005818 -0.035726 
0.005459 -0.042476 
0.004713 -0.035670 
0.010391 -0.011112 
0.012620 -0.016804 
0.021151 -0.032778 
0.017476 -0.025040 
0.021107 -0.028063 
0.014324 -0.023341 
0.015243 -0.030095 
0.028249 -0.059852 
0.027340 -0.053570 
0.030047 -0.054651 
0.021763 -0.051728 
0.024529 -0.052570 
0.022889 -0.058422 
0.026975 -0.042084 
0.025924 -0.046990 
0.023905 -0.040075 
0.014523 -0.050159 
0.013493 -0.056549 
0.015498 -0.036875 
0.015221 -0.043585 
0.017856 -0.057312 
0.016727 -0.050549 
0.019144 -0.051060 
0.020830 -0.038573 
0.020151 -0.044763 
0.017995 -0.037542 
0.024079 -0.101500 
0.025355 -0.097039 
0.027254 -0.095996 
0.021432 -0.097940 
0.023408 -0.097658 
0.020359 -0.102591 
0.029474 -0.086821 
0.026473 -0.092378 
0.027410 -0.087511 
0.013664 -0.097048 
0.015544 -0.097466 
0.012970 -0.101781 
0.020919 -0.087782 
0.018207 -0.092783 
0.018762 -0.087516 
0.016605 -0.102523 
0.017479 -0.097786 
0.019448 -0.097961 
0.031176 -0.066201 
0.028837 -0.071620 
0.028728 -0.065862 
0.028139 -0.082434 
0.028627 -0.077140 
0.030869 -0.076900 
0.023916 -0.076894 
0.026293 -0.077106 
0.023632 -0.082529 
0.022357 -0.093048 
0.023101 -0.087912 
0.025275 -0.087846 
0.002641 -0.094098 
0.001220 -0.098368 
0.005819 -0.084769 
0.004186 -0.089572 
0.003750 -0.098800 
0.004000 -0.094344 
0.005417 -0.094683 
0.012210 -0.062721 
0.010741 -0.068645 
0.010964 -0.080388 
0.010940 -0.074636 
0.012841 -0.075001 
0.009149 -0.074302 
0.007490 -0.079678 
0.009581 -0.100726 
0.010118 -0.096067 
0.011852 -0.096571 
0.006903 -0.095098 
0.008469 -0.095567 
0.006510 -0.099652 