# vtk DataFile Version 2.0
Unstructured Grid Example
ASCII
DATASET UNSTRUCTURED_GRID

POINTS 9 float
0.015432 -0.136024 0.000000 
0.984568 -0.136024 0.000000 
1.000000 1.000000 0.000000 
0.000000 1.000000 0.000000 
0.500000 -0.060905 0.000000 
0.977357 0.409538 0.000000 
0.500000 1.000000 0.000000 
0.022643 0.409538 0.000000 
0.500000 0.417148 0.000000 

CELLS 8 32
3  0 4 8 
3  4 1 8 
3  1 5 8 
3  5 2 8 
3  2 6 8 
3  6 3 8 
3  3 7 8 
3  7 0 8 

CELL_TYPES 8
5
5
5
5
5
5
5
5

POINT_DATA 9

SCALARS u_h float 2
LOOKUP_TABLE default
0.015432 -0.136024 
-0.015432 -0.136024 
0.000000 0.000000 
0.000000 0.000000 
0.000000 -0.060905 
-0.022643 -0.090462 
0.000000 0.000000 
0.022643 -0.090462 
0.000000 -0.082852 

CELL_DATA 8

SCALARS epsilon float 4
LOOKUP_TABLE default
-0.031339 -0.031711 0.000000 0.078488
-0.031339 -0.031711 0.000000 -0.078488
-0.046423 0.086899 0.000000 -0.014459
-0.044893 0.165629 0.000000 0.016727
0.000000 0.152253 0.000000 -0.000000
0.000000 0.152253 0.000000 -0.000000
-0.044893 0.165629 0.000000 -0.016727
-0.046423 0.086899 0.000000 0.014459

SCALARS sigma float 4
LOOKUP_TABLE default
-0.899302 -1.097736 -0.630498 1.059659
-0.899302 -1.097736 -0.630498 -1.059659
-0.336115 1.985659 0.404762 -0.252569
0.445371 4.537850 1.207362 0.208546
1.522531 4.590851 1.522531 -0.000000
1.522531 4.590851 1.522531 -0.000000
0.445371 4.537850 1.207362 -0.208546
-0.336115 1.985659 0.404762 0.252569

