# vtk DataFile Version 2.0
Unstructured Grid Example
ASCII
DATASET UNSTRUCTURED_GRID

POINTS 4225 float
0.007337 -0.142365 0.000000 
0.992663 -0.142365 0.000000 
1.000000 1.000000 0.000000 
0.000000 1.000000 0.000000 
0.500000 -0.099960 0.000000 
0.974014 0.399555 0.000000 
0.500000 1.000000 0.000000 
0.025986 0.399555 0.000000 
0.500000 0.401585 0.000000 
0.258419 -0.137663 0.000000 
0.500000 0.130965 0.000000 
0.254346 0.121764 0.000000 
0.741581 -0.137663 0.000000 
0.745654 0.121764 0.000000 
0.986358 0.120741 0.000000 
0.738726 0.398610 0.000000 
0.969012 0.689446 0.000000 
0.738352 0.693666 0.000000 
0.750000 1.000000 0.000000 
0.500000 0.694699 0.000000 
0.250000 1.000000 0.000000 
0.261648 0.693666 0.000000 
0.030988 0.689446 0.000000 
0.261274 0.398610 0.000000 
0.013642 0.120741 0.000000 
0.132566 -0.142900 0.000000 
0.252772 -0.009888 0.000000 
0.131630 -0.014725 0.000000 
0.500000 0.008958 0.000000 
0.374224 0.001931 0.000000 
0.379174 -0.114547 0.000000 
0.378284 0.261090 0.000000 
0.375965 0.127783 0.000000 
0.500000 0.262699 0.000000 
0.620826 -0.114547 0.000000 
0.625776 0.001931 0.000000 
0.868370 -0.014725 0.000000 
0.747228 -0.009888 0.000000 
0.867434 -0.142900 0.000000 
0.624035 0.127783 0.000000 
0.621716 0.261090 0.000000 
0.990585 -0.013688 0.000000 
0.865979 0.118561 0.000000 
0.856477 0.397218 0.000000 
0.861282 0.255896 0.000000 
0.980211 0.258757 0.000000 
0.742066 0.257766 0.000000 
0.619877 0.400696 0.000000 
0.969605 0.542999 0.000000 
0.853566 0.542594 0.000000 
0.861847 0.845421 0.000000 
0.854566 0.692098 0.000000 
0.975223 0.839587 0.000000 
0.737091 0.544114 0.000000 
0.619090 0.545520 0.000000 
0.875000 1.000000 0.000000 
0.743059 0.846119 0.000000 
0.500000 0.846300 0.000000 
0.621947 0.846256 0.000000 
0.625000 1.000000 0.000000 
0.619777 0.694436 0.000000 
0.500000 0.546074 0.000000 
0.375000 1.000000 0.000000 
0.378053 0.846256 0.000000 
0.138153 0.845421 0.000000 
0.256941 0.846119 0.000000 
0.125000 1.000000 0.000000 
0.380223 0.694436 0.000000 
0.380910 0.545520 0.000000 
0.024777 0.839587 0.000000 
0.145434 0.692098 0.000000 
0.143523 0.397218 0.000000 
0.146434 0.542594 0.000000 
0.030395 0.542999 0.000000 
0.262909 0.544114 0.000000 
0.380123 0.400696 0.000000 
0.019789 0.258757 0.000000 
0.138718 0.255896 0.000000 
0.134021 0.118561 0.000000 
0.009415 -0.013688 0.000000 
0.257934 0.257766 0.000000 
0.069809 -0.143008 0.000000 
0.131803 -0.079606 0.000000 
0.070039 -0.079680 0.000000 
0.254241 -0.074412 0.000000 
0.193303 -0.078074 0.000000 
0.195510 -0.141371 0.000000 
0.192794 0.052699 0.000000 
0.192379 -0.013223 0.000000 
0.253085 0.055463 0.000000 
0.500000 -0.047273 0.000000 
0.436929 -0.049998 0.000000 
0.438632 -0.103726 0.000000 
0.437128 0.067249 0.000000 
0.436694 0.007052 0.000000 
0.500000 0.068529 0.000000 
0.320632 -0.129977 0.000000 
0.374779 -0.057672 0.000000 
0.314363 -0.067559 0.000000 
0.439558 0.331058 0.000000 
0.439026 0.262271 0.000000 
0.500000 0.331370 0.000000 
0.314854 0.124718 0.000000 
0.377142 0.193581 0.000000 
0.316365 0.191377 0.000000 
0.500000 0.195807 0.000000 
0.438413 0.195208 0.000000 
0.437758 0.130102 0.000000 
0.313097 -0.004532 0.000000 
0.374892 0.063842 0.000000 
0.313617 0.059456 0.000000 
0.561368 -0.103726 0.000000 
0.563071 -0.049998 0.000000 
0.685637 -0.067559 0.000000 
0.625221 -0.057672 0.000000 
0.679368 -0.129977 0.000000 
0.563306 0.007052 0.000000 
0.562872 0.067249 0.000000 
0.929961 -0.079680 0.000000 
0.868197 -0.079606 0.000000 
0.930191 -0.143008 0.000000 
0.746915 0.055463 0.000000 
0.807621 -0.013223 0.000000 
0.807206 0.052699 0.000000 
0.804490 -0.141371 0.000000 
0.806697 -0.078074 0.000000 
0.745759 -0.074412 0.000000 
0.560974 0.262271 0.000000 
0.560442 0.331058 0.000000 
0.562242 0.130102 0.000000 
0.561587 0.195208 0.000000 
0.683635 0.191377 0.000000 
0.622858 0.193581 0.000000 
0.685146 0.124718 0.000000 
0.686903 -0.004532 0.000000 
0.686383 0.059456 0.000000 
0.625108 0.063842 0.000000 
0.991776 -0.078890 0.000000 
0.929426 -0.014755 0.000000 
0.926174 0.118882 0.000000 
0.928172 0.051504 0.000000 
0.988798 0.052969 0.000000 
0.867597 0.051389 0.000000 
0.805844 0.119589 0.000000 
0.915203 0.397657 0.000000 
0.917873 0.326654 0.000000 
0.976994 0.328813 0.000000 
0.799603 0.326506 0.000000 
0.858766 0.326055 0.000000 
0.797698 0.397673 0.000000 
0.983417 0.189381 0.000000 
0.920760 0.256513 0.000000 
0.923616 0.187244 0.000000 
0.620698 0.330173 0.000000 
0.560018 0.401377 0.000000 
0.743935 0.189169 0.000000 
0.682085 0.259454 0.000000 
0.679462 0.399704 0.000000 
0.680651 0.328917 0.000000 
0.740268 0.327583 0.000000 
0.863777 0.186733 0.000000 
0.801753 0.256447 0.000000 
0.803920 0.187486 0.000000 
0.971458 0.470916 0.000000 
0.912998 0.469535 0.000000 
0.910988 0.616049 0.000000 
0.911504 0.542316 0.000000 
0.968689 0.615824 0.000000 
0.854666 0.469394 0.000000 
0.796261 0.469944 0.000000 
0.927404 0.922048 0.000000 
0.919259 0.843823 0.000000 
0.983024 0.916935 0.000000 
0.796805 0.693027 0.000000 
0.857280 0.768358 0.000000 
0.799236 0.769192 0.000000 
0.970978 0.763963 0.000000 
0.914316 0.766692 0.000000 
0.911776 0.690806 0.000000 
0.619319 0.472524 0.000000 
0.559731 0.473055 0.000000 
0.737615 0.470808 0.000000 
0.678636 0.471729 0.000000 
0.678480 0.619067 0.000000 
0.678279 0.544890 0.000000 
0.737298 0.618440 0.000000 
0.853435 0.616829 0.000000 
0.795610 0.617680 0.000000 
0.795495 0.543294 0.000000 
0.937500 1.000000 0.000000 
0.868116 0.922820 0.000000 
0.746408 0.922951 0.000000 
0.807527 0.922945 0.000000 
0.812500 1.000000 0.000000 
0.802906 0.845934 0.000000 
0.740297 0.769626 0.000000 
0.500000 0.922924 0.000000 
0.561736 0.922924 0.000000 
0.562500 1.000000 0.000000 
0.560415 0.770155 0.000000 
0.561022 0.846287 0.000000 
0.500000 0.770192 0.000000 
0.687500 1.000000 0.000000 
0.623422 0.922929 0.000000 
0.685003 0.922938 0.000000 
0.559619 0.545929 0.000000 
0.500000 0.473239 0.000000 
0.679292 0.694119 0.000000 
0.619236 0.619541 0.000000 
0.500000 0.619945 0.000000 
0.559694 0.619839 0.000000 
0.559963 0.694630 0.000000 
0.682671 0.846205 0.000000 
0.620700 0.770054 0.000000 
0.680715 0.769886 0.000000 
0.437500 1.000000 0.000000 
0.438264 0.922924 0.000000 
0.314997 0.922938 0.000000 
0.376578 0.922929 0.000000 
0.312500 1.000000 0.000000 
0.438978 0.846287 0.000000 
0.439585 0.770155 0.000000 
0.072596 0.922048 0.000000 
0.131884 0.922820 0.000000 
0.062500 1.000000 0.000000 
0.259703 0.769626 0.000000 
0.197094 0.845934 0.000000 
0.200764 0.769192 0.000000 
0.187500 1.000000 0.000000 
0.192473 0.922945 0.000000 
0.253592 0.922951 0.000000 
0.440381 0.545929 0.000000 
0.440269 0.473055 0.000000 
0.440037 0.694630 0.000000 
0.440306 0.619839 0.000000 
0.321520 0.619067 0.000000 
0.380764 0.619541 0.000000 
0.320708 0.694119 0.000000 
0.317329 0.846205 0.000000 
0.319285 0.769886 0.000000 
0.379300 0.770054 0.000000 
0.016976 0.916935 0.000000 
0.080741 0.843823 0.000000 
0.088224 0.690806 0.000000 
0.085684 0.766692 0.000000 
0.029022 0.763963 0.000000 
0.142720 0.768358 0.000000 
0.203195 0.693027 0.000000 
0.084797 0.397657 0.000000 
0.087002 0.469535 0.000000 
0.028542 0.470916 0.000000 
0.203739 0.469944 0.000000 
0.145334 0.469394 0.000000 
0.202302 0.397673 0.000000 
0.031311 0.615824 0.000000 
0.088496 0.542316 0.000000 
0.089012 0.616049 0.000000 
0.380681 0.472524 0.000000 
0.439982 0.401377 0.000000 
0.262702 0.618440 0.000000 
0.321721 0.544890 0.000000 
0.320538 0.399704 0.000000 
0.321364 0.471729 0.000000 
0.262385 0.470808 0.000000 
0.146565 0.616829 0.000000 
0.204505 0.543294 0.000000 
0.204390 0.617680 0.000000 
0.023006 0.328813 0.000000 
0.082127 0.326654 0.000000 
0.076384 0.187244 0.000000 
0.079240 0.256513 0.000000 
0.016583 0.189381 0.000000 
0.141234 0.326055 0.000000 
0.200397 0.326506 0.000000 
0.070574 -0.014755 0.000000 
0.008224 -0.078890 0.000000 
0.194156 0.119589 0.000000 
0.132403 0.051389 0.000000 
0.011202 0.052969 0.000000 
0.071828 0.051504 0.000000 
0.073826 0.118882 0.000000 
0.379302 0.330173 0.000000 
0.259732 0.327583 0.000000 
0.319349 0.328917 0.000000 
0.317915 0.259454 0.000000 
0.256065 0.189169 0.000000 
0.136223 0.186733 0.000000 
0.196080 0.187486 0.000000 
0.198247 0.256447 0.000000 
0.038542 -0.142726 0.000000 
0.069932 -0.111558 0.000000 
0.038832 -0.111256 0.000000 
0.132162 -0.111478 0.000000 
0.101047 -0.111660 0.000000 
0.101154 -0.143094 0.000000 
0.100946 -0.047523 0.000000 
0.100940 -0.079789 0.000000 
0.131605 -0.047338 0.000000 
0.255984 -0.106278 0.000000 
0.225229 -0.108457 0.000000 
0.226989 -0.139857 0.000000 
0.223003 -0.044318 0.000000 
0.223865 -0.076564 0.000000 
0.253215 -0.042256 0.000000 
0.164026 -0.142352 0.000000 
0.194295 -0.109964 0.000000 
0.163256 -0.110939 0.000000 
0.223495 0.087104 0.000000 
0.222937 0.053904 0.000000 
0.253634 0.088484 0.000000 
0.162050 -0.014181 0.000000 
0.192442 0.019616 0.000000 
0.162204 0.018709 0.000000 
0.252768 0.022680 0.000000 
0.222620 0.020937 0.000000 
0.222614 -0.011806 0.000000 
0.162602 -0.079058 0.000000 
0.192657 -0.045801 0.000000 
0.162183 -0.046784 0.000000 
0.500000 -0.074060 0.000000 
0.468709 -0.074872 0.000000 
0.469190 -0.100910 0.000000 
0.468285 -0.020188 0.000000 
0.468407 -0.047970 0.000000 
0.500000 -0.019598 0.000000 
0.408577 -0.108316 0.000000 
0.437567 -0.077248 0.000000 
0.406702 -0.081135 0.000000 
0.468680 0.099151 0.000000 
0.468521 0.068200 0.000000 
0.500000 0.099420 0.000000 
0.405307 0.004810 0.000000 
0.436868 0.036789 0.000000 
0.405540 0.034959 0.000000 
0.500000 0.038353 0.000000 
0.468384 0.037951 0.000000 
0.468293 0.008467 0.000000 
0.289714 -0.134537 0.000000 
0.316487 -0.098876 0.000000 
0.286448 -0.103205 0.000000 
0.376198 -0.086434 0.000000 
0.346153 -0.092836 0.000000 
0.350296 -0.122334 0.000000 
0.343635 -0.032197 0.000000 
0.344360 -0.062713 0.000000 
0.374255 -0.028186 0.000000 
0.436679 -0.021896 0.000000 
0.405297 -0.024630 0.000000 
0.405679 -0.053289 0.000000 
0.469879 0.366239 0.000000 
[...]
POINT_DATA 4225

SCALARS u_h float 2
LOOKUP_TABLE default
0.007337 -0.142365 
-0.007337 -0.142365 
0.000000 0.000000 
0.000000 0.000000 
-0.000000 -0.099960 
-0.025986 -0.100445 
0.000000 0.000000 
0.025986 -0.100445 
-0.000000 -0.098415 
0.008419 -0.137663 
-0.000000 -0.119035 
0.004346 -0.128236 
-0.008419 -0.137663 
-0.004346 -0.128236 
-0.013642 -0.129259 
-0.011274 -0.101390 
-0.030988 -0.060554 
-0.011648 -0.056334 
0.000000 0.000000 
0.000000 -0.055301 
0.000000 0.000000 
0.011648 -0.056334 
0.030988 -0.060554 
0.011274 -0.101390 
0.013642 -0.129259 
0.007566 -0.142900 
0.002772 -0.134888 
0.006630 -0.139725 
-0.000000 -0.116042 
-0.000776 -0.123069 
0.004174 -0.114547 
0.003284 -0.113910 
0.000965 -0.122217 
-0.000000 -0.112301 
-0.004174 -0.114547 
0.000776 -0.123069 
-0.006630 -0.139725 
-0.002772 -0.134888 
-0.007566 -0.142900 
-0.000965 -0.122217 
-0.003284 -0.113910 
-0.009415 -0.138688 
-0.009021 -0.131439 
-0.018523 -0.102782 
-0.013718 -0.119104 
-0.019789 -0.116243 
-0.007934 -0.117234 
-0.005123 -0.099304 
-0.030395 -0.082001 
-0.021434 -0.082406 
-0.013153 -0.029579 
-0.020434 -0.057902 
-0.024777 -0.035413 
-0.012909 -0.080886 
-0.005910 -0.079480 
0.000000 0.000000 
-0.006941 -0.028881 
0.000000 -0.028700 
-0.003053 -0.028744 
0.000000 0.000000 
-0.005223 -0.055564 
-0.000000 -0.078926 
0.000000 0.000000 
0.003053 -0.028744 
0.013153 -0.029579 
0.006941 -0.028881 
0.000000 0.000000 
0.005223 -0.055564 
0.005910 -0.079480 
0.024777 -0.035413 
0.020434 -0.057902 
0.018523 -0.102782 
0.021434 -0.082406 
0.030395 -0.082001 
0.012909 -0.080886 
0.005123 -0.099304 
0.019789 -0.116243 
0.013718 -0.119104 
0.009021 -0.131439 
0.009415 -0.138688 
0.007934 -0.117234 
0.007309 -0.143008 
0.006803 -0.142106 
0.007539 -0.142180 
0.004241 -0.136912 
0.005803 -0.140574 
0.008010 -0.141371 
0.005294 -0.134801 
0.004879 -0.138223 
0.003085 -0.132037 
-0.000000 -0.109773 
-0.000571 -0.112498 
0.001132 -0.103726 
-0.000372 -0.120251 
-0.000806 -0.117948 
-0.000000 -0.118971 
0.008132 -0.129977 
-0.000221 -0.120172 
0.001863 -0.130059 
0.002058 -0.106442 
0.001526 -0.112729 
-0.000000 -0.106130 
0.002354 -0.125282 
0.002142 -0.118919 
0.003865 -0.121123 
-0.000000 -0.116693 
0.000913 -0.117292 
0.000258 -0.119898 
0.000597 -0.129532 
-0.000108 -0.123658 
0.001117 -0.128044 
-0.001132 -0.103726 
0.000571 -0.112498 
-0.001863 -0.130059 
0.000221 -0.120172 
-0.008132 -0.129977 
0.000806 -0.117948 
0.000372 -0.120251 
-0.007539 -0.142180 
-0.006803 -0.142106 
-0.007309 -0.143008 
-0.003085 -0.132037 
-0.004879 -0.138223 
-0.005294 -0.134801 
-0.008010 -0.141371 
-0.005803 -0.140574 
-0.004241 -0.136912 
-0.001526 -0.112729 
-0.002058 -0.106442 
-0.000258 -0.119898 
-0.000913 -0.117292 
-0.003865 -0.121123 
-0.002142 -0.118919 
-0.002354 -0.125282 
-0.000597 -0.129532 
-0.001117 -0.128044 
0.000108 -0.123658 
-0.008224 -0.141390 
-0.008074 -0.139755 
-0.011326 -0.131118 
-0.009328 -0.135996 
-0.011202 -0.134531 
-0.007403 -0.136111 
-0.006656 -0.130411 
-0.022297 -0.102343 
-0.019627 -0.110846 
-0.023006 -0.108687 
-0.012897 -0.110994 
-0.016234 -0.111445 
-0.014802 -0.102327 
-0.016583 -0.123119 
-0.016740 -0.118487 
-0.013884 -0.125256 
-0.004302 -0.107327 
-0.002482 -0.098623 
-0.006065 -0.123331 
-0.005415 -0.115546 
-0.008038 -0.100296 
-0.006849 -0.108583 
-0.009732 -0.109917 
-0.011223 -0.125767 
-0.010747 -0.118553 
-0.008580 -0.125014 
-0.028542 -0.091584 
-0.024502 -0.092965 
-0.026512 -0.071451 
-0.025996 -0.082684 
-0.031311 -0.071676 
-0.020334 -0.093106 
-0.016239 -0.092556 
-0.010096 -0.015452 
-0.018241 -0.031177 
-0.016976 -0.020565 
-0.015695 -0.056973 
-0.017720 -0.044142 
-0.013264 -0.043308 
-0.029022 -0.048537 
-0.023184 -0.045808 
-0.025724 -0.059194 
-0.005681 -0.089976 
-0.002769 -0.089445 
-0.012385 -0.091692 
-0.008864 -0.090771 
-0.009020 -0.068433 
-0.009221 -0.080110 
-0.012702 -0.069060 
-0.021565 -0.070671 
-0.016890 -0.069820 
-0.017005 -0.081706 
0.000000 0.000000 
-0.006884 -0.014680 
-0.003592 -0.014549 
-0.004973 -0.014555 
0.000000 0.000000 
-0.009594 -0.029066 
-0.009703 -0.042874 
0.000000 -0.014576 
-0.000764 -0.014576 
0.000000 0.000000 
-0.002085 -0.042345 
-0.001478 -0.028713 
0.000000 -0.042308 
0.000000 0.000000 
-0.001578 -0.014571 
-0.002497 -0.014562 
-0.002881 -0.079071 
-0.000000 -0.089261 
-0.008208 -0.055881 
-0.005764 -0.067959 
0.000000 -0.067555 
-0.002806 -0.067661 
-0.002537 -0.055370 
-0.004829 -0.028795 
-0.004300 -0.042446 
-0.006785 -0.042614 
0.000000 0.000000 
0.000764 -0.014576 
0.002497 -0.014562 
0.001578 -0.014571 
0.000000 0.000000 
0.001478 -0.028713 
0.002085 -0.042345 
0.010096 -0.015452 
0.006884 -0.014680 
0.000000 0.000000 
0.009703 -0.042874 
0.009594 -0.029066 
0.013264 -0.043308 
0.000000 0.000000 
0.004973 -0.014555 
0.003592 -0.014549 
0.002881 -0.079071 
0.002769 -0.089445 
0.002537 -0.055370 
0.002806 -0.067661 
0.009020 -0.068433 
0.005764 -0.067959 
0.008208 -0.055881 
0.004829 -0.028795 
0.006785 -0.042614 
0.004300 -0.042446 
0.016976 -0.020565 
0.018241 -0.031177 
0.025724 -0.059194 
0.023184 -0.045808 
0.029022 -0.048537 
0.017720 -0.044142 
0.015695 -0.056973 
0.022297 -0.102343 
0.024502 -0.092965 
0.028542 -0.091584 
0.016239 -0.092556 
0.020334 -0.093106 
0.014802 -0.102327 
0.031311 -0.071676 
0.025996 -0.082684 
0.026512 -0.071451 
0.005681 -0.089976 
0.002482 -0.098623 
0.012702 -0.069060 
0.009221 -0.080110 
0.008038 -0.100296 
0.008864 -0.090771 
0.012385 -0.091692 
0.021565 -0.070671 
0.017005 -0.081706 
0.016890 -0.069820 
0.023006 -0.108687 
0.019627 -0.110846 
0.013884 -0.125256 
0.016740 -0.118487 
0.016583 -0.123119 
0.016234 -0.111445 
0.012897 -0.110994 
0.008074 -0.139755 
0.008224 -0.141390 
0.006656 -0.130411 
0.007403 -0.136111 
0.011202 -0.134531 
0.009328 -0.135996 
0.011326 -0.131118 
0.004302 -0.107327 
0.009732 -0.109917 
0.006849 -0.108583 
0.005415 -0.115546 
0.006065 -0.123331 
0.011223 -0.125767 
0.008580 -0.125014 
0.010747 -0.118553 
0.007292 -0.142726 
0.007432 -0.142808 
0.007582 -0.142506 
0.007162 -0.142728 
0.007297 -0.142910 
0.007404 -0.143094 
0.007196 -0.141273 
0.007190 -0.142289 
0.006605 -0.141088 
0.005984 -0.137528 
0.006479 -0.139707 
0.008239 -0.139857 
0.004253 -0.138068 
0.005115 -0.139064 
0.003215 -0.136006 
0.007776 -0.142352 
0.006795 -0.141214 
0.007006 -0.142189 
0.004745 -0.131646 
0.004187 -0.133596 
0.003634 -0.130266 
0.005800 -0.139181 
0.004942 -0.136634 
0.005954 -0.137541 
0.002768 -0.133570 
0.003870 -0.135313 
0.003864 -0.136806 
0.006352 -0.141558 
0.005157 -0.139551 
0.005933 -0.140534 
-0.000000 -0.105310 
-0.000041 -0.106122 
0.000440 -0.100910 
-0.000465 -0.113938 
-0.000343 -0.110470 
-0.000000 -0.113348 
0.002327 -0.108316 
0.000067 -0.108498 
0.000452 -0.112385 
-0.000070 -0.119599 
-0.000229 -0.119300 
-0.000000 -0.119330 
-0.000943 -0.120190 
-0.000632 -0.119461 
-0.000710 -0.121291 
-0.000000 -0.117897 
-0.000366 -0.118299 
-0.000457 -0.116533 
0.008464 -0.134537 
0.003987 -0.130126 
0.005198 -0.134455 
0.001198 -0.117684 
0.002403 -0.124086 
0.006546 -0.122334 
-0.000115 -0.125947 
0.000610 -0.125213 
-0.000745 -0.121936 
-0.000821 -0.115646 
-0.000953 -0.118380 
-0.000571 -0.115789 
0.001129 -0.102511 
0.001016 -0.106207 
-0.000000 -0.102450 
0.002364 -0.113240 
0.001804 -0.109788 
0.002773 -0.110228 
-0.000000 -0.109423 
0.000888 -0.109515 
0.000747 -0.112409 
0.003291 -0.126822 
0.003093 -0.123380 
0.004076 -0.124701 
0.001551 -0.120791 
0.002247 -0.122047 
0.001572 -0.123711 
0.003627 -0.117530 
0.002938 -0.119984 
0.002723 -0.116619 
-0.000000 -0.118140 
0.000268 -0.118323 
0.000098 -0.119256 
0.000595 -0.114863 
0.000435 -0.116845 
-0.000000 -0.114735 
0.000534 -0.120912 
0.000588 -0.118856 
0.001004 -0.119700 
0.001928 -0.115838 
0.001473 -0.118000 
0.001227 -0.115239 
0.003147 -0.133965 
-0.000252 -0.126300 
0.000891 -0.129884 
0.002063 -0.133287 
0.001651 -0.132449 
-0.000067 -0.120379 
0.000402 -0.123180 
0.000075 -0.121606 
-0.000351 -0.121746 
-0.000524 -0.123630 
0.002596 -0.128636 
0.001692 -0.131420 
0.002040 -0.130160 
0.001681 -0.126833 
0.000939 -0.124970 
-0.000040 -0.126261 
0.000385 -0.125819 
0.000724 -0.128934 
-0.000440 -0.100910 
0.000041 -0.106122 
-0.000452 -0.112385 
-0.000067 -0.108498 
-0.002327 -0.108316 
0.000343 -0.110470 
0.000465 -0.113938 
-0.005198 -0.134455 
-0.003987 -0.130126 
-0.008464 -0.134537 
0.000745 -0.121936 
-0.000610 -0.125213 
0.000115 -0.125947 
-0.006546 -0.122334 
-0.002403 -0.124086 
-0.001198 -0.117684 
0.000229 -0.119300 
0.000070 -0.119599 
0.000457 -0.116533 
0.000366 -0.118299 
0.000710 -0.121291 
0.000632 -0.119461 
0.000943 -0.120190 
0.000571 -0.115789 
0.000953 -0.118380 
0.000821 -0.115646 
-0.007582 -0.142506 
-0.007432 -0.142808 
-0.007292 -0.142726 
-0.006605 -0.141088 
-0.007190 -0.142289 
-0.007196 -0.141273 
-0.007404 -0.143094 
-0.007297 -0.142910 
-0.007162 -0.142728 
-0.003634 -0.130266 
-0.004187 -0.133596 
-0.004745 -0.131646 
-0.003864 -0.136806 
-0.003870 -0.135313 
-0.002768 -0.133570 
-0.005954 -0.137541 
-0.004942 -0.136634 
-0.005800 -0.139181 
-0.008239 -0.139857 
-0.006479 -0.139707 
-0.005984 -0.137528 
-0.007006 -0.142189 
-0.006795 -0.141214 
-0.007776 -0.142352 
-0.003215 -0.136006 
-0.005115 -0.139064 
-0.004253 -0.138068 
-0.005933 -0.140534 
-0.005157 -0.139551 
-0.006352 -0.141558 
-0.001016 -0.106207 
-0.001129 -0.102511 
-0.000747 -0.112409 
-0.000888 -0.109515 
-0.002773 -0.110228 
-0.001804 -0.109788 
-0.002364 -0.113240 
-0.000098 -0.119256 
-0.000268 -0.118323 
-0.001004 -0.119700 
-0.000588 -0.118856 
-0.000534 -0.120912 
-0.000435 -0.116845 
-0.000595 -0.114863 
-0.004076 -0.124701 
-0.003093 -0.123380 
-0.003291 -0.126822 
-0.002723 -0.116619 
-0.002938 -0.119984 
-0.003627 -0.117530 
-0.001572 -0.123711 
-0.002247 -0.122047 
-0.001551 -0.120791 
-0.001227 -0.115239 
-0.001473 -0.118000 
-0.001928 -0.115838 
-0.003147 -0.133965 
-0.001651 -0.132449 
-0.002063 -0.133287 
-0.000891 -0.129884 
0.000252 -0.126300 
-0.002596 -0.128636 
-0.000939 -0.124970 
-0.001681 -0.126833 
-0.002040 -0.130160 
-0.001692 -0.131420 
0.000067 -0.120379 
0.000524 -0.123630 
0.000351 -0.121746 
-0.000075 -0.121606 
-0.000402 -0.123180 
-0.000724 -0.128934 
-0.000385 -0.125819 
0.000040 -0.126261 
-0.007756 -0.142097 
-0.007875 -0.141853 
-0.008739 -0.139333 
-0.008242 -0.140784 
-0.008760 -0.140243 
-0.007732 -0.141151 
-0.007381 -0.139902 
-0.012470 -0.130396 
-0.011281 -0.133040 
-0.012347 -0.132016 
-0.009195 -0.133971 
-0.010242 -0.133687 
-0.010181 -0.131457 
-0.010224 -0.136769 
-0.010254 -0.135429 
-0.009405 -0.137537 
-0.005882 -0.132728 
-0.005481 -0.129450 
-0.006898 -0.138057 
-0.006371 -0.135638 
-0.007843 -0.131083 
-0.007014 -0.133485 
-0.008121 -0.133901 
-0.008603 -0.138027 
-0.008385 -0.136226 
-0.007775 -0.138210 
-0.024160 -0.101622 
-0.022780 -0.105905 
-0.024542 -0.104654 
-0.019213 -0.107123 
-0.021003 -0.106702 
-0.020412 -0.102705 
-0.021412 -0.112549 
-0.021319 -0.109997 
-0.019802 -0.113896 
-0.012190 -0.106347 
-0.013894 -0.106799 
-0.013007 -0.101897 
-0.014989 -0.115399 
-0.014552 -0.111323 
-0.013401 -0.115268 
-0.016647 -0.102638 
-0.015643 -0.107113 
-0.017422 -0.107239 
-0.015064 -0.126287 
-0.015222 -0.124418 
-0.013794 -0.127517 
-0.018259 -0.117602 
-0.016721 -0.121110 
-0.018169 -0.119768 
-0.013870 -0.122447 
-0.015292 -0.121982 
-0.015227 -0.118968 
-0.017929 -0.111306 
-0.016590 -0.115254 
-0.018196 -0.114774 
-0.002286 -0.102713 
-0.001231 -0.098448 
-0.003813 -0.110807 
-0.003148 -0.106823 
-0.003775 -0.098914 
-0.003484 -0.103045 
-0.004741 -0.103487 
-0.005170 -0.125928 
-0.004913 -0.122262 
-0.006630 -0.116411 
-0.005773 -0.119500 
-0.006996 -0.120434 
-0.004646 -0.118511 
-0.004299 -0.114695 
-0.009616 -0.100845 
-0.008974 -0.105208 
-0.010546 -0.105803 
-0.006071 -0.104015 
-0.007481 -0.104600 
-0.006542 -0.099773 
-0.008854 -0.113729 
-0.008250 -0.109260 
-0.007462 -0.112996 
-0.004938 -0.111489 
-0.006155 -0.112234 
-0.005533 -0.107925 
-0.012551 -0.128304 
-0.012451 -0.122560 
-0.012553 -0.125690 
-0.011312 -0.128695 
-0.010067 -0.128727 
-0.011286 -0.110510 
-0.009312 -0.117965 
-0.010318 -0.114383 
-0.011839 -0.114912 
-0.012221 -0.118949 
-0.006345 -0.126994 
-0.008816 -0.128432 
-0.007569 -0.127843 
-0.007295 -0.124266 
-0.008295 -0.121259 
-0.011041 -0.122368 
-0.009650 -0.121919 
-0.009895 -0.125528 
-0.027342 -0.096105 
-0.025429 -0.097146 
-0.027494 -0.087593 
-0.026549 -0.092471 
-0.029570 -0.086883 
-0.023473 -0.097765 
-0.021490 -0.098049 
-0.028869 -0.065922 
-0.028960 -0.071681 
-0.031326 -0.066219 
-0.023716 -0.082625 
-0.026395 -0.077190 
-0.024013 -0.076986 
-0.030987 -0.076934 
-0.028735 -0.077206 
-0.028234 -0.082507 
-0.015591 -0.097578 
-0.013708 -0.097161 
-0.019502 -0.098072 
-0.017529 -0.097897 
-0.018828 -0.087620 
-0.018265 -0.092890 
-0.020988 -0.087885 
-0.025353 -0.087940 
-0.023174 -0.088012 
-0.022421 -0.093152 
-0.006616 -0.008267 
-0.012955 -0.016914 
-0.010744 -0.011738 
-0.015464 -0.030157 
-0.014600 -0.023407 
-0.012110 -0.022546 
-0.021454 -0.028286 
-0.017809 -0.025150 
-0.021449 -0.032881 
-0.013587 -0.056625 
-0.014639 -0.050230 
-0.012621 -0.049926 
-0.019295 -0.051139 
-0.016861 -0.050624 
-0.017978 -0.057393 
-0.013482 -0.036514 
-0.015365 -0.043653 
-0.015675 -0.036940 
-0.030243 -0.054667 
-0.027526 -0.053638 
-0.028410 -0.059914 
-0.024162 -0.040165 
-0.026143 -0.047067 
-0.027240 -0.042135 
-0.023035 -0.058506 
-0.024707 -0.052650 
-0.021929 -0.051808 
-0.018201 -0.037612 
-0.020338 -0.044840 
-0.021064 -0.038652 
-0.002647 -0.094193 
-0.001316 -0.094039 
-0.005440 -0.094795 
-0.004016 -0.094450 
-0.004317 -0.084596 
-0.004198 -0.089671 
-0.005840 -0.084865 
-0.011893 -0.096684 
-0.010156 -0.096182 
-0.010871 -0.085990 
-0.010580 -0.091226 
-0.012730 -0.086423 
-0.008503 -0.095682 
-0.006933 -0.095212 
-0.010425 -0.062509 
-0.010801 -0.068728 
-0.012286 -0.062800 
-0.007523 -0.079771 
-0.009194 -0.074390 
-0.007496 -0.074092 
-0.012905 -0.075094 
-0.010994 -0.074726 
-0.011014 -0.080485 
-0.007233 -0.090348 
-0.009107 -0.085575 
-0.007433 -0.085196 
-0.026305 -0.065457 
-0.021177 -0.064415 
-0.023717 -0.064932 
-0.024027 -0.071090 
-0.021638 -0.076669 
-0.014288 -0.063132 
-0.014931 -0.075485 
-0.014731 -0.069424 
-0.016439 -0.063509 
-0.018740 -0.063937 
-0.014274 -0.092145 
-0.019187 -0.082086 
-0.016718 -0.087264 
-0.014681 -0.086856 
-0.014908 -0.081299 
-0.019175 -0.070239 
-0.017071 -0.075889 
-0.019313 -0.076291 
0.000000 0.000000 
-0.004983 -0.007572 
-0.003419 -0.007297 
-0.004066 -0.007366 
0.000000 0.000000 
-0.008227 -0.014902 
-0.010188 -0.022131 
-0.001803 -0.007299 
-0.002124 -0.007288 
0.000000 0.000000 
-0.006277 -0.021774 
-0.004236 -0.014547 
-0.005320 -0.021747 
0.000000 0.000000 
-0.002488 -0.007279 
-0.002911 -0.007278 
-0.011388 -0.043060 
-0.010786 -0.049684 
-0.011227 -0.029253 
-0.011574 -0.036240 
-0.008414 -0.035931 
-0.009900 -0.036058 
-0.008183 -0.028953 
-0.005836 -0.014589 
-0.007370 -0.021825 
-0.008649 -0.021927 
0.000000 -0.007342 
-0.000191 -0.007342 
0.000000 0.000000 
-0.000561 -0.021699 
-0.000379 -0.014576 
0.000000 -0.021697 
0.000000 0.000000 
-0.000384 -0.007340 
-0.000585 -0.007337 
-0.001158 -0.048903 
-0.001034 -0.042318 
0.000000 -0.048889 
-0.002247 -0.028726 
-0.001798 -0.035597 
-0.002733 -0.035624 
0.000000 -0.035574 
-0.000892 -0.035581 
-0.000733 -0.028704 
0.000000 0.000000 
-0.001256 -0.007319 
-0.001516 -0.007310 
-0.000794 -0.007333 
-0.001017 -0.007327 
0.000000 0.000000 
-0.002992 -0.021716 
-0.002021 -0.014567 
-0.002337 -0.021711 
-0.001131 -0.021702 
-0.001720 -0.021706 
-0.001162 -0.014574 
-0.001376 -0.089307 
-0.000000 -0.093993 
-0.004368 -0.079244 
-0.002847 -0.084397 
-0.000000 -0.084233 
-0.001415 -0.084275 
-0.001431 -0.078964 
-0.009861 -0.056089 
-0.008692 -0.062257 
-0.005543 -0.061861 
-0.007070 -0.062041 
-0.006668 -0.055707 
-0.007346 -0.068175 
-0.005886 -0.073838 
0.000000 -0.061530 
-0.001338 -0.061553 
-0.001259 -0.055320 
-0.001424 -0.073393 
-0.001393 -0.067583 
0.000000 -0.073361 
-0.003852 -0.055452 
-0.002696 -0.061616 
-0.004091 -0.061720 
-0.004349 -0.073635 
-0.004257 -0.067787 
-0.002868 -0.073485 
-0.003017 -0.014555 
-0.003908 -0.028766 
-0.003698 -0.021723 
-0.004468 -0.021732 
-0.005833 -0.028831 
-0.002333 -0.048941 
-0.004807 -0.049086 
-0.003543 -0.049002 
-0.003168 -0.042387 
-0.003712 -0.035660 
-0.009110 -0.049488 
-0.007079 -0.035837 
-0.008178 -0.042730 
-0.007570 -0.049327 
-0.006142 -0.049194 
-0.004750 -0.035706 
-0.005499 -0.042521 
-0.005865 -0.035764 
0.000000 0.000000 
0.000191 -0.007342 
0.000585 -0.007337 
0.000384 -0.007340 
0.000000 0.000000 
0.000379 -0.014576 
0.000561 -0.021699 
0.001516 -0.007310 
0.001256 -0.007319 
0.000000 0.000000 
0.002337 -0.021711 
0.002021 -0.014567 
0.002992 -0.021716 
0.000000 0.000000 
0.001017 -0.007327 
0.000794 -0.007333 
0.001034 -0.042318 
0.001158 -0.048903 
0.000733 -0.028704 
0.000892 -0.035581 
0.002733 -0.035624 
0.001798 -0.035597 
0.002247 -0.028726 
0.001162 -0.014574 
0.001720 -0.021706 
0.001131 -0.021702 
0.006616 -0.008267 
0.004983 -0.007572 
0.000000 0.000000 
0.010188 -0.022131 
0.008227 -0.014902 
0.012110 -0.022546 
0.000000 0.000000 
0.004066 -0.007366 
0.003419 -0.007297 
0.010786 -0.049684 
0.011388 -0.043060 
0.012621 -0.049926 
0.008183 -0.028953 
0.009900 -0.036058 
0.008414 -0.035931 
0.013482 -0.036514 
0.011574 -0.036240 
0.011227 -0.029253 
0.000000 0.000000 
0.002124 -0.007288 
0.001803 -0.007299 
0.002911 -0.007278 
0.002488 -0.007279 
0.000000 0.000000 
0.005320 -0.021747 
0.004236 -0.014547 
0.006277 -0.021774 
0.008649 -0.021927 
0.007370 -0.021825 
0.005836 -0.014589 
0.001376 -0.089307 
0.001316 -0.094039 
0.001431 -0.078964 
0.001415 -0.084275 
0.004317 -0.084596 
0.002847 -0.084397 
0.004368 -0.079244 
0.001259 -0.055320 
0.001338 -0.061553 
0.004091 -0.061720 
0.002696 -0.061616 
0.003852 -0.055452 
0.001393 -0.067583 
0.001424 -0.073393 
0.010425 -0.062509 
0.008692 -0.062257 
0.009861 -0.056089 
0.005886 -0.073838 
0.007346 -0.068175 
0.007496 -0.074092 
0.006668 -0.055707 
0.007070 -0.062041 
0.005543 -0.061861 
0.002868 -0.073485 
0.004257 -0.067787 
0.004349 -0.073635 
0.003017 -0.014555 
0.005833 -0.028831 
0.004468 -0.021732 
0.003698 -0.021723 
0.003908 -0.028766 
0.009110 -0.049488 
0.006142 -0.049194 
0.007570 -0.049327 
0.008178 -0.042730 
0.007079 -0.035837 
0.002333 -0.048941 
0.003712 -0.035660 
0.003168 -0.042387 
0.003543 -0.049002 
0.004807 -0.049086 
0.005865 -0.035764 
0.005499 -0.042521 
0.004750 -0.035706 
0.010744 -0.011738 
0.012955 -0.016914 
0.021449 -0.032881 
0.017809 -0.025150 
0.021454 -0.028286 
0.014600 -0.023407 
0.015464 -0.030157 
0.028410 -0.059914 
0.027526 -0.053638 
0.030243 -0.054667 
0.021929 -0.051808 
0.024707 -0.052650 
0.023035 -0.058506 
0.027240 -0.042135 
0.026143 -0.047067 
0.024162 -0.040165 
0.014639 -0.050230 
0.013587 -0.056625 
0.015675 -0.036940 
0.015365 -0.043653 
0.017978 -0.057393 
0.016861 -0.050624 
0.019295 -0.051139 
0.021064 -0.038652 
0.020338 -0.044840 
0.018201 -0.037612 
0.024160 -0.101622 
0.025429 -0.097146 
0.027342 -0.096105 
0.021490 -0.098049 
0.023473 -0.097765 
0.020412 -0.102705 
0.029570 -0.086883 
0.026549 -0.092471 
0.027494 -0.087593 
0.013708 -0.097161 
0.015591 -0.097578 
0.013007 -0.101897 
0.020988 -0.087885 
0.018265 -0.092890 
0.018828 -0.087620 
0.016647 -0.102638 
0.017529 -0.097897 
0.019502 -0.098072 
0.031326 -0.066219 
0.028960 -0.071681 
0.028869 -0.065922 
0.028234 -0.082507 
0.028735 -0.077206 
0.030987 -0.076934 
0.024013 -0.076986 
0.026395 -0.077190 
0.023716 -0.082625 
0.022421 -0.093152 
0.023174 -0.088012 
0.025353 -0.087940 
0.002647 -0.094193 
0.001231 -0.098448 
0.005840 -0.084865 
0.004198 -0.089671 
0.003775 -0.098914 
0.004016 -0.094450 
0.005440 -0.094795 
0.012286 -0.062800 
0.010801 -0.068728 
0.011014 -0.080485 
0.010994 -0.074726 
0.012905 -0.075094 
0.009194 -0.074390 
0.007523 -0.079771 
0.009616 -0.100845 
0.010156 -0.096182 
0.011893 -0.096684 
0.006933 -0.095212 
0.008503 -0.095682 