# vtk DataFile Version 2.0
Unstructured Grid Example
ASCII
DATASET UNSTRUCTURED_GRID

POINTS 16641 float
0.007212 -0.142259 0.000000 
0.992788 -0.142259 0.000000 
1.000000 1.000000 0.000000 
0.000000 1.000000 0.000000 
0.500000 -0.099990 0.000000 
0.973991 0.399531 0.000000 
0.500000 1.000000 0.000000 
0.026009 0.399531 0.000000 
0.500000 0.401590 0.000000 
0.258425 -0.137712 0.000000 
0.500000 0.130923 0.000000 
0.254338 0.121750 0.000000 
0.741575 -0.137712 0.000000 
0.745662 0.121750 0.000000 
0.986361 0.120744 0.000000 
0.738718 0.398590 0.000000 
0.968965 0.689451 0.000000 
0.738325 0.693649 0.000000 
0.750000 1.000000 0.000000 
0.500000 0.694683 0.000000 
0.250000 1.000000 0.000000 
0.261675 0.693649 0.000000 
0.031035 0.689451 0.000000 
0.261282 0.398590 0.000000 
0.013639 0.120744 0.000000 
0.132514 -0.142911 0.000000 
0.252749 -0.009907 0.000000 
0.131626 -0.014744 0.000000 
0.500000 0.008897 0.000000 
0.374213 0.001908 0.000000 
0.379156 -0.114577 0.000000 
0.378290 0.261063 0.000000 
0.375965 0.127753 0.000000 
0.500000 0.262672 0.000000 
0.620844 -0.114577 0.000000 
0.625787 0.001908 0.000000 
0.868374 -0.014744 0.000000 
0.747251 -0.009907 0.000000 
0.867486 -0.142911 0.000000 
0.624035 0.127753 0.000000 
0.621710 0.261063 0.000000 
0.990592 -0.013674 0.000000 
0.865981 0.118551 0.000000 
0.856469 0.397203 0.000000 
0.861278 0.255884 0.000000 
0.980210 0.258757 0.000000 
0.742062 0.257748 0.000000 
0.619869 0.400673 0.000000 
0.969580 0.543001 0.000000 
0.853545 0.542577 0.000000 
0.861782 0.845403 0.000000 
0.854524 0.692079 0.000000 
0.975121 0.839585 0.000000 
0.737074 0.544094 0.000000 
0.619083 0.545502 0.000000 
0.875000 1.000000 0.000000 
0.743034 0.846112 0.000000 
0.500000 0.846293 0.000000 
0.621938 0.846251 0.000000 
0.625000 1.000000 0.000000 
0.619766 0.694423 0.000000 
0.500000 0.546056 0.000000 
0.375000 1.000000 0.000000 
0.378062 0.846251 0.000000 
0.138218 0.845403 0.000000 
0.256966 0.846112 0.000000 
0.125000 1.000000 0.000000 
0.380234 0.694423 0.000000 
0.380917 0.545502 0.000000 
0.024879 0.839585 0.000000 
0.145476 0.692079 0.000000 
0.143531 0.397203 0.000000 
0.146455 0.542577 0.000000 
0.030420 0.543001 0.000000 
0.262926 0.544094 0.000000 
0.380131 0.400673 0.000000 
0.019790 0.258757 0.000000 
0.138722 0.255884 0.000000 
0.134019 0.118551 0.000000 
0.009408 -0.013674 0.000000 
0.257938 0.257748 0.000000 
0.069730 -0.142994 0.000000 
0.131787 -0.079625 0.000000 
0.070016 -0.079675 0.000000 
0.254240 -0.074456 0.000000 
0.193300 -0.078112 0.000000 
0.195479 -0.141400 0.000000 
0.192784 0.052682 0.000000 
0.192371 -0.013251 0.000000 
0.253068 0.055450 0.000000 
0.500000 -0.047341 0.000000 
0.436925 -0.050041 0.000000 
0.438583 -0.103761 0.000000 
0.437129 0.067208 0.000000 
0.436693 0.007009 0.000000 
0.500000 0.068478 0.000000 
0.320791 -0.130002 0.000000 
0.374769 -0.057683 0.000000 
0.314323 -0.067544 0.000000 
0.439564 0.331035 0.000000 
0.439031 0.262243 0.000000 
0.500000 0.331353 0.000000 
0.314849 0.124698 0.000000 
0.377146 0.193552 0.000000 
0.316366 0.191355 0.000000 
0.500000 0.195772 0.000000 
0.438417 0.195175 0.000000 
0.437760 0.130063 0.000000 
0.313069 -0.004535 0.000000 
0.374886 0.063814 0.000000 
0.313602 0.059442 0.000000 
0.561417 -0.103761 0.000000 
0.563075 -0.050041 0.000000 
0.685677 -0.067544 0.000000 
0.625231 -0.057683 0.000000 
0.679209 -0.130002 0.000000 
0.563307 0.007009 0.000000 
0.562871 0.067208 0.000000 
0.929984 -0.079675 0.000000 
0.868213 -0.079625 0.000000 
0.930270 -0.142994 0.000000 
0.746932 0.055450 0.000000 
0.807629 -0.013251 0.000000 
0.807216 0.052682 0.000000 
0.804521 -0.141400 0.000000 
0.806700 -0.078112 0.000000 
0.745760 -0.074456 0.000000 
0.560969 0.262243 0.000000 
0.560436 0.331035 0.000000 
0.562240 0.130063 0.000000 
0.561583 0.195175 0.000000 
0.683634 0.191355 0.000000 
0.622854 0.193552 0.000000 
0.685151 0.124698 0.000000 
0.686931 -0.004535 0.000000 
0.686398 0.059442 0.000000 
0.625114 0.063814 0.000000 
0.991803 -0.078845 0.000000 
0.929429 -0.014754 0.000000 
0.926176 0.118878 0.000000 
0.928173 0.051502 0.000000 
0.988801 0.052974 0.000000 
0.867600 0.051376 0.000000 
0.805850 0.119576 0.000000 
0.915193 0.397645 0.000000 
0.917864 0.326642 0.000000 
0.976986 0.328807 0.000000 
0.799596 0.326489 0.000000 
0.858758 0.326041 0.000000 
0.797690 0.397656 0.000000 
0.983419 0.189383 0.000000 
0.920756 0.256504 0.000000 
0.923616 0.187237 0.000000 
0.620691 0.330148 0.000000 
0.560013 0.401357 0.000000 
0.743936 0.189153 0.000000 
0.682080 0.259431 0.000000 
0.679454 0.399682 0.000000 
0.680644 0.328895 0.000000 
0.740261 0.327564 0.000000 
0.863777 0.186722 0.000000 
0.801749 0.256432 0.000000 
0.803921 0.187473 0.000000 
0.971440 0.470911 0.000000 
0.912984 0.469523 0.000000 
0.910957 0.616036 0.000000 
0.911483 0.542304 0.000000 
0.968655 0.615829 0.000000 
0.854653 0.469378 0.000000 
0.796248 0.469925 0.000000 
0.927290 0.922030 0.000000 
0.919166 0.843798 0.000000 
0.982832 0.916856 0.000000 
0.796770 0.693008 0.000000 
0.857225 0.768337 0.000000 
0.799194 0.769175 0.000000 
0.970913 0.763968 0.000000 
0.914253 0.766671 0.000000 
0.911732 0.690790 0.000000 
0.619313 0.472503 0.000000 
0.559730 0.473037 0.000000 
0.737603 0.470787 0.000000 
0.678626 0.471708 0.000000 
0.678464 0.619050 0.000000 
0.678267 0.544871 0.000000 
0.737276 0.618422 0.000000 
0.853405 0.616810 0.000000 
0.795583 0.617661 0.000000 
0.795476 0.543274 0.000000 
0.937500 1.000000 0.000000 
0.868066 0.922814 0.000000 
0.746394 0.922949 0.000000 
0.807502 0.922942 0.000000 
0.812500 1.000000 0.000000 
0.802866 0.845924 0.000000 
0.740268 0.769613 0.000000 
0.500000 0.922921 0.000000 
0.561734 0.922922 0.000000 
0.562500 1.000000 0.000000 
0.560410 0.770146 0.000000 
0.561017 0.846282 0.000000 
0.500000 0.770180 0.000000 
0.687500 1.000000 0.000000 
0.623417 0.922927 0.000000 
0.684994 0.922936 0.000000 
0.559616 0.545912 0.000000 
0.500000 0.473225 0.000000 
0.679274 0.694104 0.000000 
0.619226 0.619525 0.000000 
0.500000 0.619927 0.000000 
0.559690 0.619823 0.000000 
0.559957 0.694617 0.000000 
0.682656 0.846199 0.000000 
0.620689 0.770045 0.000000 
0.680697 0.769875 0.000000 
0.437500 1.000000 0.000000 
0.438266 0.922922 0.000000 
0.315006 0.922936 0.000000 
0.376583 0.922927 0.000000 
0.312500 1.000000 0.000000 
0.438983 0.846282 0.000000 
0.439590 0.770146 0.000000 
0.072710 0.922030 0.000000 
0.131934 0.922814 0.000000 
0.062500 1.000000 0.000000 
0.259732 0.769613 0.000000 
0.197134 0.845924 0.000000 
0.200806 0.769175 0.000000 
0.187500 1.000000 0.000000 
0.192498 0.922942 0.000000 
0.253606 0.922949 0.000000 
0.440384 0.545912 0.000000 
0.440270 0.473037 0.000000 
0.440043 0.694617 0.000000 
0.440310 0.619823 0.000000 
0.321536 0.619050 0.000000 
0.380774 0.619525 0.000000 
0.320726 0.694104 0.000000 
0.317344 0.846199 0.000000 
0.319303 0.769875 0.000000 
0.379311 0.770045 0.000000 
0.017168 0.916856 0.000000 
0.080834 0.843798 0.000000 
0.088268 0.690790 0.000000 
0.085747 0.766671 0.000000 
0.029087 0.763968 0.000000 
0.142775 0.768337 0.000000 
0.203230 0.693008 0.000000 
0.084807 0.397645 0.000000 
0.087016 0.469523 0.000000 
0.028560 0.470911 0.000000 
0.203752 0.469925 0.000000 
0.145347 0.469378 0.000000 
0.202310 0.397656 0.000000 
0.031345 0.615829 0.000000 
0.088517 0.542304 0.000000 
0.089043 0.616036 0.000000 
0.380687 0.472503 0.000000 
0.439987 0.401357 0.000000 
0.262724 0.618422 0.000000 
0.321733 0.544871 0.000000 
0.320546 0.399682 0.000000 
0.321374 0.471708 0.000000 
0.262397 0.470787 0.000000 
0.146595 0.616810 0.000000 
0.204524 0.543274 0.000000 
0.204417 0.617661 0.000000 
0.023014 0.328807 0.000000 
0.082136 0.326642 0.000000 
0.076384 0.187237 0.000000 
0.079244 0.256504 0.000000 
0.016581 0.189383 0.000000 
0.141242 0.326041 0.000000 
0.200404 0.326489 0.000000 
0.070571 -0.014754 0.000000 
0.008197 -0.078845 0.000000 
0.194150 0.119576 0.000000 
0.132400 0.051376 0.000000 
0.011199 0.052974 0.000000 
0.071827 0.051502 0.000000 
0.073824 0.118878 0.000000 
0.379309 0.330148 0.000000 
0.259739 0.327564 0.000000 
0.319356 0.328895 0.000000 
0.317920 0.259431 0.000000 
0.256064 0.189153 0.000000 
0.136223 0.186722 0.000000 
0.196079 0.187473 0.000000 
0.198251 0.256432 0.000000 
0.038443 -0.142686 0.000000 
0.069885 -0.111550 0.000000 
0.038781 -0.111225 0.000000 
0.132130 -0.111495 0.000000 
0.101006 -0.111666 0.000000 
0.101089 -0.143095 0.000000 
0.100937 -0.047533 0.000000 
0.100919 -0.079798 0.000000 
0.131598 -0.047358 0.000000 
0.256006 -0.106334 0.000000 
0.225235 -0.108503 0.000000 
0.226972 -0.139895 0.000000 
0.222995 -0.044353 0.000000 
0.223867 -0.076608 0.000000 
0.253198 -0.042285 0.000000 
0.163984 -0.142372 0.000000 
0.194286 -0.110000 0.000000 
0.163235 -0.110965 0.000000 
0.223484 0.087090 0.000000 
0.222923 0.053888 0.000000 
0.253621 0.088471 0.000000 
0.162046 -0.014206 0.000000 
0.192432 0.019595 0.000000 
0.162199 0.018689 0.000000 
0.252747 0.022666 0.000000 
0.222604 0.020917 0.000000 
0.222600 -0.011832 0.000000 
0.162592 -0.079088 0.000000 
0.192652 -0.045835 0.000000 
0.162178 -0.046813 0.000000 
0.500000 -0.074122 0.000000 
0.468701 -0.074922 0.000000 
0.469155 -0.100941 0.000000 
0.468284 -0.020241 0.000000 
0.468405 -0.048024 0.000000 
0.500000 -0.019663 0.000000 
0.408531 -0.108352 0.000000 
0.437555 -0.077291 0.000000 
0.406692 -0.081169 0.000000 
0.468681 0.099107 0.000000 
0.468522 0.068153 0.000000 
0.500000 0.099373 0.000000 
0.405302 0.004777 0.000000 
0.436867 0.036746 0.000000 
0.405537 0.034925 0.000000 
0.500000 0.038297 0.000000 
0.468385 0.037901 0.000000 
0.468294 0.008416 0.000000 
0.289768 -0.134597 0.000000 
0.316475 -0.098869 0.000000 
0.286473 -0.103259 0.000000 
0.376194 -0.086445 0.000000 
0.346140 -0.092803 0.000000 
0.350404 -0.122326 0.000000 
0.343610 -0.032199 0.000000 
0.344334 -0.062701 0.000000 
0.374242 -0.028204 0.000000 
0.436677 -0.021938 0.000000 
0.405291 -0.024660 0.000000 
0.405673 -0.053319 0.000000 
0.469884 0.366223 0.000000 
[...]
POINT_DATA 16641

SCALARS u_h float 2
LOOKUP_TABLE default
0.007212 -0.142259 
-0.007212 -0.142259 
0.000000 0.000000 
0.000000 0.000000 
-0.000000 -0.099990 
-0.026009 -0.100469 
0.000000 0.000000 
0.026009 -0.100469 
-0.000000 -0.098410 
0.008425 -0.137712 
-0.000000 -0.119077 
0.004338 -0.128250 
-0.008425 -0.137712 
-0.004338 -0.128250 
-0.013639 -0.129256 
-0.011282 -0.101410 
-0.031035 -0.060549 
-0.011675 -0.056351 
0.000000 0.000000 
-0.000000 -0.055317 
0.000000 0.000000 
0.011675 -0.056351 
0.031035 -0.060549 
0.011282 -0.101410 
0.013639 -0.129256 
0.007514 -0.142911 
0.002749 -0.134907 
0.006626 -0.139744 
-0.000000 -0.116103 
-0.000787 -0.123092 
0.004156 -0.114577 
0.003290 -0.113937 
0.000965 -0.122247 
-0.000000 -0.112328 
-0.004156 -0.114577 
0.000787 -0.123092 
-0.006626 -0.139744 
-0.002749 -0.134907 
-0.007514 -0.142911 
-0.000965 -0.122247 
-0.003290 -0.113937 
-0.009408 -0.138674 
-0.009019 -0.131449 
-0.018531 -0.102797 
-0.013722 -0.119116 
-0.019790 -0.116243 
-0.007938 -0.117252 
-0.005131 -0.099327 
-0.030420 -0.081999 
-0.021455 -0.082423 
-0.013218 -0.029597 
-0.020476 -0.057921 
-0.024879 -0.035415 
-0.012926 -0.080906 
-0.005917 -0.079498 
0.000000 0.000000 
-0.006966 -0.028888 
0.000000 -0.028707 
-0.003062 -0.028749 
0.000000 0.000000 
-0.005234 -0.055577 
-0.000000 -0.078944 
0.000000 0.000000 
0.003062 -0.028749 
0.013218 -0.029597 
0.006966 -0.028888 
0.000000 0.000000 
0.005234 -0.055577 
0.005917 -0.079498 
0.024879 -0.035415 
0.020476 -0.057921 
0.018531 -0.102797 
0.021455 -0.082423 
0.030420 -0.081999 
0.012926 -0.080906 
0.005131 -0.099327 
0.019790 -0.116243 
0.013722 -0.119116 
0.009019 -0.131449 
0.009408 -0.138674 
0.007938 -0.117252 
0.007230 -0.142994 
0.006787 -0.142125 
0.007516 -0.142175 
0.004240 -0.136956 
0.005800 -0.140612 
0.007979 -0.141400 
0.005284 -0.134818 
0.004871 -0.138251 
0.003068 -0.132050 
-0.000000 -0.109841 
-0.000575 -0.112541 
0.001083 -0.103761 
-0.000371 -0.120292 
-0.000807 -0.117991 
-0.000000 -0.119022 
0.008291 -0.130002 
-0.000231 -0.120183 
0.001823 -0.130044 
0.002064 -0.106465 
0.001531 -0.112757 
-0.000000 -0.106147 
0.002349 -0.125302 
0.002146 -0.118948 
0.003866 -0.121145 
-0.000000 -0.116728 
0.000917 -0.117325 
0.000260 -0.119937 
0.000569 -0.129535 
-0.000114 -0.123686 
0.001102 -0.128058 
-0.001083 -0.103761 
0.000575 -0.112541 
-0.001823 -0.130044 
0.000231 -0.120183 
-0.008291 -0.130002 
0.000807 -0.117991 
0.000371 -0.120292 
-0.007516 -0.142175 
-0.006787 -0.142125 
-0.007230 -0.142994 
-0.003068 -0.132050 
-0.004871 -0.138251 
-0.005284 -0.134818 
-0.007979 -0.141400 
-0.005800 -0.140612 
-0.004240 -0.136956 
-0.001531 -0.112757 
-0.002064 -0.106465 
-0.000260 -0.119937 
-0.000917 -0.117325 
-0.003866 -0.121145 
-0.002146 -0.118948 
-0.002349 -0.125302 
-0.000569 -0.129535 
-0.001102 -0.128058 
0.000114 -0.123686 
-0.008197 -0.141345 
-0.008071 -0.139754 
-0.011324 -0.131122 
-0.009327 -0.135998 
-0.011199 -0.134526 
-0.007400 -0.136124 
-0.006650 -0.130424 
-0.022307 -0.102355 
-0.019636 -0.110858 
-0.023014 -0.108693 
-0.012904 -0.111011 
-0.016242 -0.111459 
-0.014810 -0.102344 
-0.016581 -0.123117 
-0.016744 -0.118496 
-0.013884 -0.125263 
-0.004309 -0.107352 
-0.002487 -0.098643 
-0.006064 -0.123347 
-0.005420 -0.115569 
-0.008046 -0.100318 
-0.006856 -0.108605 
-0.009739 -0.109936 
-0.011223 -0.125778 
-0.010751 -0.118568 
-0.008579 -0.125027 
-0.028560 -0.091589 
-0.024516 -0.092977 
-0.026543 -0.071464 
-0.026017 -0.082696 
-0.031345 -0.071671 
-0.020347 -0.093122 
-0.016252 -0.092575 
-0.010210 -0.015470 
-0.018334 -0.031202 
-0.017168 -0.020644 
-0.015730 -0.056992 
-0.017775 -0.044163 
-0.013306 -0.043325 
-0.029087 -0.048532 
-0.023247 -0.045829 
-0.025768 -0.059210 
-0.005687 -0.089997 
-0.002770 -0.089463 
-0.012397 -0.091713 
-0.008874 -0.090792 
-0.009036 -0.068450 
-0.009233 -0.080129 
-0.012724 -0.069078 
-0.021595 -0.070690 
-0.016917 -0.069839 
-0.017024 -0.081726 
0.000000 0.000000 
-0.006934 -0.014686 
-0.003606 -0.014551 
-0.004998 -0.014558 
0.000000 0.000000 
-0.009634 -0.029076 
-0.009732 -0.042887 
0.000000 -0.014579 
-0.000766 -0.014578 
0.000000 0.000000 
-0.002090 -0.042354 
-0.001483 -0.028718 
0.000000 -0.042320 
0.000000 0.000000 
-0.001583 -0.014573 
-0.002506 -0.014564 
-0.002884 -0.079088 
-0.000000 -0.089275 
-0.008226 -0.055896 
-0.005774 -0.067975 
-0.000000 -0.067573 
-0.002810 -0.067677 
-0.002543 -0.055383 
-0.004844 -0.028801 
-0.004311 -0.042455 
-0.006803 -0.042625 
0.000000 0.000000 
0.000766 -0.014578 
0.002506 -0.014564 
0.001583 -0.014573 
0.000000 0.000000 
0.001483 -0.028718 
0.002090 -0.042354 
0.010210 -0.015470 
0.006934 -0.014686 
0.000000 0.000000 
0.009732 -0.042887 
0.009634 -0.029076 
0.013306 -0.043325 
0.000000 0.000000 
0.004998 -0.014558 
0.003606 -0.014551 
0.002884 -0.079088 
0.002770 -0.089463 
0.002543 -0.055383 
0.002810 -0.067677 
0.009036 -0.068450 
0.005774 -0.067975 
0.008226 -0.055896 
0.004844 -0.028801 
0.006803 -0.042625 
0.004311 -0.042455 
0.017168 -0.020644 
0.018334 -0.031202 
0.025768 -0.059210 
0.023247 -0.045829 
0.029087 -0.048532 
0.017775 -0.044163 
0.015730 -0.056992 
0.022307 -0.102355 
0.024516 -0.092977 
0.028560 -0.091589 
0.016252 -0.092575 
0.020347 -0.093122 
0.014810 -0.102344 
0.031345 -0.071671 
0.026017 -0.082696 
0.026543 -0.071464 
0.005687 -0.089997 
0.002487 -0.098643 
0.012724 -0.069078 
0.009233 -0.080129 
0.008046 -0.100318 
0.008874 -0.090792 
0.012397 -0.091713 
0.021595 -0.070690 
0.017024 -0.081726 
0.016917 -0.069839 
0.023014 -0.108693 
0.019636 -0.110858 
0.013884 -0.125263 
0.016744 -0.118496 
0.016581 -0.123117 
0.016242 -0.111459 
0.012904 -0.111011 
0.008071 -0.139754 
0.008197 -0.141345 
0.006650 -0.130424 
0.007400 -0.136124 
0.011199 -0.134526 
0.009327 -0.135998 
0.011324 -0.131122 
0.004309 -0.107352 
0.009739 -0.109936 
0.006856 -0.108605 
0.005420 -0.115569 
0.006064 -0.123347 
0.011223 -0.125778 
0.008579 -0.125027 
0.010751 -0.118568 
0.007193 -0.142686 
0.007385 -0.142800 
0.007531 -0.142475 
0.007130 -0.142745 
0.007256 -0.142916 
0.007339 -0.143095 
0.007187 -0.141283 
0.007169 -0.142298 
0.006598 -0.141108 
0.006006 -0.137584 
0.006485 -0.139753 
0.008222 -0.139895 
0.004245 -0.138103 
0.005117 -0.139108 
0.003198 -0.136035 
0.007734 -0.142372 
0.006786 -0.141250 
0.006985 -0.142215 
0.004734 -0.131660 
0.004173 -0.133612 
0.003621 -0.130279 
0.005796 -0.139206 
0.004932 -0.136655 
0.005949 -0.137561 
0.002747 -0.133584 
0.003854 -0.135333 
0.003850 -0.136832 
0.006342 -0.141588 
0.005152 -0.139585 
0.005928 -0.140563 
-0.000000 -0.105372 
-0.000049 -0.106172 
0.000405 -0.100941 
-0.000466 -0.113991 
-0.000345 -0.110524 
-0.000000 -0.113413 
0.002281 -0.108352 
0.000055 -0.108541 
0.000442 -0.112419 
-0.000069 -0.119643 
-0.000228 -0.119347 
-0.000000 -0.119377 
-0.000948 -0.120223 
-0.000633 -0.119504 
-0.000713 -0.121325 
-0.000000 -0.117953 
-0.000365 -0.118349 
-0.000456 -0.116584 
0.008518 -0.134597 
0.003975 -0.130119 
0.005223 -0.134509 
0.001194 -0.117695 
0.002390 -0.124053 
0.006654 -0.122326 
-0.000140 -0.125949 
0.000584 -0.125201 
-0.000758 -0.121954 
-0.000823 -0.115688 
-0.000959 -0.118410 
-0.000577 -0.115819 
0.001134 -0.102527 
0.001020 -0.106227 
-0.000000 -0.102459 
0.002370 -0.113268 
0.001810 -0.109814 
0.002779 -0.110254 
-0.000000 -0.109446 
0.000891 -0.109539 
0.000750 -0.112437 
0.003284 -0.126838 
0.003091 -0.123401 
0.004073 -0.124718 
0.001553 -0.120820 
0.002247 -0.122072 
0.001569 -0.123735 
0.003632 -0.117555 
0.002941 -0.120010 
0.002728 -0.116647 
-0.000000 -0.118179 
0.000270 -0.118361 
0.000100 -0.119297 
0.000598 -0.114894 
0.000437 -0.116880 
-0.000000 -0.114766 
0.000535 -0.120947 
0.000591 -0.118892 
0.001007 -0.119733 
0.001934 -0.115868 
0.001477 -0.118031 
0.001232 -0.115270 
0.003129 -0.133991 
-0.000272 -0.126311 
0.000854 -0.129879 
0.002033 -0.133299 
0.001622 -0.132458 
-0.000065 -0.120419 
0.000400 -0.123209 
0.000075 -0.121641 
-0.000353 -0.121781 
-0.000533 -0.123656 
0.002584 -0.128650 
0.001668 -0.131429 
0.002022 -0.130172 
0.001672 -0.126851 
0.000933 -0.124992 
-0.000055 -0.126278 
0.000374 -0.125840 
0.000703 -0.128943 
-0.000405 -0.100941 
0.000049 -0.106172 
-0.000442 -0.112419 
-0.000055 -0.108541 
-0.002281 -0.108352 
0.000345 -0.110524 
0.000466 -0.113991 
-0.005223 -0.134509 
-0.003975 -0.130119 
-0.008518 -0.134597 
0.000758 -0.121954 
-0.000584 -0.125201 
0.000140 -0.125949 
-0.006654 -0.122326 
-0.002390 -0.124053 
-0.001194 -0.117695 
0.000228 -0.119347 
0.000069 -0.119643 
0.000456 -0.116584 
0.000365 -0.118349 
0.000713 -0.121325 
0.000633 -0.119504 
0.000948 -0.120223 
0.000577 -0.115819 
0.000959 -0.118410 
0.000823 -0.115688 
-0.007531 -0.142475 
-0.007385 -0.142800 
-0.007193 -0.142686 
-0.006598 -0.141108 
-0.007169 -0.142298 
-0.007187 -0.141283 
-0.007339 -0.143095 
-0.007256 -0.142916 
-0.007130 -0.142745 
-0.003621 -0.130279 
-0.004173 -0.133612 
-0.004734 -0.131660 
-0.003850 -0.136832 
-0.003854 -0.135333 
-0.002747 -0.133584 
-0.005949 -0.137561 
-0.004932 -0.136655 
-0.005796 -0.139206 
-0.008222 -0.139895 
-0.006485 -0.139753 
-0.006006 -0.137584 
-0.006985 -0.142215 
-0.006786 -0.141250 
-0.007734 -0.142372 
-0.003198 -0.136035 
-0.005117 -0.139108 
-0.004245 -0.138103 
-0.005928 -0.140563 
-0.005152 -0.139585 
-0.006342 -0.141588 
-0.001020 -0.106227 
-0.001134 -0.102527 
-0.000750 -0.112437 
-0.000891 -0.109539 
-0.002779 -0.110254 
-0.001810 -0.109814 
-0.002370 -0.113268 
-0.000100 -0.119297 
-0.000270 -0.118361 
-0.001007 -0.119733 
-0.000591 -0.118892 
-0.000535 -0.120947 
-0.000437 -0.116880 
-0.000598 -0.114894 
-0.004073 -0.124718 
-0.003091 -0.123401 
-0.003284 -0.126838 
-0.002728 -0.116647 
-0.002941 -0.120010 
-0.003632 -0.117555 
-0.001569 -0.123735 
-0.002247 -0.122072 
-0.001553 -0.120820 
-0.001232 -0.115270 
-0.001477 -0.118031 
-0.001934 -0.115868 
-0.003129 -0.133991 
-0.001622 -0.132458 
-0.002033 -0.133299 
-0.000854 -0.129879 
0.000272 -0.126311 
-0.002584 -0.128650 
-0.000933 -0.124992 
-0.001672 -0.126851 
-0.002022 -0.130172 
-0.001668 -0.131429 
0.000065 -0.120419 
0.000533 -0.123656 
0.000353 -0.121781 
-0.000075 -0.121641 
-0.000400 -0.123209 
-0.000703 -0.128943 
-0.000374 -0.125840 
0.000055 -0.126278 
-0.007699 -0.142024 
-0.007851 -0.141828 
-0.008735 -0.139323 
-0.008231 -0.140767 
-0.008747 -0.140217 
-0.007722 -0.141148 
-0.007378 -0.139911 
-0.012468 -0.130397 
-0.011279 -0.133039 
-0.012343 -0.132013 
-0.009193 -0.133979 
-0.010241 -0.133690 
-0.010180 -0.131465 
-0.010220 -0.136761 
-0.010252 -0.135426 
-0.009403 -0.137531 
-0.005874 -0.132743 
-0.005473 -0.129463 
-0.006895 -0.138073 
-0.006365 -0.135655 
-0.007839 -0.131095 
-0.007009 -0.133498 
-0.008118 -0.133913 
-0.008602 -0.138028 
-0.008384 -0.136235 
-0.007774 -0.138219 
-0.024174 -0.101635 
-0.022793 -0.105917 
-0.024556 -0.104667 
-0.019222 -0.107137 
-0.021014 -0.106715 
-0.020421 -0.102719 
-0.021416 -0.112551 
-0.021328 -0.110007 
-0.019808 -0.113904 
-0.012197 -0.106366 
-0.013901 -0.106816 
-0.013014 -0.101915 
-0.014995 -0.115413 
-0.014559 -0.111338 
-0.013407 -0.115282 
-0.016654 -0.102654 
-0.015651 -0.107128 
-0.017430 -0.107254 
-0.015061 -0.126284 
-0.015221 -0.124421 
-0.013792 -0.127518 
-0.018262 -0.117607 
-0.016722 -0.121114 
-0.018168 -0.119767 
-0.013872 -0.122457 
-0.015294 -0.121990 
-0.015231 -0.118979 
-0.017938 -0.111319 
-0.016597 -0.115266 
-0.018202 -0.114785 
-0.002291 -0.102734 
-0.001233 -0.098462 
-0.003820 -0.110833 
-0.003155 -0.106847 
-0.003781 -0.098936 
-0.003491 -0.103068 
-0.004749 -0.103511 
-0.005166 -0.125943 
-0.004913 -0.122281 
-0.006635 -0.116431 
-0.005776 -0.119519 
-0.006998 -0.120452 
-0.004649 -0.118533 
-0.004305 -0.114720 
-0.009624 -0.100866 
-0.008982 -0.105229 
-0.010554 -0.105823 
-0.006079 -0.104039 
-0.007489 -0.104622 
-0.006550 -0.099796 
-0.008860 -0.113747 
-0.008257 -0.109281 
-0.007469 -0.113017 
-0.004945 -0.111514 
-0.006161 -0.112257 
-0.005541 -0.107949 
-0.012550 -0.128309 
-0.012453 -0.122571 
-0.012554 -0.125699 
-0.011311 -0.128703 
-0.010066 -0.128737 
-0.011292 -0.110528 
-0.009316 -0.117982 
-0.010324 -0.114400 
-0.011845 -0.114928 
-0.012225 -0.118962 
-0.006341 -0.127007 
-0.008814 -0.128444 
-0.007566 -0.127855 
-0.007294 -0.124280 
-0.008297 -0.121274 
-0.011043 -0.122381 
-0.009652 -0.121933 
-0.009894 -0.125540 
-0.027358 -0.096117 
-0.025442 -0.097157 
-0.027513 -0.087601 
-0.026564 -0.092480 
-0.029590 -0.086884 
-0.023484 -0.097777 
-0.021501 -0.098063 
-0.028906 -0.065929 
-0.028992 -0.071688 
-0.031366 -0.066214 
-0.023737 -0.082640 
-0.026420 -0.077202 
-0.024038 -0.077002 
-0.031016 -0.076931 
-0.028762 -0.077212 
-0.028256 -0.082514 
-0.015601 -0.097596 
-0.013718 -0.097180 
-0.019512 -0.098087 
-0.017539 -0.097913 
-0.018844 -0.087637 
-0.018278 -0.092908 
-0.021005 -0.087901 
-0.025370 -0.087952 
-0.023191 -0.088027 
-0.022435 -0.093166 
-0.006782 -0.008299 
-0.013118 -0.016947 
-0.010971 -0.012022 
-0.015544 -0.030178 
-0.014710 -0.023431 
-0.012195 -0.022564 
-0.021592 -0.028303 
-0.017940 -0.025185 
-0.021550 -0.032909 
-0.013618 -0.056643 
-0.014678 -0.050249 
-0.012654 -0.049942 
-0.019343 -0.051159 
-0.016904 -0.050644 
-0.018017 -0.057413 
-0.013534 -0.036531 
-0.015413 -0.043672 
-0.015737 -0.036959 
-0.030297 -0.054661 
-0.027579 -0.053649 
-0.028455 -0.059923 
-0.024241 -0.040186 
-0.026207 -0.047082 
-0.027320 -0.042132 
-0.023078 -0.058525 
-0.024760 -0.052668 
-0.021980 -0.051829 
-0.018272 -0.037634 
-0.020398 -0.044861 
-0.021141 -0.038675 
-0.002648 -0.094212 
-0.001315 -0.094053 
-0.005446 -0.094817 
-0.004020 -0.094471 
-0.004321 -0.084615 
-0.004202 -0.089691 
-0.005847 -0.084885 
-0.011903 -0.096704 
-0.010166 -0.096203 
-0.010884 -0.086010 
-0.010592 -0.091247 
-0.012744 -0.086443 
-0.008512 -0.095704 
-0.006941 -0.095234 
-0.010446 -0.062526 
-0.010820 -0.068746 
-0.012310 -0.062818 
-0.007533 -0.079790 
-0.009209 -0.074408 
-0.007507 -0.074110 
-0.012925 -0.075113 
-0.011012 -0.074745 
-0.011029 -0.080505 
-0.007241 -0.090369 
-0.009118 -0.085596 
-0.007442 -0.085216 
-0.026342 -0.065471 
-0.021212 -0.064434 
-0.023753 -0.064950 
-0.024057 -0.071107 
-0.021663 -0.076686 
-0.014316 -0.063150 
-0.014953 -0.075504 
-0.014755 -0.069444 
-0.016470 -0.063529 
-0.018774 -0.063957 
-0.014287 -0.092165 
-0.019207 -0.082104 
-0.016735 -0.087283 
-0.014697 -0.086875 
-0.014926 -0.081319 
-0.019203 -0.070259 
-0.017094 -0.075908 
-0.019337 -0.076310 
0.000000 0.000000 
-0.005057 -0.007576 
-0.003447 -0.007297 
-0.004109 -0.007367 
0.000000 0.000000 
-0.008301 -0.014912 
-0.010250 -0.022144 
-0.001810 -0.007299 
-0.002134 -0.007288 
0.000000 0.000000 
-0.006303 -0.021779 
-0.004255 -0.014549 
-0.005340 -0.021752 
0.000000 0.000000 
-0.002501 -0.007279 
-0.002930 -0.007278 
-0.011423 -0.043075 
-0.010814 -0.049699 
-0.011278 -0.029267 
-0.011617 -0.036255 
-0.008441 -0.035941 
-0.009934 -0.036070 
-0.008214 -0.028961 
-0.005871 -0.014593 
-0.007405 -0.021832 
-0.008695 -0.021936 
0.000000 -0.007343 
-0.000191 -0.007343 
0.000000 0.000000 
-0.000563 -0.021704 
-0.000380 -0.014579 
0.000000 -0.021703 
0.000000 0.000000 
-0.000386 -0.007341 
-0.000586 -0.007338 
-0.001160 -0.048915 
-0.001037 -0.042329 
0.000000 -0.048903 
-0.002254 -0.028731 
-0.001803 -0.035605 
-0.002741 -0.035631 
0.000000 -0.035583 
-0.000894 -0.035589 
-0.000735 -0.028710 
0.000000 0.000000 
-0.001260 -0.007320 
-0.001522 -0.007310 
-0.000797 -0.007334 
-0.001020 -0.007328 
0.000000 0.000000 
-0.003001 -0.021720 
-0.002027 -0.014569 
-0.002344 -0.021714 
-0.001135 -0.021706 
-0.001725 -0.021710 
-0.001165 -0.014576 
-0.001376 -0.089323 
-0.000000 -0.094001 
-0.004373 -0.079262 
-0.002849 -0.084415 
-0.000000 -0.084250 
-0.001415 -0.084292 
-0.001432 -0.078981 
-0.009884 -0.056104 
-0.008709 -0.062273 
-0.005554 -0.061876 
-0.007084 -0.062056 
-0.006683 -0.055721 
-0.007359 -0.068192 
-0.005894 -0.073856 
-0.000000 -0.061547 
-0.001341 -0.061568 
-0.001262 -0.055334 
-0.001426 -0.073410 
-0.001396 -0.067600 
-0.000000 -0.073379 
-0.003860 -0.055465 
-0.002701 -0.061631 
-0.004099 -0.061734 
-0.004355 -0.073651 
-0.004264 -0.067802 
-0.002871 -0.073502 
-0.003028 -0.014557 
-0.003920 -0.028772 
-0.003710 -0.021727 
-0.004483 -0.021736 
-0.005852 -0.028838 
-0.002338 -0.048952 
-0.004818 -0.049097 
-0.003551 -0.049013 
-0.003176 -0.042396 
-0.003722 -0.035667 
-0.009133 -0.049502 
-0.007100 -0.035846 
-0.008201 -0.042741 
-0.007589 -0.049339 
-0.006157 -0.049206 
-0.004763 -0.035714 
-0.005514 -0.042531 
-0.005883 -0.035772 
0.000000 0.000000 
0.000191 -0.007343 
0.000586 -0.007338 
0.000386 -0.007341 
0.000000 0.000000 
0.000380 -0.014579 
0.000563 -0.021704 
0.001522 -0.007310 
0.001260 -0.007320 
0.000000 0.000000 
0.002344 -0.021714 
0.002027 -0.014569 
0.003001 -0.021720 
0.000000 0.000000 
0.001020 -0.007328 
0.000797 -0.007334 
0.001037 -0.042329 
0.001160 -0.048915 
0.000735 -0.028710 
0.000894 -0.035589 
0.002741 -0.035631 
0.001803 -0.035605 
0.002254 -0.028731 
0.001165 -0.014576 
0.001725 -0.021710 
0.001135 -0.021706 
0.006782 -0.008299 
0.005057 -0.007576 
0.000000 0.000000 
0.010250 -0.022144 
0.008301 -0.014912 
0.012195 -0.022564 
0.000000 0.000000 
0.004109 -0.007367 
0.003447 -0.007297 
0.010814 -0.049699 
0.011423 -0.043075 
0.012654 -0.049942 
0.008214 -0.028961 
0.009934 -0.036070 
0.008441 -0.035941 
0.013534 -0.036531 
0.011617 -0.036255 
0.011278 -0.029267 
0.000000 0.000000 
0.002134 -0.007288 
0.001810 -0.007299 
0.002930 -0.007278 
0.002501 -0.007279 
0.000000 0.000000 
0.005340 -0.021752 
0.004255 -0.014549 
0.006303 -0.021779 
0.008695 -0.021936 
0.007405 -0.021832 
0.005871 -0.014593 
0.001376 -0.089323 
0.001315 -0.094053 
0.001432 -0.078981 
0.001415 -0.084292 
0.004321 -0.084615 
0.002849 -0.084415 
0.004373 -0.079262 
0.001262 -0.055334 
0.001341 -0.061568 
0.004099 -0.061734 
0.002701 -0.061631 
0.003860 -0.055465 
0.001396 -0.067600 
0.001426 -0.073410 
0.010446 -0.062526 
0.008709 -0.062273 
0.009884 -0.056104 
0.005894 -0.073856 
0.007359 -0.068192 
0.007507 -0.074110 
0.006683 -0.055721 
0.007084 -0.062056 
0.005554 -0.061876 
0.002871 -0.073502 
0.004264 -0.067802 
0.004355 -0.073651 
0.003028 -0.014557 
0.005852 -0.028838 
0.004483 -0.021736 
0.003710 -0.021727 
0.003920 -0.028772 
0.009133 -0.049502 
0.006157 -0.049206 
0.007589 -0.049339 
0.008201 -0.042741 
0.007100 -0.035846 
0.002338 -0.048952 
0.003722 -0.035667 
0.003176 -0.042396 
0.003551 -0.049013 
0.004818 -0.049097 
0.005883 -0.035772 
0.005514 -0.042531 
0.004763 -0.035714 
0.010971 -0.012022 
0.013118 -0.016947 
0.021550 -0.032909 
0.017940 -0.025185 
0.021592 -0.028303 
0.014710 -0.023431 
0.015544 -0.030178 
0.028455 -0.059923 
0.027579 -0.053649 
0.030297 -0.054661 
0.021980 -0.051829 
0.024760 -0.052668 
0.023078 -0.058525 
0.027320 -0.042132 
0.026207 -0.047082 
0.024241 -0.040186 
0.014678 -0.050249 
0.013618 -0.056643 
0.015737 -0.036959 
0.015413 -0.043672 
0.018017 -0.057413 
0.016904 -0.050644 
0.019343 -0.051159 
0.021141 -0.038675 
0.020398 -0.044861 
0.018272 -0.037634 
0.024174 -0.101635 
0.025442 -0.097157 
0.027358 -0.096117 
0.021501 -0.098063 
0.023484 -0.097777 
0.020421 -0.102719 
0.029590 -0.086884 
0.026564 -0.092480 
0.027513 -0.087601 
0.013718 -0.097180 
0.015601 -0.097596 
0.013014 -0.101915 
0.021005 -0.087901 
0.018278 -0.092908 
0.018844 -0.087637 
0.016654 -0.102654 
0.017539 -0.097913 
0.019512 -0.098087 
0.031366 -0.066214 
0.028992 -0.071688 
0.028906 -0.065929 
0.028256 -0.082514 
0.028762 -0.077212 
0.031016 -0.076931 
0.024038 -0.077002 
0.026420 -0.077202 
0.023737 -0.082640 
0.022435 -0.093166 
0.023191 -0.088027 
0.025370 -0.087952 
0.002648 -0.094212 
0.001233 -0.098462 
0.005847 -0.084885 
0.004202 -0.089691 
0.003781 -0.098936 
0.004020 -0.094471 
0.005446 -0.094817 
0.012310 -0.062818 
0.010820 -0.068746 
0.011029 -0.080505 
0.011012 -0.074745 
0.012925 -0.075113 
0.009209 -0.074408 
0.007533 -0.079790 
0.009624 -0.100866 
0.010166 -0.096203 
0.011903 -0.096704 
0.006941 -0.095234 