# vtk DataFile Version 2.0
Unstructured Grid Example
ASCII
DATASET UNSTRUCTURED_GRID

POINTS 4225 float
0.007356 -0.185659 0.000000 
0.992644 -0.185659 0.000000 
1.000000 1.000000 0.000000 
0.000000 1.000000 0.000000 
0.500000 -0.100000 0.000000 
0.969162 0.365001 0.000000 
0.500000 1.000000 0.000000 
0.030838 0.365001 0.000000 
0.500000 0.364912 0.000000 
0.258549 -0.182802 0.000000 
0.500000 0.091434 0.000000 
0.254420 0.079097 0.000000 
0.741451 -0.182802 0.000000 
0.745580 0.079097 0.000000 
0.985393 0.079107 0.000000 
0.735919 0.361584 0.000000 
0.958964 0.666108 0.000000 
0.732596 0.670737 0.000000 
0.750000 1.000000 0.000000 
0.500000 0.672351 0.000000 
0.250000 1.000000 0.000000 
0.267404 0.670737 0.000000 
0.041036 0.666108 0.000000 
0.264081 0.361584 0.000000 
0.014607 0.079107 0.000000 
0.132562 -0.186699 0.000000 
0.253181 -0.054297 0.000000 
0.131991 -0.058352 0.000000 
0.500000 -0.026630 0.000000 
0.373306 -0.041360 0.000000 
0.384010 -0.168422 0.000000 
0.378670 0.221112 0.000000 
0.375384 0.086517 0.000000 
0.500000 0.223200 0.000000 
0.615990 -0.168422 0.000000 
0.626694 -0.041360 0.000000 
0.868009 -0.058352 0.000000 
0.746819 -0.054297 0.000000 
0.867438 -0.186699 0.000000 
0.624616 0.086517 0.000000 
0.621330 0.221112 0.000000 
0.990154 -0.056766 0.000000 
0.865410 0.076093 0.000000 
0.852569 0.360717 0.000000 
0.859539 0.215744 0.000000 
0.977818 0.220069 0.000000 
0.740999 0.217243 0.000000 
0.618428 0.363866 0.000000 
0.961839 0.513543 0.000000 
0.847083 0.511450 0.000000 
0.854480 0.832530 0.000000 
0.846186 0.668546 0.000000 
0.965613 0.823903 0.000000 
0.732399 0.512793 0.000000 
0.616660 0.514480 0.000000 
0.875000 1.000000 0.000000 
0.738603 0.834118 0.000000 
0.500000 0.834577 0.000000 
0.619861 0.834478 0.000000 
0.625000 1.000000 0.000000 
0.616924 0.671939 0.000000 
0.500000 0.515188 0.000000 
0.375000 1.000000 0.000000 
0.380139 0.834478 0.000000 
0.145520 0.832530 0.000000 
0.261397 0.834118 0.000000 
0.125000 1.000000 0.000000 
0.383076 0.671939 0.000000 
0.383340 0.514480 0.000000 
0.034387 0.823903 0.000000 
0.153814 0.668546 0.000000 
0.147431 0.360717 0.000000 
0.152917 0.511450 0.000000 
0.038161 0.513543 0.000000 
0.267601 0.512793 0.000000 
0.381572 0.363866 0.000000 
0.022182 0.220069 0.000000 
0.140461 0.215744 0.000000 
0.134590 0.076093 0.000000 
0.009846 -0.056766 0.000000 
0.259001 0.217243 0.000000 
0.069822 -0.186522 0.000000 
0.132080 -0.123392 0.000000 
0.070278 -0.123169 0.000000 
0.255041 -0.119390 0.000000 
0.193732 -0.122298 0.000000 
0.195517 -0.185620 0.000000 
0.193059 0.009231 0.000000 
0.192771 -0.057223 0.000000 
0.253138 0.011898 0.000000 
0.500000 -0.076015 0.000000 
0.434728 -0.089618 0.000000 
0.444071 -0.150442 0.000000 
0.436102 0.027663 0.000000 
0.434932 -0.031901 0.000000 
0.500000 0.030213 0.000000 
0.321492 -0.177562 0.000000 
0.375365 -0.104717 0.000000 
0.315707 -0.113970 0.000000 
0.440001 0.292547 0.000000 
0.439178 0.222633 0.000000 
0.500000 0.292935 0.000000 
0.314574 0.082494 0.000000 
0.377028 0.152814 0.000000 
0.316491 0.150011 0.000000 
0.500000 0.155935 0.000000 
0.438257 0.155067 0.000000 
0.437235 0.090013 0.000000 
0.313221 -0.049132 0.000000 
0.373940 0.021994 0.000000 
0.313245 0.016260 0.000000 
0.555929 -0.150442 0.000000 
0.565272 -0.089618 0.000000 
0.684293 -0.113970 0.000000 
0.624635 -0.104717 0.000000 
0.678508 -0.177562 0.000000 
0.565068 -0.031901 0.000000 
0.563898 0.027663 0.000000 
0.929722 -0.123169 0.000000 
0.867920 -0.123392 0.000000 
0.930178 -0.186522 0.000000 
0.746862 0.011898 0.000000 
0.807229 -0.057223 0.000000 
0.806941 0.009231 0.000000 
0.804483 -0.185620 0.000000 
0.806268 -0.122298 0.000000 
0.744959 -0.119390 0.000000 
0.560822 0.222633 0.000000 
0.559999 0.292547 0.000000 
0.562765 0.090013 0.000000 
0.561743 0.155067 0.000000 
0.683509 0.150011 0.000000 
0.622972 0.152814 0.000000 
0.685426 0.082494 0.000000 
0.686779 -0.049132 0.000000 
0.686755 0.016260 0.000000 
0.626060 0.021994 0.000000 
0.991533 -0.122156 0.000000 
0.929046 -0.058067 0.000000 
0.925408 0.076800 0.000000 
0.927667 0.008645 0.000000 
0.988167 0.010414 0.000000 
0.867207 0.008197 0.000000 
0.805492 0.076890 0.000000 
0.910822 0.361914 0.000000 
0.914755 0.288844 0.000000 
0.973478 0.292058 0.000000 
0.797281 0.287609 0.000000 
0.856037 0.287541 0.000000 
0.794305 0.360773 0.000000 
0.981878 0.149053 0.000000 
0.918697 0.216959 0.000000 
0.922344 0.146266 0.000000 
0.619788 0.291469 0.000000 
0.559291 0.364675 0.000000 
0.743495 0.147472 0.000000 
0.681377 0.219125 0.000000 
0.677311 0.362735 0.000000 
0.679253 0.290008 0.000000 
0.738391 0.288577 0.000000 
0.862765 0.145274 0.000000 
0.800337 0.215973 0.000000 
0.803179 0.145770 0.000000 
0.965154 0.438788 0.000000 
0.907231 0.436197 0.000000 
0.902570 0.588675 0.000000 
0.904343 0.511752 0.000000 
0.959606 0.589289 0.000000 
0.849468 0.435330 0.000000 
0.791719 0.435536 0.000000 
0.921438 0.914652 0.000000 
0.910454 0.829755 0.000000 
0.975990 0.906495 0.000000 
0.789654 0.669785 0.000000 
0.848821 0.749697 0.000000 
0.792224 0.751091 0.000000 
0.960609 0.744176 0.000000 
0.904697 0.747348 0.000000 
0.902442 0.667122 0.000000 
0.617346 0.438237 0.000000 
0.558736 0.438877 0.000000 
0.733838 0.436320 0.000000 
0.675726 0.437314 0.000000 
0.674371 0.591797 0.000000 
0.674681 0.513700 0.000000 
0.731886 0.590966 0.000000 
0.845821 0.589156 0.000000 
0.789005 0.590034 0.000000 
0.789832 0.511947 0.000000 
0.937500 1.000000 0.000000 
0.863610 0.916415 0.000000 
0.743851 0.916946 0.000000 
0.804108 0.916837 0.000000 
0.812500 1.000000 0.000000 
0.797066 0.833644 0.000000 
0.734793 0.751900 0.000000 
0.500000 0.916980 0.000000 
0.561159 0.916977 0.000000 
0.562500 1.000000 0.000000 
0.559105 0.752891 0.000000 
0.559996 0.834548 0.000000 
0.500000 0.752957 0.000000 
0.687500 1.000000 0.000000 
0.622245 0.916975 0.000000 
0.683176 0.916971 0.000000 
0.558396 0.515001 0.000000 
0.500000 0.439101 0.000000 
0.674988 0.671442 0.000000 
0.616483 0.592447 0.000000 
0.500000 0.593012 0.000000 
0.558316 0.592863 0.000000 
0.558543 0.672242 0.000000 
0.679454 0.834350 0.000000 
0.618051 0.752709 0.000000 
0.676673 0.752396 0.000000 
0.437500 1.000000 0.000000 
0.438841 0.916977 0.000000 
0.316824 0.916971 0.000000 
0.377755 0.916975 0.000000 
0.312500 1.000000 0.000000 
0.440004 0.834548 0.000000 
0.440895 0.752891 0.000000 
0.078562 0.914652 0.000000 
0.136390 0.916415 0.000000 
0.062500 1.000000 0.000000 
0.265207 0.751900 0.000000 
0.202934 0.833644 0.000000 
0.207776 0.751091 0.000000 
0.187500 1.000000 0.000000 
0.195892 0.916837 0.000000 
0.256149 0.916946 0.000000 
0.441604 0.515001 0.000000 
0.441264 0.438877 0.000000 
0.441457 0.672242 0.000000 
0.441684 0.592863 0.000000 
0.325629 0.591797 0.000000 
0.383517 0.592447 0.000000 
0.325012 0.671442 0.000000 
0.320546 0.834350 0.000000 
0.323327 0.752396 0.000000 
0.381949 0.752709 0.000000 
0.024010 0.906495 0.000000 
0.089546 0.829755 0.000000 
0.097558 0.667122 0.000000 
0.095303 0.747348 0.000000 
0.039391 0.744176 0.000000 
0.151179 0.749697 0.000000 
0.210346 0.669785 0.000000 
0.089178 0.361914 0.000000 
0.092769 0.436197 0.000000 
0.034846 0.438788 0.000000 
0.208281 0.435536 0.000000 
0.150532 0.435330 0.000000 
0.205695 0.360773 0.000000 
0.040394 0.589289 0.000000 
0.095657 0.511752 0.000000 
0.097430 0.588675 0.000000 
0.382654 0.438237 0.000000 
0.440709 0.364675 0.000000 
0.268114 0.590966 0.000000 
0.325319 0.513700 0.000000 
0.322689 0.362735 0.000000 
0.324274 0.437314 0.000000 
0.266162 0.436320 0.000000 
0.154179 0.589156 0.000000 
0.210168 0.511947 0.000000 
0.210995 0.590034 0.000000 
0.026522 0.292058 0.000000 
0.085245 0.288844 0.000000 
0.077656 0.146266 0.000000 
0.081303 0.216959 0.000000 
0.018122 0.149053 0.000000 
0.143963 0.287541 0.000000 
0.202719 0.287609 0.000000 
0.070954 -0.058067 0.000000 
0.008467 -0.122156 0.000000 
0.194508 0.076890 0.000000 
0.132793 0.008197 0.000000 
0.011833 0.010414 0.000000 
0.072333 0.008645 0.000000 
0.074592 0.076800 0.000000 
0.380212 0.291469 0.000000 
0.261609 0.288577 0.000000 
0.320747 0.290008 0.000000 
0.318623 0.219125 0.000000 
0.256505 0.147472 0.000000 
0.137235 0.145274 0.000000 
0.196821 0.145770 0.000000 
0.199663 0.215973 0.000000 
0.038562 -0.186127 0.000000 
0.070066 -0.155068 0.000000 
0.038965 -0.154652 0.000000 
0.132321 -0.155276 0.000000 
0.101187 -0.155301 0.000000 
0.101158 -0.186737 0.000000 
0.101267 -0.091095 0.000000 
0.101189 -0.123415 0.000000 
0.131945 -0.091074 0.000000 
0.256652 -0.151357 0.000000 
0.225650 -0.153038 0.000000 
0.227033 -0.184463 0.000000 
0.223548 -0.088739 0.000000 
0.224445 -0.121106 0.000000 
0.253867 -0.087006 0.000000 
0.164021 -0.186345 0.000000 
0.194575 -0.154205 0.000000 
0.163457 -0.154930 0.000000 
0.223653 0.043949 0.000000 
0.223115 0.010352 0.000000 
0.253649 0.045364 0.000000 
0.162422 -0.057987 0.000000 
0.192756 -0.024152 0.000000 
0.162547 -0.024902 0.000000 
0.252958 -0.021321 0.000000 
0.222891 -0.022970 0.000000 
0.223026 -0.056010 0.000000 
0.162935 -0.123039 0.000000 
0.193106 -0.089952 0.000000 
0.162565 -0.090711 0.000000 
0.500000 -0.094616 0.000000 
0.466139 -0.105332 0.000000 
0.468787 -0.131213 0.000000 
0.466539 -0.055122 0.000000 
0.466058 -0.080753 0.000000 
0.500000 -0.052636 0.000000 
0.414720 -0.161208 0.000000 
0.436741 -0.119132 0.000000 
0.408000 -0.129372 0.000000 
0.468237 0.059877 0.000000 
0.467894 0.029540 0.000000 
0.500000 0.060366 0.000000 
0.403775 -0.036645 0.000000 
0.435504 -0.002455 0.000000 
0.404181 -0.005992 0.000000 
0.500000 0.001132 0.000000 
0.467504 0.000162 0.000000 
0.467052 -0.028114 0.000000 
0.290045 -0.180547 0.000000 
0.318237 -0.146024 0.000000 
0.287536 -0.149065 0.000000 
0.378640 -0.136671 0.000000 
0.348656 -0.142014 0.000000 
0.352846 -0.173641 0.000000 
0.343950 -0.077761 0.000000 
0.345676 -0.109945 0.000000 
0.373792 -0.072953 0.000000 
0.434531 -0.060823 0.000000 
0.403828 -0.067190 0.000000 
0.404887 -0.097977 0.000000 
[...]
POINT_DATA 4225

SCALARS u_h float 2
LOOKUP_TABLE default
0.007356 -0.185659 
-0.007356 -0.185659 
0.000000 0.000000 
0.000000 0.000000 
-0.000000 -0.100000 
-0.030838 -0.134999 
0.000000 0.000000 
0.030838 -0.134999 
0.000000 -0.135088 
0.008549 -0.182802 
-0.000000 -0.158566 
0.004420 -0.170903 
-0.008549 -0.182802 
-0.004420 -0.170903 
-0.014607 -0.170893 
-0.014081 -0.138416 
-0.041036 -0.083892 
-0.017404 -0.079263 
0.000000 0.000000 
0.000000 -0.077649 
0.000000 0.000000 
0.017404 -0.079263 
0.041036 -0.083892 
0.014081 -0.138416 
0.014607 -0.170893 
0.007562 -0.186699 
0.003181 -0.179297 
0.006991 -0.183352 
-0.000000 -0.151630 
-0.001694 -0.166360 
0.009010 -0.168422 
0.003670 -0.153888 
0.000384 -0.163483 
-0.000000 -0.151800 
-0.009010 -0.168422 
0.001694 -0.166360 
-0.006991 -0.183352 
-0.003181 -0.179297 
-0.007562 -0.186699 
-0.000384 -0.163483 
-0.003670 -0.153888 
-0.009846 -0.181766 
-0.009590 -0.173907 
-0.022431 -0.139283 
-0.015461 -0.159256 
-0.022182 -0.154931 
-0.009001 -0.157757 
-0.006572 -0.136134 
-0.038161 -0.111457 
-0.027917 -0.113550 
-0.020520 -0.042470 
-0.028814 -0.081454 
-0.034387 -0.051097 
-0.017601 -0.112207 
-0.008340 -0.110520 
0.000000 0.000000 
-0.011397 -0.040882 
0.000000 -0.040423 
-0.005139 -0.040522 
0.000000 0.000000 
-0.008076 -0.078061 
0.000000 -0.109812 
0.000000 0.000000 
0.005139 -0.040522 
0.020520 -0.042470 
0.011397 -0.040882 
0.000000 0.000000 
0.008076 -0.078061 
0.008340 -0.110520 
0.034387 -0.051097 
0.028814 -0.081454 
0.022431 -0.139283 
0.027917 -0.113550 
0.038161 -0.111457 
0.017601 -0.112207 
0.006572 -0.136134 
0.022182 -0.154931 
0.015461 -0.159256 
0.009590 -0.173907 
0.009846 -0.181766 
0.009001 -0.157757 
0.007322 -0.186522 
0.007080 -0.185892 
0.007778 -0.185669 
0.005041 -0.181890 
0.006232 -0.184798 
0.008017 -0.185620 
0.005559 -0.178269 
0.005271 -0.182223 
0.003138 -0.175602 
-0.000000 -0.138515 
-0.002772 -0.152118 
0.006571 -0.150442 
-0.001398 -0.159837 
-0.002568 -0.156901 
-0.000000 -0.157287 
0.008992 -0.177562 
0.000365 -0.167217 
0.003207 -0.176470 
0.002501 -0.144953 
0.001678 -0.152367 
-0.000000 -0.144565 
0.002074 -0.167506 
0.002028 -0.159686 
0.003991 -0.162489 
-0.000000 -0.156565 
0.000757 -0.157433 
-0.000265 -0.159987 
0.000721 -0.174132 
-0.001060 -0.165506 
0.000745 -0.171240 
-0.006571 -0.150442 
0.002772 -0.152118 
-0.003207 -0.176470 
-0.000365 -0.167217 
-0.008992 -0.177562 
0.002568 -0.156901 
0.001398 -0.159837 
-0.007778 -0.185669 
-0.007080 -0.185892 
-0.007322 -0.186522 
-0.003138 -0.175602 
-0.005271 -0.182223 
-0.005559 -0.178269 
-0.008017 -0.185620 
-0.006232 -0.184798 
-0.005041 -0.181890 
-0.001678 -0.152367 
-0.002501 -0.144953 
0.000265 -0.159987 
-0.000757 -0.157433 
-0.003991 -0.162489 
-0.002028 -0.159686 
-0.002074 -0.167506 
-0.000721 -0.174132 
-0.000745 -0.171240 
0.001060 -0.165506 
-0.008467 -0.184656 
-0.008454 -0.183067 
-0.012092 -0.173200 
-0.009833 -0.178855 
-0.011833 -0.177086 
-0.007793 -0.179303 
-0.007008 -0.173110 
-0.026678 -0.138086 
-0.022745 -0.148656 
-0.026522 -0.145442 
-0.015219 -0.149891 
-0.018963 -0.149959 
-0.018195 -0.139227 
-0.018122 -0.163447 
-0.018803 -0.158041 
-0.015156 -0.166234 
-0.005212 -0.146031 
-0.003209 -0.135325 
-0.006505 -0.165028 
-0.006123 -0.155875 
-0.010189 -0.137265 
-0.008247 -0.147492 
-0.011609 -0.148923 
-0.012235 -0.167226 
-0.012163 -0.159027 
-0.009321 -0.166730 
-0.034846 -0.123712 
-0.030269 -0.126303 
-0.034930 -0.098825 
-0.033157 -0.113248 
-0.040394 -0.098211 
-0.025532 -0.127170 
-0.020781 -0.126964 
-0.016062 -0.022848 
-0.027046 -0.045245 
-0.024010 -0.031005 
-0.022846 -0.080215 
-0.026179 -0.062803 
-0.020276 -0.061409 
-0.039391 -0.068324 
-0.032803 -0.065152 
-0.035058 -0.082878 
-0.007654 -0.124263 
-0.003764 -0.123623 
-0.016162 -0.126180 
-0.011774 -0.125186 
-0.013129 -0.095703 
-0.012819 -0.111300 
-0.018114 -0.096534 
-0.029179 -0.098344 
-0.023495 -0.097466 
-0.022668 -0.113053 
0.000000 0.000000 
-0.011390 -0.021085 
-0.006149 -0.020554 
-0.008392 -0.020663 
0.000000 0.000000 
-0.015434 -0.041356 
-0.015207 -0.060600 
-0.000000 -0.020520 
-0.001341 -0.020523 
0.000000 0.000000 
-0.003395 -0.059609 
-0.002504 -0.040452 
0.000000 -0.059543 
0.000000 0.000000 
-0.002755 -0.020525 
-0.004324 -0.020529 
-0.004104 -0.109999 
0.000000 -0.123399 
-0.012512 -0.078558 
-0.008517 -0.095053 
0.000000 -0.094488 
-0.004184 -0.094637 
-0.003957 -0.077758 
-0.008046 -0.040650 
-0.006949 -0.059791 
-0.010827 -0.060104 
0.000000 0.000000 
0.001341 -0.020523 
0.004324 -0.020529 
0.002755 -0.020525 
0.000000 0.000000 
0.002504 -0.040452 
0.003395 -0.059609 
0.016062 -0.022848 
0.011390 -0.021085 
0.000000 0.000000 
0.015207 -0.060600 
0.015434 -0.041356 
0.020276 -0.061409 
0.000000 0.000000 
0.008392 -0.020663 
0.006149 -0.020554 
0.004104 -0.109999 
0.003764 -0.123623 
0.003957 -0.077758 
0.004184 -0.094637 
0.013129 -0.095703 
0.008517 -0.095053 
0.012512 -0.078558 
0.008046 -0.040650 
0.010827 -0.060104 
0.006949 -0.059791 
0.024010 -0.031005 
0.027046 -0.045245 
0.035058 -0.082878 
0.032803 -0.065152 
0.039391 -0.068324 
0.026179 -0.062803 
0.022846 -0.080215 
0.026678 -0.138086 
0.030269 -0.126303 
0.034846 -0.123712 
0.020781 -0.126964 
0.025532 -0.127170 
0.018195 -0.139227 
0.040394 -0.098211 
0.033157 -0.113248 
0.034930 -0.098825 
0.007654 -0.124263 
0.003209 -0.135325 
0.018114 -0.096534 
0.012819 -0.111300 
0.010189 -0.137265 
0.011774 -0.125186 
0.016162 -0.126180 
0.029179 -0.098344 
0.022668 -0.113053 
0.023495 -0.097466 
0.026522 -0.145442 
0.022745 -0.148656 
0.015156 -0.166234 
0.018803 -0.158041 
0.018122 -0.163447 
0.018963 -0.149959 
0.015219 -0.149891 
0.008454 -0.183067 
0.008467 -0.184656 
0.007008 -0.173110 
0.007793 -0.179303 
0.011833 -0.177086 
0.009833 -0.178855 
0.012092 -0.173200 
0.005212 -0.146031 
0.011609 -0.148923 
0.008247 -0.147492 
0.006123 -0.155875 
0.006505 -0.165028 
0.012235 -0.167226 
0.009321 -0.166730 
0.012163 -0.159027 
0.007312 -0.186127 
0.007566 -0.186318 
0.007715 -0.185902 
0.007321 -0.186526 
0.007437 -0.186551 
0.007408 -0.186737 
0.007517 -0.184845 
0.007439 -0.185915 
0.006945 -0.184824 
0.006652 -0.182607 
0.006900 -0.184288 
0.008283 -0.184463 
0.004798 -0.182489 
0.005695 -0.183606 
0.003867 -0.180756 
0.007771 -0.186345 
0.007075 -0.185455 
0.007207 -0.186180 
0.004903 -0.174801 
0.004365 -0.177148 
0.003649 -0.173386 
0.006172 -0.182987 
0.005256 -0.180402 
0.006297 -0.181152 
0.002958 -0.177571 
0.004141 -0.179220 
0.004276 -0.181010 
0.006685 -0.185539 
0.005606 -0.183702 
0.006315 -0.184461 
-0.000000 -0.125866 
-0.002611 -0.136582 
0.000037 -0.131213 
-0.002211 -0.148872 
-0.002692 -0.143253 
-0.000000 -0.146386 
0.008470 -0.161208 
-0.000759 -0.150382 
0.001750 -0.160622 
-0.000513 -0.158873 
-0.000856 -0.157960 
-0.000000 -0.158384 
-0.002475 -0.161645 
-0.001996 -0.158705 
-0.002069 -0.162242 
-0.000000 -0.155118 
-0.001246 -0.156088 
-0.001698 -0.153114 
0.008795 -0.180547 
0.005737 -0.177274 
0.006286 -0.180315 
0.003640 -0.167921 
0.004906 -0.173264 
0.009096 -0.173641 
0.000200 -0.171511 
0.001926 -0.172445 
-0.001208 -0.166703 
-0.002969 -0.154573 
-0.002422 -0.160940 
-0.001363 -0.160477 
0.001420 -0.140163 
0.001235 -0.144661 
0.000000 -0.140090 
0.002621 -0.153034 
0.002103 -0.148945 
0.003237 -0.149500 
-0.000000 -0.148477 
0.001033 -0.148595 
0.000817 -0.151944 
0.003194 -0.169330 
0.002988 -0.165181 
0.004134 -0.166750 
0.001198 -0.161826 
0.001996 -0.163503 
0.001118 -0.165517 
0.003881 -0.158199 
0.002927 -0.161074 
0.002856 -0.157043 
-0.000000 -0.157935 
0.000078 -0.158218 
-0.000204 -0.158933 
0.000586 -0.154684 
0.000341 -0.156786 
-0.000000 -0.154506 
-0.000081 -0.161572 
0.000259 -0.159036 
0.000620 -0.160286 
0.001976 -0.156015 
0.001308 -0.158434 
0.001229 -0.155203 
0.004228 -0.179555 
-0.000551 -0.170574 
0.001564 -0.175378 
0.002793 -0.178419 
0.001987 -0.177024 
-0.000817 -0.160261 
-0.000385 -0.164691 
-0.000785 -0.162301 
-0.001465 -0.162503 
-0.001551 -0.166018 
0.002430 -0.171609 
0.001730 -0.175425 
0.001913 -0.173628 
0.001302 -0.169508 
0.000336 -0.167159 
-0.000632 -0.169599 
-0.000282 -0.168493 
0.000506 -0.172763 
-0.000037 -0.131213 
0.002611 -0.136582 
-0.001750 -0.160622 
0.000759 -0.150382 
-0.008470 -0.161208 
0.002692 -0.143253 
0.002211 -0.148872 
-0.006286 -0.180315 
-0.005737 -0.177274 
-0.008795 -0.180547 
0.001208 -0.166703 
-0.001926 -0.172445 
-0.000200 -0.171511 
-0.009096 -0.173641 
-0.004906 -0.173264 
-0.003640 -0.167921 
0.000856 -0.157960 
0.000513 -0.158873 
0.001698 -0.153114 
0.001246 -0.156088 
0.002069 -0.162242 
0.001996 -0.158705 
0.002475 -0.161645 
0.001363 -0.160477 
0.002422 -0.160940 
0.002969 -0.154573 
-0.007715 -0.185902 
-0.007566 -0.186318 
-0.007312 -0.186127 
-0.006945 -0.184824 
-0.007439 -0.185915 
-0.007517 -0.184845 
-0.007408 -0.186737 
-0.007437 -0.186551 
-0.007321 -0.186526 
-0.003649 -0.173386 
-0.004365 -0.177148 
-0.004903 -0.174801 
-0.004276 -0.181010 
-0.004141 -0.179220 
-0.002958 -0.177571 
-0.006297 -0.181152 
-0.005256 -0.180402 
-0.006172 -0.182987 
-0.008283 -0.184463 
-0.006900 -0.184288 
-0.006652 -0.182607 
-0.007207 -0.186180 
-0.007075 -0.185455 
-0.007771 -0.186345 
-0.003867 -0.180756 
-0.005695 -0.183606 
-0.004798 -0.182489 
-0.006315 -0.184461 
-0.005606 -0.183702 
-0.006685 -0.185539 
-0.001235 -0.144661 
-0.001420 -0.140163 
-0.000817 -0.151944 
-0.001033 -0.148595 
-0.003237 -0.149500 
-0.002103 -0.148945 
-0.002621 -0.153034 
0.000204 -0.158933 
-0.000078 -0.158218 
-0.000620 -0.160286 
-0.000259 -0.159036 
0.000081 -0.161572 
-0.000341 -0.156786 
-0.000586 -0.154684 
-0.004134 -0.166750 
-0.002988 -0.165181 
-0.003194 -0.169330 
-0.002856 -0.157043 
-0.002927 -0.161074 
-0.003881 -0.158199 
-0.001118 -0.165517 
-0.001996 -0.163503 
-0.001198 -0.161826 
-0.001229 -0.155203 
-0.001308 -0.158434 
-0.001976 -0.156015 
-0.004228 -0.179555 
-0.001987 -0.177024 
-0.002793 -0.178419 
-0.001564 -0.175378 
0.000551 -0.170574 
-0.002430 -0.171609 
-0.000336 -0.167159 
-0.001302 -0.169508 
-0.001913 -0.173628 
-0.001730 -0.175425 
0.000817 -0.160261 
0.001551 -0.166018 
0.001465 -0.162503 
0.000785 -0.162301 
0.000385 -0.164691 
-0.000506 -0.172763 
0.000282 -0.168493 
0.000632 -0.169599 
-0.007888 -0.185385 
-0.008114 -0.185225 
-0.009143 -0.182515 
-0.008570 -0.184091 
-0.009102 -0.183448 
-0.008051 -0.184580 
-0.007745 -0.183363 
-0.013335 -0.172256 
-0.011973 -0.175363 
-0.013120 -0.174161 
-0.009726 -0.176667 
-0.010852 -0.176198 
-0.010849 -0.173746 
-0.010746 -0.179633 
-0.010821 -0.178126 
-0.009883 -0.180518 
-0.006155 -0.175838 
-0.005704 -0.172174 
-0.007266 -0.181504 
-0.006704 -0.178981 
-0.008309 -0.173692 
-0.007382 -0.176493 
-0.008572 -0.176767 
-0.009038 -0.181151 
-0.008831 -0.179254 
-0.008174 -0.181492 
-0.028774 -0.136829 
-0.026723 -0.142209 
-0.028703 -0.140342 
-0.022728 -0.144357 
-0.024731 -0.143520 
-0.024560 -0.138877 
-0.024336 -0.150305 
-0.024634 -0.147325 
-0.022542 -0.152174 
-0.014783 -0.144395 
-0.016735 -0.144755 
-0.016115 -0.138888 
-0.017197 -0.154776 
-0.017081 -0.150065 
-0.015430 -0.154859 
-0.020305 -0.139378 
-0.018719 -0.144908 
-0.020721 -0.144797 
-0.016281 -0.167313 
-0.016626 -0.165089 
-0.014894 -0.168825 
-0.020485 -0.156755 
-0.018501 -0.161062 
-0.020099 -0.159315 
-0.015357 -0.163052 
-0.016924 -0.162288 
-0.017129 -0.158855 
-0.020853 -0.149510 
-0.018974 -0.154342 
-0.020756 -0.153496 
-0.002871 -0.140407 
-0.001594 -0.135116 
-0.004458 -0.150217 
-0.003821 -0.145421 
-0.004864 -0.135673 
-0.004365 -0.140808 
-0.005921 -0.141334 
-0.005390 -0.168127 
-0.005195 -0.163833 
-0.007516 -0.156863 
-0.006334 -0.160546 
-0.007722 -0.161579 
-0.005046 -0.159395 
-0.004837 -0.154859 
-0.012102 -0.137859 
-0.011030 -0.143271 
-0.012877 -0.143883 
-0.007548 -0.141950 
-0.009251 -0.142611 
-0.008346 -0.136676 
-0.010307 -0.153544 
-0.009891 -0.148238 
-0.008711 -0.152765 
-0.005778 -0.151041 
-0.007197 -0.151911 
-0.006686 -0.146738 
-0.013535 -0.169875 
-0.013794 -0.163404 
-0.013696 -0.166933 
-0.012182 -0.170499 
-0.010822 -0.170726 
-0.013390 -0.149492 
-0.010556 -0.158497 
-0.011970 -0.154189 
-0.013683 -0.154645 
-0.013802 -0.159297 
-0.006715 -0.169250 
-0.009452 -0.170578 
-0.008078 -0.170078 
-0.007890 -0.166010 
-0.009184 -0.162432 
-0.012238 -0.163390 
-0.010696 -0.163051 
-0.010775 -0.167147 
-0.032910 -0.129478 
-0.030746 -0.131185 
-0.034253 -0.119074 
-0.032586 -0.125269 
-0.036612 -0.117706 
-0.028539 -0.132349 
-0.026301 -0.133063 
-0.038162 -0.091290 
-0.037720 -0.098716 
-0.040952 -0.091194 
-0.030552 -0.113536 
-0.034212 -0.106215 
-0.031480 -0.106296 
-0.039441 -0.104962 
-0.036877 -0.105810 
-0.035701 -0.112592 
-0.019555 -0.133299 
-0.017347 -0.132965 
-0.024048 -0.133410 
-0.021793 -0.133467 
-0.024326 -0.120470 
-0.023148 -0.127167 
-0.026837 -0.120553 
-0.031824 -0.119939 
-0.029345 -0.120402 
-0.027912 -0.126907 
-0.010683 -0.012690 
-0.019673 -0.025522 
-0.015361 -0.018504 
-0.023594 -0.043552 
-0.022332 -0.034340 
-0.019076 -0.032727 
-0.030071 -0.041562 
-0.026133 -0.037159 
-0.030752 -0.047755 
-0.020054 -0.079705 
-0.021828 -0.070993 
-0.019081 -0.070495 
-0.027827 -0.072351 
-0.024747 -0.071605 
-0.025773 -0.080799 
-0.020825 -0.052049 
-0.023120 -0.062009 
-0.023773 -0.052828 
-0.040554 -0.076282 
-0.037499 -0.075325 
-0.038121 -0.083505 
-0.033998 -0.057544 
-0.036177 -0.066697 
-0.037400 -0.059961 
-0.031930 -0.082163 
-0.034286 -0.074259 
-0.031029 -0.073242 
-0.027000 -0.053944 
-0.029430 -0.063842 
-0.030455 -0.055501 
-0.003512 -0.129725 
-0.001750 -0.129540 
-0.007155 -0.130440 
-0.005308 -0.130031 
-0.005985 -0.117287 
-0.005685 -0.123897 
-0.008054 -0.117617 
-0.015185 -0.132516 
-0.013079 -0.131998 
-0.014642 -0.118938 
-0.013935 -0.125690 
-0.016979 -0.119410 
-0.011037 -0.131455 
-0.009063 -0.130924 
-0.015381 -0.087676 
-0.015571 -0.096100 
-0.017930 -0.088088 
-0.010544 -0.110884 
-0.013078 -0.103706 
-0.010750 -0.103322 
-0.017992 -0.104579 
-0.015491 -0.104130 
-0.015171 -0.111748 
-0.009681 -0.124701 
-0.012376 -0.118464 
-0.010181 -0.118016 
-0.035239 -0.091055 
-0.029237 -0.090115 
-0.032244 -0.090630 
-0.032067 -0.098667 
-0.028717 -0.106151 
-0.020598 -0.088546 
-0.020577 -0.105033 
-0.020757 -0.096994 
-0.023382 -0.089045 
-0.026270 -0.089575 
-0.018448 -0.126619 
-0.025280 -0.113369 
-0.021834 -0.120217 
-0.019379 -0.119849 
-0.020103 -0.112653 
-0.026310 -0.097927 
-0.023239 -0.105470 
-0.025960 -0.105857 
0.000000 0.000000 
-0.008281 -0.011164 
-0.005804 -0.010429 
-0.006841 -0.010643 
0.000000 0.000000 
-0.013411 -0.021649 
-0.016372 -0.031833 
-0.003143 -0.010290 
-0.003680 -0.010289 
0.000000 0.000000 
-0.010448 -0.030871 
-0.007204 -0.020590 
-0.008927 -0.030766 
0.000000 0.000000 
-0.004284 -0.010300 
-0.004978 -0.010337 
-0.017644 -0.060952 
-0.016504 -0.070088 
-0.017818 -0.041790 
-0.018150 -0.051507 
-0.013501 -0.050846 
-0.015720 -0.051124 
-0.013310 -0.041073 
-0.009762 -0.020805 
-0.012155 -0.031043 
-0.014102 -0.031332 
-0.000000 -0.010330 
-0.000340 -0.010330 
0.000000 0.000000 
-0.000969 -0.030563 
-0.000666 -0.020522 
0.000000 -0.030557 
0.000000 0.000000 
-0.000685 -0.010328 
-0.001040 -0.010325 
-0.001849 -0.068763 
-0.001687 -0.059562 
0.000000 -0.068738 
-0.003797 -0.040481 
-0.002988 -0.050141 
-0.004529 -0.050192 
0.000000 -0.050094 
-0.001485 -0.050108 
-0.001244 -0.040433 
0.000000 0.000000 
-0.002211 -0.010304 
-0.002657 -0.010296 
-0.001409 -0.010319 
-0.001797 -0.010313 
0.000000 0.000000 
-0.005111 -0.030622 
-0.003515 -0.020526 
-0.004008 -0.030600 
-0.001952 -0.030571 
-0.002960 -0.030583 
-0.002034 -0.020524 
-0.001875 -0.123456 
0.000000 -0.129486 
-0.006198 -0.110221 
-0.003963 -0.117040 
0.000000 -0.116834 
-0.001974 -0.116888 
-0.002044 -0.109861 
-0.014894 -0.078883 
-0.012947 -0.087311 
-0.008379 -0.086733 
-0.010617 -0.086996 
-0.010245 -0.078285 
-0.010781 -0.095351 
-0.008499 -0.102991 
0.000000 -0.086243 
-0.002046 -0.086278 
-0.001968 -0.077679 
-0.002081 -0.102399 
-0.002083 -0.094528 
0.000000 -0.102354 
-0.005986 -0.077885 
-0.004112 -0.086372 
-0.006216 -0.086525 
-0.006314 -0.102721 
-0.006323 -0.094813 
-0.004180 -0.102522 
-0.005196 -0.020536 
-0.006549 -0.040577 
-0.006285 -0.030654 
-0.007549 -0.030699 
-0.009653 -0.040748 
-0.003718 -0.068826 
-0.007600 -0.069068 
-0.005628 -0.068927 
-0.005142 -0.059685 
-0.006125 -0.050264 
-0.014086 -0.069753 
-0.011461 -0.050639 
-0.012942 -0.060324 
-0.011808 -0.069477 
-0.009653 -0.069250 
-0.007798 -0.050359 
-0.008836 -0.059929 
-0.009568 -0.050481 
0.000000 0.000000 
0.000340 -0.010330 
0.001040 -0.010325 
0.000685 -0.010328 
0.000000 0.000000 
0.000666 -0.020522 
0.000969 -0.030563 
0.002657 -0.010296 
0.002211 -0.010304 
0.000000 0.000000 
0.004008 -0.030600 
0.003515 -0.020526 
0.005111 -0.030622 
0.000000 0.000000 
0.001797 -0.010313 
0.001409 -0.010319 
0.001687 -0.059562 
0.001849 -0.068763 
0.001244 -0.040433 
0.001485 -0.050108 
0.004529 -0.050192 
0.002988 -0.050141 
0.003797 -0.040481 
0.002034 -0.020524 
0.002960 -0.030583 
0.001952 -0.030571 
0.010683 -0.012690 
0.008281 -0.011164 
0.000000 0.000000 
0.016372 -0.031833 
0.013411 -0.021649 
0.019076 -0.032727 
0.000000 0.000000 
0.006841 -0.010643 
0.005804 -0.010429 
0.016504 -0.070088 
0.017644 -0.060952 
0.019081 -0.070495 
0.013310 -0.041073 
0.015720 -0.051124 
0.013501 -0.050846 
0.020825 -0.052049 
0.018150 -0.051507 
0.017818 -0.041790 
0.000000 0.000000 
0.003680 -0.010289 
0.003143 -0.010290 
0.004978 -0.010337 
0.004284 -0.010300 
0.000000 0.000000 
0.008927 -0.030766 
0.007204 -0.020590 
0.010448 -0.030871 
0.014102 -0.031332 
0.012155 -0.031043 
0.009762 -0.020805 
0.001875 -0.123456 
0.001750 -0.129540 
0.002044 -0.109861 
0.001974 -0.116888 
0.005985 -0.117287 
0.003963 -0.117040 
0.006198 -0.110221 
0.001968 -0.077679 
0.002046 -0.086278 
0.006216 -0.086525 
0.004112 -0.086372 
0.005986 -0.077885 
0.002083 -0.094528 
0.002081 -0.102399 
0.015381 -0.087676 
0.012947 -0.087311 
0.014894 -0.078883 
0.008499 -0.102991 
0.010781 -0.095351 
0.010750 -0.103322 
0.010245 -0.078285 
0.010617 -0.086996 
0.008379 -0.086733 
0.004180 -0.102522 
0.006323 -0.094813 
0.006314 -0.102721 
0.005196 -0.020536 
0.009653 -0.040748 
0.007549 -0.030699 
0.006285 -0.030654 
0.006549 -0.040577 
0.014086 -0.069753 
0.009653 -0.069250 
0.011808 -0.069477 
0.012942 -0.060324 
0.011461 -0.050639 
0.003718 -0.068826 
0.006125 -0.050264 
0.005142 -0.059685 
0.005628 -0.068927 
0.007600 -0.069068 
0.009568 -0.050481 
0.008836 -0.059929 
0.007798 -0.050359 
0.015361 -0.018504 
0.019673 -0.025522 
0.030752 -0.047755 
0.026133 -0.037159 
0.030071 -0.041562 
0.022332 -0.034340 
0.023594 -0.043552 
0.038121 -0.083505 
0.037499 -0.075325 
0.040554 -0.076282 
0.031029 -0.073242 
0.034286 -0.074259 
0.031930 -0.082163 
0.037400 -0.059961 
0.036177 -0.066697 
0.033998 -0.057544 
0.021828 -0.070993 
0.020054 -0.079705 
0.023773 -0.052828 
0.023120 -0.062009 
0.025773 -0.080799 
0.024747 -0.071605 
0.027827 -0.072351 
0.030455 -0.055501 
0.029430 -0.063842 
0.027000 -0.053944 
0.028774 -0.136829 
0.030746 -0.131185 
0.032910 -0.129478 
0.026301 -0.133063 
0.028539 -0.132349 
0.024560 -0.138877 
0.036612 -0.117706 
0.032586 -0.125269 
0.034253 -0.119074 
0.017347 -0.132965 
0.019555 -0.133299 
0.016115 -0.138888 
0.026837 -0.120553 
0.023148 -0.127167 
0.024326 -0.120470 
0.020305 -0.139378 
0.021793 -0.133467 
0.024048 -0.133410 
0.040952 -0.091194 
0.037720 -0.098716 
0.038162 -0.091290 
0.035701 -0.112592 
0.036877 -0.105810 
0.039441 -0.104962 
0.031480 -0.106296 
0.034212 -0.106215 
0.030552 -0.113536 
0.027912 -0.126907 
0.029345 -0.120402 
0.031824 -0.119939 
0.003512 -0.129725 
0.001594 -0.135116 
0.008054 -0.117617 
0.005685 -0.123897 
0.004864 -0.135673 
0.005308 -0.130031 
0.007155 -0.130440 
0.017930 -0.088088 
0.015571 -0.096100 
0.015171 -0.111748 
0.015491 -0.104130 
0.017992 -0.104579 
0.013078 -0.103706 
0.010544 -0.110884 
0.012102 -0.137859 
0.013079 -0.131998 
0.015185 -0.132516 
0.009063 -0.130924 
0.011037 -0.131455 