# vtk DataFile Version 2.0
Unstructured Grid Example
ASCII
DATASET UNSTRUCTURED_GRID

POINTS 16641 float
0.006946 -0.185635 0.000000 
0.993054 -0.185635 0.000000 
1.000000 1.000000 0.000000 
0.000000 1.000000 0.000000 
0.500000 -0.100000 0.000000 
0.969012 0.364793 0.000000 
0.500000 1.000000 0.000000 
0.030988 0.364793 0.000000 
0.500000 0.364550 0.000000 
0.258197 -0.183226 0.000000 
0.500000 0.090636 0.000000 
0.254451 0.078700 0.000000 
0.741803 -0.183226 0.000000 
0.745549 0.078700 0.000000 
0.985379 0.078980 0.000000 
0.735806 0.361281 0.000000 
0.958795 0.665980 0.000000 
0.732488 0.670578 0.000000 
0.750000 1.000000 0.000000 
0.500000 0.672168 0.000000 
0.250000 1.000000 0.000000 
0.267512 0.670578 0.000000 
0.041205 0.665980 0.000000 
0.264194 0.361281 0.000000 
0.014621 0.078980 0.000000 
0.132220 -0.186940 0.000000 
0.253072 -0.054720 0.000000 
0.131871 -0.058602 0.000000 
0.500000 -0.027894 0.000000 
0.373198 -0.041981 0.000000 
0.383609 -0.169168 0.000000 
0.378747 0.220617 0.000000 
0.375437 0.085914 0.000000 
0.500000 0.222637 0.000000 
0.616391 -0.169168 0.000000 
0.626802 -0.041981 0.000000 
0.868129 -0.058602 0.000000 
0.746928 -0.054720 0.000000 
0.867780 -0.186940 0.000000 
0.624563 0.085914 0.000000 
0.621253 0.220617 0.000000 
0.990284 -0.056842 0.000000 
0.865384 0.075840 0.000000 
0.852435 0.360486 0.000000 
0.859433 0.215494 0.000000 
0.977719 0.219906 0.000000 
0.740899 0.216881 0.000000 
0.618355 0.363489 0.000000 
0.961680 0.513381 0.000000 
0.846941 0.511253 0.000000 
0.854335 0.832432 0.000000 
0.846039 0.668393 0.000000 
0.965418 0.823794 0.000000 
0.732286 0.512559 0.000000 
0.616598 0.514212 0.000000 
0.875000 1.000000 0.000000 
0.738524 0.834041 0.000000 
0.500000 0.834492 0.000000 
0.619824 0.834401 0.000000 
0.625000 1.000000 0.000000 
0.616868 0.671770 0.000000 
0.500000 0.514904 0.000000 
0.375000 1.000000 0.000000 
0.380176 0.834401 0.000000 
0.145665 0.832432 0.000000 
0.261476 0.834041 0.000000 
0.125000 1.000000 0.000000 
0.383132 0.671770 0.000000 
0.383402 0.514212 0.000000 
0.034582 0.823794 0.000000 
0.153961 0.668393 0.000000 
0.147565 0.360486 0.000000 
0.153059 0.511253 0.000000 
0.038320 0.513381 0.000000 
0.267714 0.512559 0.000000 
0.381645 0.363489 0.000000 
0.022281 0.219906 0.000000 
0.140567 0.215494 0.000000 
0.134616 0.075840 0.000000 
0.009716 -0.056842 0.000000 
0.259101 0.216881 0.000000 
0.069460 -0.186668 0.000000 
0.131854 -0.123639 0.000000 
0.070049 -0.123323 0.000000 
0.254830 -0.119818 0.000000 
0.193512 -0.122630 0.000000 
0.195178 -0.185948 0.000000 
0.193026 0.008901 0.000000 
0.192657 -0.057557 0.000000 
0.253107 0.011488 0.000000 
0.500000 -0.078041 0.000000 
0.434436 -0.090330 0.000000 
0.443965 -0.151347 0.000000 
0.436145 0.026826 0.000000 
0.434921 -0.032784 0.000000 
0.500000 0.029240 0.000000 
0.321110 -0.178110 0.000000 
0.375122 -0.105388 0.000000 
0.315504 -0.114519 0.000000 
0.440046 0.292082 0.000000 
0.439225 0.222085 0.000000 
0.500000 0.292466 0.000000 
0.314613 0.082008 0.000000 
0.377100 0.152260 0.000000 
0.316567 0.149549 0.000000 
0.500000 0.155266 0.000000 
0.438305 0.154429 0.000000 
0.437284 0.089276 0.000000 
0.313111 -0.049650 0.000000 
0.373942 0.021368 0.000000 
0.313221 0.015761 0.000000 
0.556035 -0.151347 0.000000 
0.565564 -0.090330 0.000000 
0.684496 -0.114519 0.000000 
0.624878 -0.105388 0.000000 
0.678890 -0.178110 0.000000 
0.565079 -0.032784 0.000000 
0.563855 0.026826 0.000000 
0.929951 -0.123323 0.000000 
0.868146 -0.123639 0.000000 
0.930540 -0.186668 0.000000 
0.746893 0.011488 0.000000 
0.807343 -0.057557 0.000000 
0.806974 0.008901 0.000000 
0.804822 -0.185948 0.000000 
0.806488 -0.122630 0.000000 
0.745170 -0.119818 0.000000 
0.560775 0.222085 0.000000 
0.559954 0.292082 0.000000 
0.562716 0.089276 0.000000 
0.561695 0.154429 0.000000 
0.683433 0.149549 0.000000 
0.622900 0.152260 0.000000 
0.685387 0.082008 0.000000 
0.686889 -0.049650 0.000000 
0.686779 0.015761 0.000000 
0.626058 0.021368 0.000000 
0.991768 -0.122194 0.000000 
0.929170 -0.058230 0.000000 
0.925387 0.076612 0.000000 
0.927708 0.008469 0.000000 
0.988217 0.010310 0.000000 
0.867244 0.007945 0.000000 
0.805464 0.076568 0.000000 
0.910682 0.361709 0.000000 
0.914626 0.288636 0.000000 
0.973352 0.291878 0.000000 
0.797160 0.287323 0.000000 
0.855911 0.287298 0.000000 
0.794180 0.360508 0.000000 
0.981816 0.148906 0.000000 
0.918593 0.216755 0.000000 
0.922275 0.146068 0.000000 
0.619711 0.291034 0.000000 
0.559251 0.364280 0.000000 
0.743421 0.147090 0.000000 
0.681284 0.218697 0.000000 
0.677214 0.362392 0.000000 
0.679155 0.289621 0.000000 
0.738279 0.288242 0.000000 
0.862692 0.145021 0.000000 
0.800234 0.215671 0.000000 
0.803106 0.145457 0.000000 
0.965002 0.438609 0.000000 
0.907086 0.436002 0.000000 
0.902416 0.588511 0.000000 
0.904193 0.511572 0.000000 
0.959442 0.589144 0.000000 
0.849329 0.435115 0.000000 
0.791589 0.435294 0.000000 
0.921249 0.914564 0.000000 
0.910275 0.829635 0.000000 
0.975746 0.906300 0.000000 
0.789525 0.669629 0.000000 
0.848672 0.749568 0.000000 
0.792099 0.750969 0.000000 
0.960433 0.744063 0.000000 
0.904532 0.747214 0.000000 
0.902284 0.666974 0.000000 
0.617281 0.437916 0.000000 
0.558704 0.438544 0.000000 
0.733723 0.436050 0.000000 
0.675632 0.437016 0.000000 
0.674284 0.591589 0.000000 
0.674590 0.513448 0.000000 
0.731775 0.590769 0.000000 
0.845676 0.588981 0.000000 
0.788875 0.589848 0.000000 
0.789701 0.511732 0.000000 
0.937500 1.000000 0.000000 
0.863505 0.916367 0.000000 
0.743807 0.916912 0.000000 
0.804042 0.916800 0.000000 
0.812500 1.000000 0.000000 
0.796957 0.833561 0.000000 
0.734694 0.751781 0.000000 
0.500000 0.916940 0.000000 
0.561149 0.916940 0.000000 
0.562500 1.000000 0.000000 
0.559081 0.752765 0.000000 
0.559977 0.834469 0.000000 
0.500000 0.752824 0.000000 
0.687500 1.000000 0.000000 
0.622225 0.916940 0.000000 
0.683145 0.916937 0.000000 
0.558365 0.514723 0.000000 
0.500000 0.438767 0.000000 
0.674905 0.671278 0.000000 
0.616424 0.592229 0.000000 
0.500000 0.592778 0.000000 
0.558286 0.592637 0.000000 
0.558515 0.672067 0.000000 
0.679398 0.834274 0.000000 
0.618003 0.752587 0.000000 
0.676600 0.752277 0.000000 
0.437500 1.000000 0.000000 
0.438851 0.916940 0.000000 
0.316855 0.916937 0.000000 
0.377775 0.916940 0.000000 
0.312500 1.000000 0.000000 
0.440023 0.834469 0.000000 
0.440919 0.752765 0.000000 
0.078751 0.914564 0.000000 
0.136495 0.916367 0.000000 
0.062500 1.000000 0.000000 
0.265306 0.751781 0.000000 
0.203043 0.833561 0.000000 
0.207901 0.750969 0.000000 
0.187500 1.000000 0.000000 
0.195958 0.916800 0.000000 
0.256193 0.916912 0.000000 
0.441635 0.514723 0.000000 
0.441296 0.438544 0.000000 
0.441485 0.672067 0.000000 
0.441714 0.592637 0.000000 
0.325716 0.591589 0.000000 
0.383576 0.592229 0.000000 
0.325095 0.671278 0.000000 
0.320602 0.834274 0.000000 
0.323400 0.752277 0.000000 
0.381997 0.752587 0.000000 
0.024254 0.906300 0.000000 
0.089725 0.829635 0.000000 
0.097716 0.666974 0.000000 
0.095468 0.747214 0.000000 
0.039567 0.744063 0.000000 
0.151328 0.749568 0.000000 
0.210475 0.669629 0.000000 
0.089318 0.361709 0.000000 
0.092914 0.436002 0.000000 
0.034998 0.438609 0.000000 
0.208411 0.435294 0.000000 
0.150671 0.435115 0.000000 
0.205820 0.360508 0.000000 
0.040558 0.589144 0.000000 
0.095807 0.511572 0.000000 
0.097584 0.588511 0.000000 
0.382719 0.437916 0.000000 
0.440749 0.364280 0.000000 
0.268225 0.590769 0.000000 
0.325410 0.513448 0.000000 
0.322786 0.362392 0.000000 
0.324368 0.437016 0.000000 
0.266277 0.436050 0.000000 
0.154324 0.588981 0.000000 
0.210299 0.511732 0.000000 
0.211125 0.589848 0.000000 
0.026648 0.291878 0.000000 
0.085374 0.288636 0.000000 
0.077725 0.146068 0.000000 
0.081407 0.216755 0.000000 
0.018184 0.148906 0.000000 
0.144089 0.287298 0.000000 
0.202840 0.287323 0.000000 
0.070830 -0.058230 0.000000 
0.008232 -0.122194 0.000000 
0.194536 0.076568 0.000000 
0.132756 0.007945 0.000000 
0.011783 0.010310 0.000000 
0.072292 0.008469 0.000000 
0.074613 0.076612 0.000000 
0.380289 0.291034 0.000000 
0.261721 0.288242 0.000000 
0.320845 0.289621 0.000000 
0.318716 0.218697 0.000000 
0.256579 0.147090 0.000000 
0.137308 0.145021 0.000000 
0.196894 0.145457 0.000000 
0.199766 0.215671 0.000000 
0.038178 -0.186210 0.000000 
0.069773 -0.155219 0.000000 
0.038668 -0.154743 0.000000 
0.132036 -0.155520 0.000000 
0.100898 -0.155501 0.000000 
0.100808 -0.186933 0.000000 
0.101095 -0.091299 0.000000 
0.100961 -0.123617 0.000000 
0.131775 -0.091322 0.000000 
0.256374 -0.151782 0.000000 
0.225371 -0.153413 0.000000 
0.226690 -0.184837 0.000000 
0.223389 -0.089119 0.000000 
0.224229 -0.121484 0.000000 
0.253712 -0.087433 0.000000 
0.163683 -0.186630 0.000000 
0.194295 -0.154535 0.000000 
0.163175 -0.155217 0.000000 
0.223654 0.043585 0.000000 
0.223083 0.009983 0.000000 
0.253651 0.044961 0.000000 
0.162305 -0.058279 0.000000 
0.192685 -0.024484 0.000000 
0.162474 -0.025193 0.000000 
0.252890 -0.021737 0.000000 
0.222822 -0.023344 0.000000 
0.222916 -0.056388 0.000000 
0.162712 -0.123328 0.000000 
0.192943 -0.090287 0.000000 
0.162398 -0.091002 0.000000 
0.500000 -0.097709 0.000000 
0.465756 -0.106285 0.000000 
0.468047 -0.131953 0.000000 
0.466564 -0.056341 0.000000 
0.465991 -0.081961 0.000000 
0.500000 -0.054163 0.000000 
0.414391 -0.162106 0.000000 
0.436214 -0.119759 0.000000 
0.407660 -0.130164 0.000000 
0.468270 0.059021 0.000000 
0.467930 0.028602 0.000000 
0.500000 0.059488 0.000000 
0.403699 -0.037355 0.000000 
0.435531 -0.003329 0.000000 
0.404170 -0.006718 0.000000 
0.500000 0.000036 0.000000 
0.467543 -0.000869 0.000000 
0.467093 -0.029247 0.000000 
0.289680 -0.181027 0.000000 
0.317964 -0.146577 0.000000 
0.287259 -0.149549 0.000000 
0.378369 -0.137408 0.000000 
0.348389 -0.142653 0.000000 
0.352447 -0.174273 0.000000 
0.343784 -0.078347 0.000000 
0.345465 -0.110561 0.000000 
0.373610 -0.073583 0.000000 
0.434428 -0.061657 0.000000 
0.403649 -0.067872 0.000000 
0.404586 -0.098661 0.000000 
[...]
POINT_DATA 16641

SCALARS u_h float 2
LOOKUP_TABLE default
0.006946 -0.185635 
-0.006946 -0.185635 
0.000000 0.000000 
0.000000 0.000000 
0.000000 -0.100000 
-0.030988 -0.135207 
0.000000 0.000000 
0.030988 -0.135207 
-0.000000 -0.135450 
0.008197 -0.183226 
0.000000 -0.159364 
0.004451 -0.171300 
-0.008197 -0.183226 
-0.004451 -0.171300 
-0.014621 -0.171020 
-0.014194 -0.138719 
-0.041205 -0.084020 
-0.017512 -0.079422 
0.000000 0.000000 
-0.000000 -0.077832 
0.000000 0.000000 
0.017512 -0.079422 
0.041205 -0.084020 
0.014194 -0.138719 
0.014621 -0.171020 
0.007220 -0.186940 
0.003072 -0.179720 
0.006871 -0.183602 
0.000000 -0.152894 
-0.001802 -0.166981 
0.008609 -0.169168 
0.003747 -0.154383 
0.000437 -0.164086 
0.000000 -0.152363 
-0.008609 -0.169168 
0.001802 -0.166981 
-0.006871 -0.183602 
-0.003072 -0.179720 
-0.007220 -0.186940 
-0.000437 -0.164086 
-0.003747 -0.154383 
-0.009716 -0.181842 
-0.009616 -0.174160 
-0.022565 -0.139514 
-0.015567 -0.159506 
-0.022281 -0.155094 
-0.009101 -0.158119 
-0.006645 -0.136511 
-0.038320 -0.111619 
-0.028059 -0.113747 
-0.020665 -0.042568 
-0.028961 -0.081607 
-0.034582 -0.051206 
-0.017714 -0.112441 
-0.008402 -0.110788 
0.000000 0.000000 
-0.011476 -0.040959 
-0.000000 -0.040508 
-0.005176 -0.040599 
0.000000 0.000000 
-0.008132 -0.078230 
-0.000000 -0.110096 
0.000000 0.000000 
0.005176 -0.040599 
0.020665 -0.042568 
0.011476 -0.040959 
0.000000 0.000000 
0.008132 -0.078230 
0.008402 -0.110788 
0.034582 -0.051206 
0.028961 -0.081607 
0.022565 -0.139514 
0.028059 -0.113747 
0.038320 -0.111619 
0.017714 -0.112441 
0.006645 -0.136511 
0.022281 -0.155094 
0.015567 -0.159506 
0.009616 -0.174160 
0.009716 -0.181842 
0.009101 -0.158119 
0.006960 -0.186668 
0.006854 -0.186139 
0.007549 -0.185823 
0.004830 -0.182318 
0.006012 -0.185130 
0.007678 -0.185948 
0.005526 -0.178599 
0.005157 -0.182557 
0.003107 -0.176012 
0.000000 -0.140541 
-0.003064 -0.152830 
0.006465 -0.151347 
-0.001355 -0.160674 
-0.002579 -0.157784 
0.000000 -0.158260 
0.008610 -0.178110 
0.000122 -0.167888 
0.003004 -0.177019 
0.002546 -0.145418 
0.001725 -0.152915 
0.000000 -0.145034 
0.002113 -0.167992 
0.002100 -0.160240 
0.004067 -0.162951 
0.000000 -0.157234 
0.000805 -0.158071 
-0.000216 -0.160724 
0.000611 -0.174650 
-0.001058 -0.166132 
0.000721 -0.171739 
-0.006465 -0.151347 
0.003064 -0.152830 
-0.003004 -0.177019 
-0.000122 -0.167888 
-0.008610 -0.178110 
0.002579 -0.157784 
0.001355 -0.160674 
-0.007549 -0.185823 
-0.006854 -0.186139 
-0.006960 -0.186668 
-0.003107 -0.176012 
-0.005157 -0.182557 
-0.005526 -0.178599 
-0.007678 -0.185948 
-0.006012 -0.185130 
-0.004830 -0.182318 
-0.001725 -0.152915 
-0.002546 -0.145418 
0.000216 -0.160724 
-0.000805 -0.158071 
-0.004067 -0.162951 
-0.002100 -0.160240 
-0.002113 -0.167992 
-0.000611 -0.174650 
-0.000721 -0.171739 
0.001058 -0.166132 
-0.008232 -0.184694 
-0.008330 -0.183230 
-0.012113 -0.173388 
-0.009792 -0.179031 
-0.011783 -0.177190 
-0.007756 -0.179555 
-0.007036 -0.173432 
-0.026818 -0.138291 
-0.022874 -0.148864 
-0.026648 -0.145622 
-0.015340 -0.150177 
-0.019089 -0.150202 
-0.018320 -0.139492 
-0.018184 -0.163594 
-0.018907 -0.158245 
-0.015225 -0.166432 
-0.005289 -0.146466 
-0.003249 -0.135720 
-0.006579 -0.165410 
-0.006216 -0.156303 
-0.010286 -0.137608 
-0.008345 -0.147879 
-0.011721 -0.149258 
-0.012308 -0.167479 
-0.012266 -0.159329 
-0.009394 -0.167043 
-0.034998 -0.123891 
-0.030414 -0.126498 
-0.035084 -0.098989 
-0.033307 -0.113428 
-0.040558 -0.098356 
-0.025671 -0.127385 
-0.020911 -0.127206 
-0.016251 -0.022936 
-0.027225 -0.045365 
-0.024254 -0.031200 
-0.022975 -0.080371 
-0.026328 -0.062932 
-0.020401 -0.061531 
-0.039567 -0.068437 
-0.032968 -0.065286 
-0.035216 -0.083026 
-0.007719 -0.124584 
-0.003796 -0.123956 
-0.016277 -0.126450 
-0.011868 -0.125484 
-0.013216 -0.095911 
-0.012910 -0.111552 
-0.018225 -0.096731 
-0.029324 -0.098519 
-0.023625 -0.097652 
-0.022799 -0.113268 
0.000000 0.000000 
-0.011495 -0.021133 
-0.006193 -0.020588 
-0.008458 -0.020700 
0.000000 0.000000 
-0.015543 -0.041439 
-0.015306 -0.060719 
-0.000000 -0.020560 
-0.001351 -0.020560 
0.000000 0.000000 
-0.003419 -0.059735 
-0.002523 -0.040531 
-0.000000 -0.059676 
0.000000 0.000000 
-0.002775 -0.020560 
-0.004355 -0.020563 
-0.004135 -0.110277 
-0.000000 -0.123733 
-0.012595 -0.078722 
-0.008576 -0.095271 
-0.000000 -0.094722 
-0.004214 -0.094863 
-0.003985 -0.077933 
-0.008102 -0.040726 
-0.006997 -0.059913 
-0.010900 -0.060223 
0.000000 0.000000 
0.001351 -0.020560 
0.004355 -0.020563 
0.002775 -0.020560 
0.000000 0.000000 
0.002523 -0.040531 
0.003419 -0.059735 
0.016251 -0.022936 
0.011495 -0.021133 
0.000000 0.000000 
0.015306 -0.060719 
0.015543 -0.041439 
0.020401 -0.061531 
0.000000 0.000000 
0.008458 -0.020700 
0.006193 -0.020588 
0.004135 -0.110277 
0.003796 -0.123956 
0.003985 -0.077933 
0.004214 -0.094863 
0.013216 -0.095911 
0.008576 -0.095271 
0.012595 -0.078722 
0.008102 -0.040726 
0.010900 -0.060223 
0.006997 -0.059913 
0.024254 -0.031200 
0.027225 -0.045365 
0.035216 -0.083026 
0.032968 -0.065286 
0.039567 -0.068437 
0.026328 -0.062932 
0.022975 -0.080371 
0.026818 -0.138291 
0.030414 -0.126498 
0.034998 -0.123891 
0.020911 -0.127206 
0.025671 -0.127385 
0.018320 -0.139492 
0.040558 -0.098356 
0.033307 -0.113428 
0.035084 -0.098989 
0.007719 -0.124584 
0.003249 -0.135720 
0.018225 -0.096731 
0.012910 -0.111552 
0.010286 -0.137608 
0.011868 -0.125484 
0.016277 -0.126450 
0.029324 -0.098519 
0.022799 -0.113268 
0.023625 -0.097652 
0.026648 -0.145622 
0.022874 -0.148864 
0.015225 -0.166432 
0.018907 -0.158245 
0.018184 -0.163594 
0.019089 -0.150202 
0.015340 -0.150177 
0.008330 -0.183230 
0.008232 -0.184694 
0.007036 -0.173432 
0.007756 -0.179555 
0.011783 -0.177190 
0.009792 -0.179031 
0.012113 -0.173388 
0.005289 -0.146466 
0.011721 -0.149258 
0.008345 -0.147879 
0.006216 -0.156303 
0.006579 -0.165410 
0.012308 -0.167479 
0.009394 -0.167043 
0.012266 -0.159329 
0.006928 -0.186210 
0.007273 -0.186469 
0.007418 -0.185993 
0.007036 -0.186770 
0.007148 -0.186751 
0.007058 -0.186933 
0.007345 -0.185049 
0.007211 -0.186117 
0.006775 -0.185072 
0.006374 -0.183032 
0.006621 -0.184663 
0.007940 -0.184837 
0.004639 -0.182869 
0.005479 -0.183984 
0.003712 -0.181183 
0.007433 -0.186630 
0.006795 -0.185785 
0.006925 -0.186467 
0.004904 -0.175165 
0.004333 -0.177517 
0.003651 -0.173789 
0.006055 -0.183279 
0.005185 -0.180734 
0.006224 -0.181443 
0.002890 -0.177987 
0.004072 -0.179594 
0.004166 -0.181388 
0.006462 -0.185828 
0.005443 -0.184037 
0.006148 -0.184752 
0.000000 -0.128959 
-0.002994 -0.137535 
-0.000703 -0.131953 
-0.002186 -0.150091 
-0.002759 -0.144461 
0.000000 -0.147913 
0.008141 -0.162106 
-0.001286 -0.151009 
0.001410 -0.161414 
-0.000480 -0.159729 
-0.000820 -0.158898 
0.000000 -0.159262 
-0.002551 -0.162355 
-0.001969 -0.159579 
-0.002080 -0.162968 
0.000000 -0.156214 
-0.001207 -0.157119 
-0.001657 -0.154247 
0.008430 -0.181027 
0.005464 -0.177827 
0.006009 -0.180799 
0.003369 -0.168658 
0.004639 -0.173903 
0.008697 -0.174273 
0.000034 -0.172097 
0.001715 -0.173061 
-0.001390 -0.167333 
-0.003072 -0.155407 
-0.002601 -0.161622 
-0.001664 -0.161161 
0.001445 -0.140592 
0.001259 -0.145131 
-0.000000 -0.140510 
0.002685 -0.153559 
0.002148 -0.149450 
0.003301 -0.149988 
0.000000 -0.148993 
0.001058 -0.149109 
0.000842 -0.152504 
0.003228 -0.169769 
0.003048 -0.165657 
0.004191 -0.167181 
0.001263 -0.162407 
0.002059 -0.164029 
0.001164 -0.166057 
0.003964 -0.158685 
0.003002 -0.161582 
0.002932 -0.157569 
0.000000 -0.158665 
0.000106 -0.158938 
-0.000175 -0.159717 
0.000611 -0.155293 
0.000367 -0.157449 
0.000000 -0.155121 
-0.000026 -0.162244 
0.000308 -0.159723 
0.000680 -0.160923 
0.002040 -0.156577 
0.001371 -0.159034 
0.001277 -0.155795 
0.004023 -0.180041 
-0.000664 -0.171140 
0.001409 -0.175912 
0.002640 -0.178899 
0.001879 -0.177494 
-0.000770 -0.161050 
-0.000352 -0.165310 
-0.000740 -0.163003 
-0.001440 -0.163225 
-0.001594 -0.166644 
0.002436 -0.172055 
0.001664 -0.175885 
0.001885 -0.174080 
0.001314 -0.170001 
0.000357 -0.167709 
-0.000692 -0.170157 
-0.000297 -0.169048 
0.000440 -0.173269 
0.000703 -0.131953 
0.002994 -0.137535 
-0.001410 -0.161414 
0.001286 -0.151009 
-0.008141 -0.162106 
0.002759 -0.144461 
0.002186 -0.150091 
-0.006009 -0.180799 
-0.005464 -0.177827 
-0.008430 -0.181027 
0.001390 -0.167333 
-0.001715 -0.173061 
-0.000034 -0.172097 
-0.008697 -0.174273 
-0.004639 -0.173903 
-0.003369 -0.168658 
0.000820 -0.158898 
0.000480 -0.159729 
0.001657 -0.154247 
0.001207 -0.157119 
0.002080 -0.162968 
0.001969 -0.159579 
0.002551 -0.162355 
0.001664 -0.161161 
0.002601 -0.161622 
0.003072 -0.155407 
-0.007418 -0.185993 
-0.007273 -0.186469 
-0.006928 -0.186210 
-0.006775 -0.185072 
-0.007211 -0.186117 
-0.007345 -0.185049 
-0.007058 -0.186933 
-0.007148 -0.186751 
-0.007036 -0.186770 
-0.003651 -0.173789 
-0.004333 -0.177517 
-0.004904 -0.175165 
-0.004166 -0.181388 
-0.004072 -0.179594 
-0.002890 -0.177987 
-0.006224 -0.181443 
-0.005185 -0.180734 
-0.006055 -0.183279 
-0.007940 -0.184837 
-0.006621 -0.184663 
-0.006374 -0.183032 
-0.006925 -0.186467 
-0.006795 -0.185785 
-0.007433 -0.186630 
-0.003712 -0.181183 
-0.005479 -0.183984 
-0.004639 -0.182869 
-0.006148 -0.184752 
-0.005443 -0.184037 
-0.006462 -0.185828 
-0.001259 -0.145131 
-0.001445 -0.140592 
-0.000842 -0.152504 
-0.001058 -0.149109 
-0.003301 -0.149988 
-0.002148 -0.149450 
-0.002685 -0.153559 
0.000175 -0.159717 
-0.000106 -0.158938 
-0.000680 -0.160923 
-0.000308 -0.159723 
0.000026 -0.162244 
-0.000367 -0.157449 
-0.000611 -0.155293 
-0.004191 -0.167181 
-0.003048 -0.165657 
-0.003228 -0.169769 
-0.002932 -0.157569 
-0.003002 -0.161582 
-0.003964 -0.158685 
-0.001164 -0.166057 
-0.002059 -0.164029 
-0.001263 -0.162407 
-0.001277 -0.155795 
-0.001371 -0.159034 
-0.002040 -0.156577 
-0.004023 -0.180041 
-0.001879 -0.177494 
-0.002640 -0.178899 
-0.001409 -0.175912 
0.000664 -0.171140 
-0.002436 -0.172055 
-0.000357 -0.167709 
-0.001314 -0.170001 
-0.001885 -0.174080 
-0.001664 -0.175885 
0.000770 -0.161050 
0.001594 -0.166644 
0.001440 -0.163225 
0.000740 -0.163003 
0.000352 -0.165310 
-0.000440 -0.173269 
0.000297 -0.169048 
0.000692 -0.170157 
-0.007584 -0.185394 
-0.007884 -0.185323 
-0.009017 -0.182633 
-0.008396 -0.184199 
-0.008923 -0.183508 
-0.007878 -0.184738 
-0.007623 -0.183570 
-0.013353 -0.172412 
-0.011961 -0.175511 
-0.013104 -0.174277 
-0.009721 -0.176884 
-0.010845 -0.176380 
-0.010874 -0.173966 
-0.010659 -0.179724 
-0.010777 -0.178264 
-0.009800 -0.180647 
-0.006155 -0.176164 
-0.005733 -0.172533 
-0.007191 -0.181755 
-0.006669 -0.179272 
-0.008336 -0.173979 
-0.007380 -0.176782 
-0.008569 -0.177020 
-0.008958 -0.181321 
-0.008793 -0.179468 
-0.008096 -0.181702 
-0.028918 -0.137027 
-0.026862 -0.142407 
-0.028841 -0.140533 
-0.022863 -0.144579 
-0.024868 -0.143728 
-0.024697 -0.139094 
-0.024448 -0.150476 
-0.024763 -0.147519 
-0.022658 -0.152364 
-0.014903 -0.144692 
-0.016859 -0.145031 
-0.016235 -0.139172 
-0.017314 -0.155023 
-0.017205 -0.150329 
-0.015545 -0.155129 
-0.020435 -0.139626 
-0.018847 -0.145164 
-0.020852 -0.145035 
-0.016321 -0.167450 
-0.016692 -0.165260 
-0.014937 -0.168989 
-0.020587 -0.156939 
-0.018586 -0.161240 
-0.020181 -0.159470 
-0.015447 -0.163278 
-0.017012 -0.162489 
-0.017235 -0.159082 
-0.020981 -0.149735 
-0.019092 -0.154568 
-0.020874 -0.153703 
-0.002914 -0.140836 
-0.001614 -0.135508 
-0.004536 -0.150682 
-0.003883 -0.145875 
-0.004920 -0.136062 
-0.004425 -0.141228 
-0.005996 -0.141740 
-0.005444 -0.168517 
-0.005270 -0.164253 
-0.007613 -0.157257 
-0.006422 -0.160954 
-0.007811 -0.161951 
-0.005132 -0.159841 
-0.004924 -0.155322 
-0.012208 -0.138183 
-0.011137 -0.143614 
-0.012991 -0.144203 
-0.007635 -0.142337 
-0.009349 -0.142976 
-0.008431 -0.137038 
-0.010414 -0.153893 
-0.009997 -0.148599 
-0.008814 -0.153144 
-0.005866 -0.151479 
-0.007294 -0.152319 
-0.006775 -0.147151 
-0.013582 -0.170068 
-0.013885 -0.163656 
-0.013767 -0.167158 
-0.012232 -0.170722 
-0.010873 -0.170979 
-0.013507 -0.149802 
-0.010658 -0.158828 
-0.012081 -0.154510 
-0.013796 -0.154939 
-0.013907 -0.159572 
-0.006769 -0.169603 
-0.009504 -0.170863 
-0.008131 -0.170396 
-0.007964 -0.166356 
-0.009274 -0.162771 
-0.012328 -0.163669 
-0.010786 -0.163359 
-0.010848 -0.167429 
-0.033058 -0.129669 
-0.030890 -0.131379 
-0.034405 -0.119254 
-0.032733 -0.125456 
-0.036768 -0.117876 
-0.028681 -0.132550 
-0.026441 -0.133274 
-0.038322 -0.091438 
-0.037879 -0.098872 
-0.041118 -0.091330 
-0.030699 -0.113724 
-0.034365 -0.106387 
-0.031628 -0.106476 
-0.039603 -0.105115 
-0.037034 -0.105974 
-0.035856 -0.112763 
-0.019683 -0.133553 
-0.017469 -0.133235 
-0.024185 -0.133634 
-0.021926 -0.133705 
-0.024462 -0.120687 
-0.023283 -0.127395 
-0.026978 -0.120759 
-0.031972 -0.120127 
-0.029489 -0.120599 
-0.028054 -0.127112 
-0.010918 -0.012808 
-0.019906 -0.025654 
-0.015597 -0.018933 
-0.023758 -0.043660 
-0.022521 -0.034449 
-0.019238 -0.032817 
-0.030286 -0.041688 
-0.026341 -0.037293 
-0.030940 -0.047885 
-0.020173 -0.079862 
-0.021956 -0.071133 
-0.019198 -0.070634 
-0.027974 -0.072492 
-0.024886 -0.071745 
-0.025912 -0.080953 
-0.020959 -0.052157 
-0.023258 -0.062134 
-0.023922 -0.052942 
-0.040726 -0.076402 
-0.037665 -0.075460 
-0.038283 -0.083647 
-0.034175 -0.057673 
-0.036347 -0.066828 
-0.037583 -0.060069 
-0.032082 -0.082315 
-0.034447 -0.074400 
-0.031184 -0.073384 
-0.027161 -0.054065 
-0.029588 -0.063974 
-0.030626 -0.055628 
-0.003545 -0.130088 
-0.001764 -0.129901 
-0.007224 -0.130789 
-0.005360 -0.130390 
-0.006032 -0.117588 
-0.005734 -0.124226 
-0.008117 -0.117911 
-0.015299 -0.132803 
-0.013185 -0.132303 
-0.014747 -0.119202 
-0.014040 -0.125974 
-0.017093 -0.119662 
-0.011132 -0.131776 
-0.009146 -0.131260 
-0.015479 -0.087858 
-0.015671 -0.096302 
-0.018040 -0.088267 
-0.010621 -0.111145 
-0.013168 -0.103937 
-0.010826 -0.103559 
-0.018104 -0.104794 
-0.015593 -0.104353 
-0.015274 -0.111991 
-0.009762 -0.125011 
-0.012468 -0.118739 
-0.010260 -0.118302 
-0.035395 -0.091211 
-0.029382 -0.090280 
-0.032395 -0.090791 
-0.032217 -0.098837 
-0.028861 -0.106338 
-0.020719 -0.088721 
-0.020699 -0.105241 
-0.020879 -0.097186 
-0.023512 -0.089216 
-0.026409 -0.089742 
-0.018570 -0.126875 
-0.025417 -0.113574 
-0.021964 -0.120445 
-0.019502 -0.120089 
-0.020226 -0.112877 
-0.026448 -0.098108 
-0.023369 -0.105670 
-0.026097 -0.106050 
0.000000 0.000000 
-0.008407 -0.011206 
-0.005861 -0.010449 
-0.006921 -0.010668 
0.000000 0.000000 
-0.013550 -0.021711 
-0.016506 -0.031909 
-0.003166 -0.010306 
-0.003708 -0.010305 
0.000000 0.000000 
-0.010524 -0.030928 
-0.007257 -0.020626 
-0.008990 -0.030821 
0.000000 0.000000 
-0.004319 -0.010316 
-0.005022 -0.010355 
-0.017756 -0.061072 
-0.016609 -0.070227 
-0.017944 -0.041879 
-0.018269 -0.051611 
-0.013592 -0.050944 
-0.015824 -0.051224 
-0.013403 -0.041152 
-0.009844 -0.020846 
-0.012245 -0.031103 
-0.014212 -0.031398 
-0.000000 -0.010349 
-0.000343 -0.010348 
0.000000 0.000000 
-0.000977 -0.030622 
-0.000671 -0.020560 
-0.000000 -0.030619 
0.000000 0.000000 
-0.000691 -0.010346 
-0.001048 -0.010342 
-0.001862 -0.068917 
-0.001699 -0.059691 
-0.000000 -0.068896 
-0.003824 -0.040559 
-0.003010 -0.050243 
-0.004561 -0.050292 
-0.000000 -0.050203 
-0.001496 -0.050214 
-0.001253 -0.040514 
0.000000 0.000000 
-0.002227 -0.010321 
-0.002676 -0.010312 
-0.001419 -0.010336 
-0.001810 -0.010329 
0.000000 0.000000 
-0.005147 -0.030677 
-0.003540 -0.020560 
-0.004037 -0.030655 
-0.001966 -0.030629 
-0.002982 -0.030639 
-0.002049 -0.020560 
-0.001890 -0.123789 
-0.000000 -0.129839 
-0.006244 -0.110495 
-0.003994 -0.117345 
-0.000000 -0.117144 
-0.001989 -0.117195 
-0.002059 -0.110142 
-0.014989 -0.079044 
-0.013032 -0.087497 
-0.008437 -0.086926 
-0.010689 -0.087185 
-0.010314 -0.078451 
-0.010855 -0.095564 
-0.008560 -0.103233 
-0.000000 -0.086451 
-0.002061 -0.086483 
-0.001982 -0.077858 
-0.002096 -0.102654 
-0.002098 -0.094758 
-0.000000 -0.102613 
-0.006028 -0.078057 
-0.004141 -0.086573 
-0.006260 -0.086721 
-0.006360 -0.102969 
-0.006368 -0.095035 
-0.004210 -0.102774 
-0.005233 -0.020571 
-0.006595 -0.040653 
-0.006329 -0.030708 
-0.007602 -0.030753 
-0.009720 -0.040823 
-0.003745 -0.068976 
-0.007652 -0.069214 
-0.005668 -0.069075 
-0.005178 -0.059809 
-0.006168 -0.050363 
-0.014177 -0.069893 
-0.011539 -0.050736 
-0.013028 -0.060442 
-0.011887 -0.069618 
-0.009719 -0.069394 
-0.007852 -0.050456 
-0.008897 -0.060049 
-0.009634 -0.050578 
0.000000 0.000000 
0.000343 -0.010348 
0.001048 -0.010342 
0.000691 -0.010346 
0.000000 0.000000 
0.000671 -0.020560 
0.000977 -0.030622 
0.002676 -0.010312 
0.002227 -0.010321 
0.000000 0.000000 
0.004037 -0.030655 
0.003540 -0.020560 
0.005147 -0.030677 
0.000000 0.000000 
0.001810 -0.010329 
0.001419 -0.010336 
0.001699 -0.059691 
0.001862 -0.068917 
0.001253 -0.040514 
0.001496 -0.050214 
0.004561 -0.050292 
0.003010 -0.050243 
0.003824 -0.040559 
0.002049 -0.020560 
0.002982 -0.030639 
0.001966 -0.030629 
0.010918 -0.012808 
0.008407 -0.011206 
0.000000 0.000000 
0.016506 -0.031909 
0.013550 -0.021711 
0.019238 -0.032817 
0.000000 0.000000 
0.006921 -0.010668 
0.005861 -0.010449 
0.016609 -0.070227 
0.017756 -0.061072 
0.019198 -0.070634 
0.013403 -0.041152 
0.015824 -0.051224 
0.013592 -0.050944 
0.020959 -0.052157 
0.018269 -0.051611 
0.017944 -0.041879 
0.000000 0.000000 
0.003708 -0.010305 
0.003166 -0.010306 
0.005022 -0.010355 
0.004319 -0.010316 
0.000000 0.000000 
0.008990 -0.030821 
0.007257 -0.020626 
0.010524 -0.030928 
0.014212 -0.031398 
0.012245 -0.031103 
0.009844 -0.020846 
0.001890 -0.123789 
0.001764 -0.129901 
0.002059 -0.110142 
0.001989 -0.117195 
0.006032 -0.117588 
0.003994 -0.117345 
0.006244 -0.110495 
0.001982 -0.077858 
0.002061 -0.086483 
0.006260 -0.086721 
0.004141 -0.086573 
0.006028 -0.078057 
0.002098 -0.094758 
0.002096 -0.102654 
0.015479 -0.087858 
0.013032 -0.087497 
0.014989 -0.079044 
0.008560 -0.103233 
0.010855 -0.095564 
0.010826 -0.103559 
0.010314 -0.078451 
0.010689 -0.087185 
0.008437 -0.086926 
0.004210 -0.102774 
0.006368 -0.095035 
0.006360 -0.102969 
0.005233 -0.020571 
0.009720 -0.040823 
0.007602 -0.030753 
0.006329 -0.030708 
0.006595 -0.040653 
0.014177 -0.069893 
0.009719 -0.069394 
0.011887 -0.069618 
0.013028 -0.060442 
0.011539 -0.050736 
0.003745 -0.068976 
0.006168 -0.050363 
0.005178 -0.059809 
0.005668 -0.069075 
0.007652 -0.069214 
0.009634 -0.050578 
0.008897 -0.060049 
0.007852 -0.050456 
0.015597 -0.018933 
0.019906 -0.025654 
0.030940 -0.047885 
0.026341 -0.037293 
0.030286 -0.041688 
0.022521 -0.034449 
0.023758 -0.043660 
0.038283 -0.083647 
0.037665 -0.075460 
0.040726 -0.076402 
0.031184 -0.073384 
0.034447 -0.074400 
0.032082 -0.082315 
0.037583 -0.060069 
0.036347 -0.066828 
0.034175 -0.057673 
0.021956 -0.071133 
0.020173 -0.079862 
0.023922 -0.052942 
0.023258 -0.062134 
0.025912 -0.080953 
0.024886 -0.071745 
0.027974 -0.072492 
0.030626 -0.055628 
0.029588 -0.063974 
0.027161 -0.054065 
0.028918 -0.137027 
0.030890 -0.131379 
0.033058 -0.129669 
0.026441 -0.133274 
0.028681 -0.132550 
0.024697 -0.139094 
0.036768 -0.117876 
0.032733 -0.125456 
0.034405 -0.119254 
0.017469 -0.133235 
0.019683 -0.133553 
0.016235 -0.139172 
0.026978 -0.120759 
0.023283 -0.127395 
0.024462 -0.120687 
0.020435 -0.139626 
0.021926 -0.133705 
0.024185 -0.133634 
0.041118 -0.091330 
0.037879 -0.098872 
0.038322 -0.091438 
0.035856 -0.112763 
0.037034 -0.105974 
0.039603 -0.105115 
0.031628 -0.106476 
0.034365 -0.106387 
0.030699 -0.113724 
0.028054 -0.127112 
0.029489 -0.120599 
0.031972 -0.120127 
0.003545 -0.130088 
0.001614 -0.135508 
0.008117 -0.117911 
0.005734 -0.124226 
0.004920 -0.136062 
0.005360 -0.130390 
0.007224 -0.130789 
0.018040 -0.088267 
0.015671 -0.096302 
0.015274 -0.111991 
0.015593 -0.104353 
0.018104 -0.104794 
0.013168 -0.103937 
0.010621 -0.111145 
0.012208 -0.138183 
0.013185 -0.132303 
0.015299 -0.132803 
0.009146 -0.131260 
0.011132 -0.131776 