# vtk DataFile Version 2.0
Unstructured Grid Example
ASCII
DATASET UNSTRUCTURED_GRID

POINTS 64 float
0.000000 0.000000 0.000000 
0.031250 0.000000 0.000000 
0.031250 0.000000 0.000000 
0.062500 0.000000 0.000000 
0.062500 0.000000 0.000000 
0.093750 0.000000 0.000000 
0.093750 0.000000 0.000000 
0.125000 0.000000 0.000000 
0.187500 0.000000 0.000000 
0.218750 0.000000 0.000000 
0.218750 0.000000 0.000000 
0.250000 0.000000 0.000000 
0.125000 0.000000 0.000000 
0.156250 0.000000 0.000000 
0.156250 0.000000 0.000000 
0.187500 0.000000 0.000000 
0.437500 -5.679252 0.000000 
0.468750 -6.570196 0.000000 
0.468750 -6.041885 0.000000 
0.500000 -6.735874 0.000000 
0.375000 -4.023467 0.000000 
0.406250 -6.174289 0.000000 
0.406250 -4.938464 0.000000 
0.437500 -6.495118 0.000000 
0.250000 0.721925 0.000000 
0.281250 -1.443851 0.000000 
0.281250 1.263483 0.000000 
0.312500 -4.692743 0.000000 
0.312500 -1.577403 0.000000 
0.343750 -4.967197 0.000000 
0.343750 -2.934123 0.000000 
0.375000 -5.643550 0.000000 
0.500000 -6.735874 0.000000 
0.531250 -6.041885 0.000000 
0.531250 -6.570196 0.000000 
0.562500 -5.679252 0.000000 
0.562500 -6.495118 0.000000 
0.593750 -4.938464 0.000000 
0.593750 -6.174289 0.000000 
0.625000 -4.023467 0.000000 
0.687500 -4.692743 0.000000 
0.718750 1.263483 0.000000 
0.718750 -1.443851 0.000000 
0.750000 0.721925 0.000000 
0.625000 -5.643550 0.000000 
0.656250 -2.934123 0.000000 
0.656250 -4.967197 0.000000 
0.687500 -1.577403 0.000000 
0.937500 0.000000 0.000000 
0.968750 0.000000 0.000000 
0.968750 0.000000 0.000000 
1.000000 0.000000 0.000000 
0.875000 0.000000 0.000000 
0.906250 0.000000 0.000000 
0.906250 0.000000 0.000000 
0.937500 0.000000 0.000000 
0.750000 0.000000 0.000000 
0.781250 0.000000 0.000000 
0.781250 0.000000 0.000000 
0.812500 0.000000 0.000000 
0.812500 0.000000 0.000000 
0.843750 0.000000 0.000000 
0.843750 0.000000 0.000000 
0.875000 0.000000 0.000000 

CELLS 32 96
2  0 1 
2  2 3 
2  4 5 
2  6 7 
2  8 9 
2  10 11 
2  12 13 
2  14 15 
2  16 17 
2  18 19 
2  20 21 
2  22 23 
2  24 25 
2  26 27 
2  28 29 
2  30 31 
2  32 33 
2  34 35 
2  36 37 
2  38 39 
2  40 41 
2  42 43 
2  44 45 
2  46 47 
2  48 49 
2  50 51 
2  52 53 
2  54 55 
2  56 57 
2  58 59 
2  60 61 
2  62 63 

CELL_TYPES 32
3
3
3
3
3
3
3
3
3
3
3
3
3
3
3
3
3
3
3
3
3
3
3
3
3
3
3
3
3
3
3
3

POINT_DATA 64

SCALARS lambda_h float 1
LOOKUP_TABLE default
0.000000 
0.000000 
0.000000 
0.000000 
0.000000 
0.000000 
0.000000 
0.000000 
0.000000 
0.000000 
0.000000 
0.000000 
0.000000 
0.000000 
0.000000 
0.000000 
-5.679252 
-6.570196 
-6.041885 
-6.735874 
-4.023467 
-6.174289 
-4.938464 
-6.495118 
0.721925 
-1.443851 
1.263483 
-4.692743 
-1.577403 
-4.967197 
-2.934123 
-5.643550 
-6.735874 
-6.041885 
-6.570196 
-5.679252 
-6.495118 
-4.938464 
-6.174289 
-4.023467 
-4.692743 
1.263483 
-1.443851 
0.721925 
-5.643550 
-2.934123 
-4.967197 
-1.577403 
0.000000 
0.000000 
0.000000 
0.000000 
0.000000 
0.000000 
0.000000 
0.000000 
0.000000 
0.000000 
0.000000 
0.000000 
0.000000 
0.000000 
0.000000 
0.000000 

