# vtk DataFile Version 2.0
Unstructured Grid Example
ASCII
DATASET UNSTRUCTURED_GRID

POINTS 128 float
0.000000 0.000000 0.000000 
0.015625 0.000000 0.000000 
0.015625 0.000000 0.000000 
0.031250 0.000000 0.000000 
0.031250 0.000000 0.000000 
0.046875 0.000000 0.000000 
0.046875 0.000000 0.000000 
0.062500 0.000000 0.000000 
0.093750 0.000000 0.000000 
0.109375 0.000000 0.000000 
0.109375 0.000000 0.000000 
0.125000 0.000000 0.000000 
0.062500 0.000000 0.000000 
0.078125 0.000000 0.000000 
0.078125 0.000000 0.000000 
0.093750 0.000000 0.000000 
0.218750 0.000000 0.000000 
0.234375 0.000000 0.000000 
0.234375 0.000000 0.000000 
0.250000 0.000000 0.000000 
0.187500 0.000000 0.000000 
0.203125 0.000000 0.000000 
0.203125 0.000000 0.000000 
0.218750 0.000000 0.000000 
0.125000 0.000000 0.000000 
0.140625 0.000000 0.000000 
0.140625 0.000000 0.000000 
0.156250 0.000000 0.000000 
0.156250 0.000000 0.000000 
0.171875 0.000000 0.000000 
0.171875 0.000000 0.000000 
0.187500 0.000000 0.000000 
0.468750 -6.239884 0.000000 
0.484375 -6.470847 0.000000 
0.484375 -6.295097 0.000000 
0.500000 -6.591384 0.000000 
0.437500 -5.798079 0.000000 
0.453125 -6.372668 0.000000 
0.453125 -6.045405 0.000000 
0.468750 -6.452606 0.000000 
0.375000 -4.312121 0.000000 
0.390625 -5.495837 0.000000 
0.390625 -4.754827 0.000000 
0.406250 -5.794139 0.000000 
0.406250 -5.150953 0.000000 
0.421875 -6.041198 0.000000 
0.421875 -5.499291 0.000000 
0.437500 -6.234767 0.000000 
0.250000 0.000000 0.000000 
0.265625 0.000000 0.000000 
0.265625 0.878563 0.000000 
0.281250 -1.757126 0.000000 
0.281250 0.180257 0.000000 
0.296875 -2.996202 0.000000 
0.296875 -1.240895 0.000000 
0.312500 -3.330356 0.000000 
0.343750 -3.285567 0.000000 
0.359375 -4.754460 0.000000 
0.359375 -3.822966 0.000000 
0.375000 -5.148556 0.000000 
0.312500 -2.033001 0.000000 
0.328125 -3.835606 0.000000 
0.328125 -2.694277 0.000000 
0.343750 -4.315659 0.000000 
0.500000 -6.591384 0.000000 
0.515625 -6.295097 0.000000 
0.515625 -6.470847 0.000000 
0.531250 -6.239884 0.000000 
0.531250 -6.452606 0.000000 
0.546875 -6.045405 0.000000 
0.546875 -6.372668 0.000000 
0.562500 -5.798079 0.000000 
0.593750 -5.794139 0.000000 
0.609375 -4.754827 0.000000 
0.609375 -5.495837 0.000000 
0.625000 -4.312121 0.000000 
0.562500 -6.234767 0.000000 
0.578125 -5.499291 0.000000 
0.578125 -6.041198 0.000000 
0.593750 -5.150953 0.000000 
0.718750 -1.757126 0.000000 
0.734375 0.878563 0.000000 
0.734375 0.000000 0.000000 
0.750000 0.000000 0.000000 
0.687500 -3.330356 0.000000 
0.703125 -1.240895 0.000000 
0.703125 -2.996202 0.000000 
0.718750 0.180257 0.000000 
0.625000 -5.148556 0.000000 
0.640625 -3.822966 0.000000 
0.640625 -4.754460 0.000000 
0.656250 -3.285567 0.000000 
0.656250 -4.315659 0.000000 
0.671875 -2.694277 0.000000 
0.671875 -3.835606 0.000000 
0.687500 -2.033001 0.000000 
0.968750 0.000000 0.000000 
0.984375 0.000000 0.000000 
0.984375 0.000000 0.000000 
1.000000 0.000000 0.000000 
0.937500 0.000000 0.000000 
0.953125 0.000000 0.000000 
0.953125 0.000000 0.000000 
0.968750 0.000000 0.000000 
0.875000 0.000000 0.000000 
0.890625 0.000000 0.000000 
0.890625 0.000000 0.000000 
0.906250 0.000000 0.000000 
0.906250 0.000000 0.000000 
0.921875 0.000000 0.000000 
0.921875 0.000000 0.000000 
0.937500 0.000000 0.000000 
0.750000 0.000000 0.000000 
0.765625 0.000000 0.000000 
0.765625 0.000000 0.000000 
0.781250 0.000000 0.000000 
0.781250 0.000000 0.000000 
0.796875 0.000000 0.000000 
0.796875 0.000000 0.000000 
0.812500 0.000000 0.000000 
0.843750 0.000000 0.000000 
0.859375 0.000000 0.000000 
0.859375 0.000000 0.000000 
0.875000 0.000000 0.000000 
0.812500 0.000000 0.000000 
0.828125 0.000000 0.000000 
0.828125 0.000000 0.000000 
0.843750 0.000000 0.000000 

CELLS 64 192
2  0 1 
2  2 3 
2  4 5 
2  6 7 
2  8 9 
2  10 11 
2  12 13 
2  14 15 
2  16 17 
2  18 19 
2  20 21 
2  22 23 
2  24 25 
2  26 27 
2  28 29 
2  30 31 
2  32 33 
2  34 35 
2  36 37 
2  38 39 
2  40 41 
2  42 43 
2  44 45 
2  46 47 
2  48 49 
2  50 51 
2  52 53 
2  54 55 
2  56 57 
2  58 59 
2  60 61 
2  62 63 
2  64 65 
2  66 67 
2  68 69 
2  70 71 
2  72 73 
2  74 75 
2  76 77 
2  78 79 
2  80 81 
2  82 83 
2  84 85 
2  86 87 
2  88 89 
2  90 91 
2  92 93 
2  94 95 
2  96 97 
2  98 99 
2  100 101 
2  102 103 
2  104 105 
2  106 107 
2  108 109 
2  110 111 
2  112 113 
2  114 115 
2  116 117 
2  118 119 
2  120 121 
2  122 123 
2  124 125 
2  126 127 

CELL_TYPES 64
3
3
3
3
3
3
3
3
3
3
3
3
3
3
3
3
3
3
3
3
3
3
3
3
3
3
3
3
3
3
3
3
3
3
3
3
3
3
3
3
3
3
3
3
3
3
3
3
3
3
3
3
3
3
3
3
3
3
3
3
3
3
3
3

POINT_DATA 128

SCALARS lambda_h float 1
LOOKUP_TABLE default
0.000000 
0.000000 
0.000000 
0.000000 
0.000000 
0.000000 
0.000000 
0.000000 
0.000000 
0.000000 
0.000000 
0.000000 
0.000000 
0.000000 
0.000000 
0.000000 
0.000000 
0.000000 
0.000000 
0.000000 
0.000000 
0.000000 
0.000000 
0.000000 
0.000000 
0.000000 
0.000000 
0.000000 
0.000000 
0.000000 
0.000000 
0.000000 
-6.239884 
-6.470847 
-6.295097 
-6.591384 
-5.798079 
-6.372668 
-6.045405 
-6.452606 
-4.312121 
-5.495837 
-4.754827 
-5.794139 
-5.150953 
-6.041198 
-5.499291 
-6.234767 
0.000000 
0.000000 
0.878563 
-1.757126 
0.180257 
-2.996202 
-1.240895 
-3.330356 
-3.285567 
-4.754460 
-3.822966 
-5.148556 
-2.033001 
-3.835606 
-2.694277 
-4.315659 
-6.591384 
-6.295097 
-6.470847 
-6.239884 
-6.452606 
-6.045405 
-6.372668 
-5.798079 
-5.794139 
-4.754827 
-5.495837 
-4.312121 
-6.234767 
-5.499291 
-6.041198 
-5.150953 
-1.757126 
0.878563 
0.000000 
0.000000 
-3.330356 
-1.240895 
-2.996202 
0.180257 
-5.148556 
-3.822966 
-4.754460 
-3.285567 
-4.315659 
-2.694277 
-3.835606 
-2.033001 
0.000000 
0.000000 
0.000000 
0.000000 
0.000000 
0.000000 
0.000000 
0.000000 
0.000000 
0.000000 
0.000000 
0.000000 
0.000000 
0.000000 
0.000000 
0.000000 
0.000000 
0.000000 
0.000000 
0.000000 
0.000000 
0.000000 
0.000000 
0.000000 
0.000000 
0.000000 
0.000000 
0.000000 
0.000000 
0.000000 
0.000000 
0.000000 

