# vtk DataFile Version 2.0
Unstructured Grid Example
ASCII
DATASET UNSTRUCTURED_GRID

POINTS 16 float
0.000000 0.000000 0.000000 
0.125000 0.000000 0.000000 
0.125000 0.000000 0.000000 
0.250000 0.000000 0.000000 
0.250000 5.003089 0.000000 
0.375000 -10.006178 0.000000 
0.375000 -3.403720 0.000000 
0.500000 -8.201826 0.000000 
0.500000 -8.201826 0.000000 
0.625000 -3.403720 0.000000 
0.625000 -10.006178 0.000000 
0.750000 5.003089 0.000000 
0.750000 0.000000 0.000000 
0.875000 0.000000 0.000000 
0.875000 0.000000 0.000000 
1.000000 0.000000 0.000000 

CELLS 8 24
2  0 1 
2  2 3 
2  4 5 
2  6 7 
2  8 9 
2  10 11 
2  12 13 
2  14 15 

CELL_TYPES 8
3
3
3
3
3
3
3
3

POINT_DATA 16

SCALARS lambda_h float 1
LOOKUP_TABLE default
0.000000 
0.000000 
0.000000 
0.000000 
5.003089 
-10.006178 
-3.403720 
-8.201826 
-8.201826 
-3.403720 
-10.006178 
5.003089 
0.000000 
0.000000 
0.000000 
0.000000 

