# vtk DataFile Version 2.0
Unstructured Grid Example
ASCII
DATASET UNSTRUCTURED_GRID

POINTS 8 float
0.000000 0.565103 0.000000 
0.250000 -1.130205 0.000000 
0.250000 6.079270 0.000000 
0.500000 -13.853849 0.000000 
0.500000 -13.853849 0.000000 
0.750000 6.079270 0.000000 
0.750000 -1.130205 0.000000 
1.000000 0.565103 0.000000 

CELLS 4 12
2  0 1 
2  2 3 
2  4 5 
2  6 7 

CELL_TYPES 4
3
3
3
3

POINT_DATA 8

SCALARS lambda_h float 1
LOOKUP_TABLE default
0.565103 
-1.130205 
6.079270 
-13.853849 
-13.853849 
6.079270 
-1.130205 
0.565103 

