# vtk DataFile Version 2.0
Unstructured Grid Example
ASCII
DATASET UNSTRUCTURED_GRID

POINTS 16641 float
0.011788 -0.183072 0.000000 
0.988212 -0.183072 0.000000 
1.000000 1.000000 0.000000 
0.000000 1.000000 0.000000 
0.500000 -0.099990 0.000000 
0.977881 0.369471 0.000000 
0.500000 1.000000 0.000000 
0.022119 0.369471 0.000000 
0.500000 0.371540 0.000000 
0.263540 -0.153014 0.000000 
0.500000 0.114937 0.000000 
0.246048 0.096430 0.000000 
0.736460 -0.153014 0.000000 
0.753952 0.096430 0.000000 
0.996065 0.083981 0.000000 
0.741831 0.365874 0.000000 
0.959059 0.667217 0.000000 
0.731937 0.668737 0.000000 
0.750000 1.000000 0.000000 
0.500000 0.671072 0.000000 
0.250000 1.000000 0.000000 
0.268063 0.668737 0.000000 
0.040941 0.667217 0.000000 
0.258169 0.365874 0.000000 
0.003935 0.083981 0.000000 
0.137421 -0.174066 0.000000 
0.246932 -0.029687 0.000000 
0.126319 -0.046581 0.000000 
0.500000 0.002732 0.000000 
0.371012 -0.007027 0.000000 
0.378765 -0.114675 0.000000 
0.374517 0.234621 0.000000 
0.371347 0.109252 0.000000 
0.500000 0.237774 0.000000 
0.621235 -0.114675 0.000000 
0.628988 -0.007027 0.000000 
0.873681 -0.046581 0.000000 
0.753068 -0.029687 0.000000 
0.862579 -0.174066 0.000000 
0.628653 0.109252 0.000000 
0.625483 0.234621 0.000000 
0.995281 -0.053735 0.000000 
0.875814 0.085890 0.000000 
0.860543 0.363828 0.000000 
0.870049 0.222365 0.000000 
0.989003 0.225573 0.000000 
0.749006 0.227564 0.000000 
0.621508 0.369780 0.000000 
0.966623 0.516311 0.000000 
0.851081 0.511503 0.000000 
0.850483 0.830997 0.000000 
0.845588 0.666769 0.000000 
0.961183 0.823586 0.000000 
0.735144 0.512732 0.000000 
0.618047 0.515184 0.000000 
0.875000 1.000000 0.000000 
0.736122 0.832800 0.000000 
0.500000 0.833565 0.000000 
0.618732 0.833378 0.000000 
0.625000 1.000000 0.000000 
0.616581 0.670422 0.000000 
0.500000 0.516280 0.000000 
0.375000 1.000000 0.000000 
0.381268 0.833378 0.000000 
0.149517 0.830997 0.000000 
0.263878 0.832800 0.000000 
0.125000 1.000000 0.000000 
0.383419 0.670422 0.000000 
0.381953 0.515184 0.000000 
0.038817 0.823586 0.000000 
0.154412 0.666769 0.000000 
0.139457 0.363828 0.000000 
0.148919 0.511503 0.000000 
0.033377 0.516311 0.000000 
0.264856 0.512732 0.000000 
0.378492 0.369780 0.000000 
0.010997 0.225573 0.000000 
0.129951 0.222365 0.000000 
0.124186 0.085890 0.000000 
0.004719 -0.053735 0.000000 
0.250994 0.227564 0.000000 
0.074273 -0.179147 0.000000 
0.131117 -0.111204 0.000000 
0.069600 -0.115979 0.000000 
0.251832 -0.091721 0.000000 
0.192019 -0.103651 0.000000 
0.200927 -0.166121 0.000000 
0.184540 0.024975 0.000000 
0.186668 -0.039668 0.000000 
0.245441 0.032911 0.000000 
0.500000 -0.049689 0.000000 
0.436308 -0.052806 0.000000 
0.438721 -0.103744 0.000000 
0.435004 0.055577 0.000000 
0.435173 0.000208 0.000000 
0.500000 0.057545 0.000000 
0.321040 -0.131945 0.000000 
0.373362 -0.061864 0.000000 
0.311748 -0.075903 0.000000 
0.438134 0.302672 0.000000 
0.437113 0.236945 0.000000 
0.500000 0.303290 0.000000 
0.308168 0.103171 0.000000 
0.372740 0.170758 0.000000 
0.309988 0.166235 0.000000 
0.500000 0.174999 0.000000 
0.436177 0.173884 0.000000 
0.435424 0.113445 0.000000 
0.308155 -0.017811 0.000000 
0.370616 0.050010 0.000000 
0.307356 0.041879 0.000000 
0.561279 -0.103744 0.000000 
0.563692 -0.052806 0.000000 
0.688252 -0.075903 0.000000 
0.626638 -0.061864 0.000000 
0.678960 -0.131945 0.000000 
0.564827 0.000208 0.000000 
0.564996 0.055577 0.000000 
0.930400 -0.115979 0.000000 
0.868883 -0.111204 0.000000 
0.925727 -0.179147 0.000000 
0.754559 0.032911 0.000000 
0.813332 -0.039668 0.000000 
0.815460 0.024975 0.000000 
0.799073 -0.166121 0.000000 
0.807981 -0.103651 0.000000 
0.748168 -0.091721 0.000000 
0.562887 0.236945 0.000000 
0.561866 0.302672 0.000000 
0.564576 0.113445 0.000000 
0.563823 0.173884 0.000000 
0.690012 0.166235 0.000000 
0.627260 0.170758 0.000000 
0.691832 0.103171 0.000000 
0.691845 -0.017811 0.000000 
0.692644 0.041879 0.000000 
0.629384 0.050010 0.000000 
0.992019 -0.119636 0.000000 
0.934426 -0.050913 0.000000 
0.936136 0.083645 0.000000 
0.936454 0.015737 0.000000 
0.996785 0.014380 0.000000 
0.875970 0.019185 0.000000 
0.815167 0.090339 0.000000 
0.919361 0.365259 0.000000 
0.924818 0.293352 0.000000 
0.983691 0.297211 0.000000 
0.805763 0.293457 0.000000 
0.865515 0.292398 0.000000 
0.801382 0.364292 0.000000 
0.993309 0.154477 0.000000 
0.929782 0.222492 0.000000 
0.933740 0.152593 0.000000 
0.623512 0.300936 0.000000 
0.560840 0.371095 0.000000 
0.751943 0.161215 0.000000 
0.687562 0.231264 0.000000 
0.681866 0.367893 0.000000 
0.684765 0.298436 0.000000 
0.745523 0.295719 0.000000 
0.873659 0.153577 0.000000 
0.809812 0.224324 0.000000 
0.813103 0.156697 0.000000 
0.972045 0.442445 0.000000 
0.913882 0.438338 0.000000 
0.904710 0.588659 0.000000 
0.908832 0.512744 0.000000 
0.962097 0.591190 0.000000 
0.855584 0.436808 0.000000 
0.797068 0.436999 0.000000 
0.916804 0.913829 0.000000 
0.905984 0.828346 0.000000 
0.970165 0.905266 0.000000 
0.788944 0.667709 0.000000 
0.846136 0.747725 0.000000 
0.789818 0.749019 0.000000 
0.958325 0.744568 0.000000 
0.902063 0.746037 0.000000 
0.902147 0.666313 0.000000 
0.619627 0.441198 0.000000 
0.559885 0.442217 0.000000 
0.738257 0.438176 0.000000 
0.679107 0.439734 0.000000 
0.675094 0.590699 0.000000 
0.676752 0.514010 0.000000 
0.732882 0.589597 0.000000 
0.847536 0.588092 0.000000 
0.790328 0.588601 0.000000 
0.793228 0.511726 0.000000 
0.937500 1.000000 0.000000 
0.860165 0.915877 0.000000 
0.741982 0.916463 0.000000 
0.801546 0.916347 0.000000 
0.812500 1.000000 0.000000 
0.793814 0.832204 0.000000 
0.732847 0.749958 0.000000 
0.500000 0.916531 0.000000 
0.560764 0.916524 0.000000 
0.562500 1.000000 0.000000 
0.558649 0.751465 0.000000 
0.559447 0.833515 0.000000 
0.500000 0.751574 0.000000 
0.687500 1.000000 0.000000 
0.621425 0.916513 0.000000 
0.681875 0.916496 0.000000 
0.559092 0.515992 0.000000 
0.500000 0.442579 0.000000 
0.674471 0.669675 0.000000 
0.616960 0.591655 0.000000 
0.500000 0.592523 0.000000 
0.558554 0.592296 0.000000 
0.558374 0.670903 0.000000 
0.677686 0.833151 0.000000 
0.617120 0.751155 0.000000 
0.675239 0.750654 0.000000 
0.437500 1.000000 0.000000 
0.439236 0.916524 0.000000 
0.318125 0.916496 0.000000 
0.378575 0.916513 0.000000 
0.312500 1.000000 0.000000 
0.440553 0.833515 0.000000 
0.441351 0.751465 0.000000 
0.083196 0.913829 0.000000 
0.139835 0.915877 0.000000 
0.062500 1.000000 0.000000 
0.267153 0.749958 0.000000 
0.206186 0.832204 0.000000 
0.210182 0.749019 0.000000 
0.187500 1.000000 0.000000 
0.198454 0.916347 0.000000 
0.258018 0.916463 0.000000 
0.440908 0.515992 0.000000 
0.440115 0.442217 0.000000 
0.441626 0.670903 0.000000 
0.441446 0.592296 0.000000 
0.324906 0.590699 0.000000 
0.383040 0.591655 0.000000 
0.325529 0.669675 0.000000 
0.322314 0.833151 0.000000 
0.324761 0.750654 0.000000 
0.382880 0.751155 0.000000 
0.029835 0.905266 0.000000 
0.094016 0.828346 0.000000 
0.097853 0.666313 0.000000 
0.097937 0.746037 0.000000 
0.041675 0.744568 0.000000 
0.153864 0.747725 0.000000 
0.211056 0.667709 0.000000 
0.080639 0.365259 0.000000 
0.086118 0.438338 0.000000 
0.027955 0.442445 0.000000 
0.202932 0.436999 0.000000 
0.144416 0.436808 0.000000 
0.198618 0.364292 0.000000 
0.037903 0.591190 0.000000 
0.091168 0.512744 0.000000 
0.095290 0.588659 0.000000 
0.380373 0.441198 0.000000 
0.439160 0.371095 0.000000 
0.267118 0.589597 0.000000 
0.323248 0.514010 0.000000 
0.318134 0.367893 0.000000 
0.320893 0.439734 0.000000 
0.261743 0.438176 0.000000 
0.152464 0.588092 0.000000 
0.206772 0.511726 0.000000 
0.209672 0.588601 0.000000 
0.016309 0.297211 0.000000 
0.075182 0.293352 0.000000 
0.066260 0.152593 0.000000 
0.070218 0.222492 0.000000 
0.006691 0.154477 0.000000 
0.134485 0.292398 0.000000 
0.194237 0.293457 0.000000 
0.065574 -0.050913 0.000000 
0.007981 -0.119636 0.000000 
0.184833 0.090339 0.000000 
0.124030 0.019185 0.000000 
0.003215 0.014380 0.000000 
0.063546 0.015737 0.000000 
0.063864 0.083645 0.000000 
0.376488 0.300936 0.000000 
0.254477 0.295719 0.000000 
0.315235 0.298436 0.000000 
0.312438 0.231264 0.000000 
0.248057 0.161215 0.000000 
0.126341 0.153577 0.000000 
0.186897 0.156697 0.000000 
0.190188 0.224324 0.000000 
0.042967 -0.181153 0.000000 
0.071985 -0.147810 0.000000 
0.040913 -0.149749 0.000000 
0.134215 -0.142905 0.000000 
0.103100 -0.145601 0.000000 
0.105764 -0.176855 0.000000 
0.097964 -0.081621 0.000000 
0.100399 -0.113839 0.000000 
0.128429 -0.079064 0.000000 
0.256450 -0.122576 0.000000 
0.226568 -0.129670 0.000000 
0.232497 -0.160430 0.000000 
0.218876 -0.066742 0.000000 
0.222059 -0.098322 0.000000 
0.248826 -0.060755 0.000000 
0.169177 -0.170566 0.000000 
0.196098 -0.135190 0.000000 
0.165255 -0.139510 0.000000 
0.214888 0.060860 0.000000 
0.214903 0.028720 0.000000 
0.245533 0.064533 0.000000 
0.156541 -0.043499 0.000000 
0.185254 -0.007423 0.000000 
0.155065 -0.010955 0.000000 
0.245865 0.001520 0.000000 
0.215486 -0.003234 0.000000 
0.216758 -0.035044 0.000000 
0.161683 -0.107875 0.000000 
0.188888 -0.071761 0.000000 
0.158746 -0.075829 0.000000 
0.500000 -0.075088 0.000000 
0.468613 -0.075950 0.000000 
0.469275 -0.100934 0.000000 
0.467753 -0.024472 0.000000 
0.468105 -0.050474 0.000000 
0.500000 -0.023761 0.000000 
0.408506 -0.108357 0.000000 
0.437351 -0.078512 0.000000 
0.406328 -0.082719 0.000000 
0.467544 0.085476 0.000000 
0.467463 0.057047 0.000000 
0.500000 0.085911 0.000000 
0.402968 -0.002869 0.000000 
0.434994 0.027586 0.000000 
0.402693 0.024869 0.000000 
0.500000 0.029825 0.000000 
0.467456 0.029259 0.000000 
0.467544 0.002095 0.000000 
0.292948 -0.142725 0.000000 
0.315370 -0.104216 0.000000 
0.285812 -0.113656 0.000000 
0.375630 -0.088487 0.000000 
0.345309 -0.095704 0.000000 
0.349599 -0.122578 0.000000 
0.340474 -0.040491 0.000000 
0.342356 -0.068367 0.000000 
0.371874 -0.034720 0.000000 
0.435594 -0.026580 0.000000 
0.403607 -0.030029 0.000000 
0.404701 -0.056632 0.000000 
[...]
POINT_DATA 16641

SCALARS u_h float 2
LOOKUP_TABLE default
0.011788 -0.183072 
-0.011788 -0.183072 
0.000000 0.000000 
0.000000 0.000000 
-0.000000 -0.099990 
-0.022119 -0.130529 
0.000000 0.000000 
0.022119 -0.130529 
0.000000 -0.128460 
0.013540 -0.153014 
0.000000 -0.135063 
-0.003952 -0.153570 
-0.013540 -0.153014 
0.003952 -0.153570 
-0.003935 -0.166019 
-0.008169 -0.134126 
-0.040941 -0.082783 
-0.018063 -0.081263 
0.000000 0.000000 
0.000000 -0.078928 
0.000000 0.000000 
0.018063 -0.081263 
0.040941 -0.082783 
0.008169 -0.134126 
0.003935 -0.166019 
0.012421 -0.174066 
-0.003068 -0.154687 
0.001319 -0.171581 
0.000000 -0.122268 
-0.003988 -0.132027 
0.003765 -0.114675 
-0.000483 -0.140379 
-0.003653 -0.140748 
0.000000 -0.137226 
-0.003765 -0.114675 
0.003988 -0.132027 
-0.001319 -0.171581 
0.003068 -0.154687 
-0.012421 -0.174066 
0.003653 -0.140748 
0.000483 -0.140379 
-0.004719 -0.178735 
0.000814 -0.164110 
-0.014457 -0.136172 
-0.004951 -0.152635 
-0.010997 -0.149427 
-0.000994 -0.147436 
-0.003492 -0.130220 
-0.033377 -0.108689 
-0.023919 -0.113497 
-0.024517 -0.044003 
-0.029412 -0.083231 
-0.038817 -0.051414 
-0.014856 -0.112268 
-0.006953 -0.109816 
0.000000 0.000000 
-0.013878 -0.042200 
-0.000000 -0.041435 
-0.006268 -0.041622 
0.000000 0.000000 
-0.008419 -0.079578 
0.000000 -0.108720 
0.000000 0.000000 
0.006268 -0.041622 
0.024517 -0.044003 
0.013878 -0.042200 
0.000000 0.000000 
0.008419 -0.079578 
0.006953 -0.109816 
0.038817 -0.051414 
0.029412 -0.083231 
0.014457 -0.136172 
0.023919 -0.113497 
0.033377 -0.108689 
0.014856 -0.112268 
0.003492 -0.130220 
0.010997 -0.149427 
0.004951 -0.152635 
-0.000814 -0.164110 
0.004719 -0.178735 
0.000994 -0.147436 
0.011773 -0.179147 
0.006117 -0.173704 
0.007100 -0.178479 
0.001832 -0.154221 
0.004519 -0.166151 
0.013427 -0.166121 
-0.002960 -0.162525 
-0.000832 -0.164668 
-0.004559 -0.154589 
0.000000 -0.112189 
-0.001192 -0.115306 
0.001221 -0.103744 
-0.002496 -0.131923 
-0.002327 -0.124792 
0.000000 -0.129955 
0.008540 -0.131945 
-0.001638 -0.124364 
-0.000752 -0.138403 
0.000634 -0.134828 
-0.000387 -0.138055 
0.000000 -0.134210 
-0.004332 -0.146829 
-0.002260 -0.141742 
-0.002512 -0.146265 
0.000000 -0.137501 
-0.001323 -0.138616 
-0.002076 -0.136555 
-0.004345 -0.142811 
-0.004384 -0.137490 
-0.005144 -0.145621 
-0.001221 -0.103744 
0.001192 -0.115306 
0.000752 -0.138403 
0.001638 -0.124364 
-0.008540 -0.131945 
0.002327 -0.124792 
0.002496 -0.131923 
-0.007100 -0.178479 
-0.006117 -0.173704 
-0.011773 -0.179147 
0.004559 -0.154589 
0.000832 -0.164668 
0.002960 -0.162525 
-0.013427 -0.166121 
-0.004519 -0.166151 
-0.001832 -0.154221 
0.000387 -0.138055 
-0.000634 -0.134828 
0.002076 -0.136555 
0.001323 -0.138616 
0.002512 -0.146265 
0.002260 -0.141742 
0.004332 -0.146829 
0.004345 -0.142811 
0.005144 -0.145621 
0.004384 -0.137490 
-0.007981 -0.182136 
-0.003074 -0.175913 
-0.001364 -0.166355 
-0.001046 -0.171763 
-0.003215 -0.173120 
0.000970 -0.168315 
0.002667 -0.159661 
-0.018139 -0.134741 
-0.012682 -0.144148 
-0.016309 -0.140289 
-0.006737 -0.144043 
-0.009485 -0.145102 
-0.011118 -0.135708 
-0.006691 -0.158023 
-0.007718 -0.152508 
-0.003760 -0.159907 
-0.001488 -0.136564 
-0.001660 -0.128905 
0.001943 -0.151285 
0.000062 -0.143736 
-0.005634 -0.132107 
-0.002735 -0.139064 
-0.004477 -0.141781 
-0.001341 -0.158923 
-0.002688 -0.150676 
0.000603 -0.155803 
-0.027955 -0.120055 
-0.023618 -0.124162 
-0.032790 -0.098841 
-0.028668 -0.112256 
-0.037903 -0.096310 
-0.019416 -0.125692 
-0.015432 -0.125501 
-0.020696 -0.023671 
-0.031516 -0.046654 
-0.029835 -0.032234 
-0.023556 -0.082291 
-0.028864 -0.064775 
-0.022682 -0.063481 
-0.041675 -0.067932 
-0.035437 -0.066463 
-0.035353 -0.083687 
-0.005373 -0.121302 
-0.002615 -0.120283 
-0.011743 -0.124324 
-0.008393 -0.122766 
-0.012406 -0.096801 
-0.010748 -0.110990 
-0.017118 -0.097903 
-0.027464 -0.099408 
-0.022172 -0.098899 
-0.019272 -0.113274 
0.000000 0.000000 
-0.014835 -0.021623 
-0.008018 -0.021037 
-0.010954 -0.021153 
0.000000 0.000000 
-0.018686 -0.042796 
-0.017153 -0.062542 
-0.000000 -0.020969 
-0.001736 -0.020976 
0.000000 0.000000 
-0.003851 -0.061035 
-0.003053 -0.041485 
-0.000000 -0.060926 
0.000000 0.000000 
-0.003575 -0.020987 
-0.005625 -0.021004 
-0.003408 -0.109008 
0.000000 -0.119921 
-0.013029 -0.080325 
-0.008040 -0.095845 
0.000000 -0.094977 
-0.003946 -0.095204 
-0.004126 -0.079097 
-0.009814 -0.041849 
-0.007880 -0.061345 
-0.012261 -0.061846 
0.000000 0.000000 
0.001736 -0.020976 
0.005625 -0.021004 
0.003575 -0.020987 
0.000000 0.000000 
0.003053 -0.041485 
0.003851 -0.061035 
0.020696 -0.023671 
0.014835 -0.021623 
0.000000 0.000000 
0.017153 -0.062542 
0.018686 -0.042796 
0.022682 -0.063481 
0.000000 0.000000 
0.010954 -0.021153 
0.008018 -0.021037 
0.003408 -0.109008 
0.002615 -0.120283 
0.004126 -0.079097 
0.003946 -0.095204 
0.012406 -0.096801 
0.008040 -0.095845 
0.013029 -0.080325 
0.009814 -0.041849 
0.012261 -0.061846 
0.007880 -0.061345 
0.029835 -0.032234 
0.031516 -0.046654 
0.035353 -0.083687 
0.035437 -0.066463 
0.041675 -0.067932 
0.028864 -0.064775 
0.023556 -0.082291 
0.018139 -0.134741 
0.023618 -0.124162 
0.027955 -0.120055 
0.015432 -0.125501 
0.019416 -0.125692 
0.011118 -0.135708 
0.037903 -0.096310 
0.028668 -0.112256 
0.032790 -0.098841 
0.005373 -0.121302 
0.001660 -0.128905 
0.017118 -0.097903 
0.010748 -0.110990 
0.005634 -0.132107 
0.008393 -0.122766 
0.011743 -0.124324 
0.027464 -0.099408 
0.019272 -0.113274 
0.022172 -0.098899 
0.016309 -0.140289 
0.012682 -0.144148 
0.003760 -0.159907 
0.007718 -0.152508 
0.006691 -0.158023 
0.009485 -0.145102 
0.006737 -0.144043 
0.003074 -0.175913 
0.007981 -0.182136 
-0.002667 -0.159661 
-0.000970 -0.168315 
0.003215 -0.173120 
0.001046 -0.171763 
0.001364 -0.166355 
0.001488 -0.136564 
0.004477 -0.141781 
0.002735 -0.139064 
-0.000062 -0.143736 
-0.001943 -0.151285 
0.001341 -0.158923 
-0.000603 -0.155803 
0.002688 -0.150676 
0.011717 -0.181153 
0.009485 -0.179060 
0.009663 -0.180999 
0.009215 -0.174155 
0.009350 -0.176851 
0.012014 -0.176855 
0.004214 -0.175371 
0.006649 -0.176339 
0.003429 -0.172814 
0.006450 -0.153826 
0.007818 -0.160920 
0.013747 -0.160430 
0.000126 -0.160492 
0.003309 -0.160822 
-0.001174 -0.154505 
0.012927 -0.170566 
0.008598 -0.166440 
0.009005 -0.170760 
-0.003862 -0.157890 
-0.003847 -0.158780 
-0.004467 -0.154217 
0.000291 -0.168499 
-0.002246 -0.163673 
-0.001185 -0.167205 
-0.004135 -0.154730 
-0.003264 -0.159484 
-0.001992 -0.160044 
0.005433 -0.170375 
0.001388 -0.165511 
0.002496 -0.169579 
0.000000 -0.106338 
-0.000137 -0.107200 
0.000525 -0.100934 
-0.000997 -0.118222 
-0.000645 -0.112974 
0.000000 -0.117511 
0.002256 -0.108357 
-0.000149 -0.109762 
0.000078 -0.113969 
-0.001206 -0.133274 
-0.001287 -0.130453 
0.000000 -0.132839 
-0.003282 -0.127869 
-0.002506 -0.128664 
-0.003557 -0.131381 
0.000000 -0.126425 
-0.001294 -0.126991 
-0.001206 -0.122905 
0.011698 -0.142725 
0.002870 -0.135466 
0.004562 -0.144906 
0.000630 -0.119737 
0.001559 -0.126954 
0.005849 -0.122578 
-0.003276 -0.134241 
-0.001394 -0.130867 
-0.003126 -0.128470 
-0.001906 -0.120330 
-0.002643 -0.123779 
-0.001549 -0.119132 
0.000562 -0.131805 
0.000302 -0.134366 
0.000000 -0.131673 
-0.000487 -0.139052 
0.000118 -0.136777 
0.000258 -0.137638 
0.000000 -0.136061 
0.000042 -0.136242 
-0.000212 -0.137436 
-0.004272 -0.150202 
-0.003521 -0.146781 
-0.003421 -0.149694 
-0.003019 -0.141533 
-0.003383 -0.144014 
-0.004121 -0.143622 
-0.001463 -0.143204 
-0.002485 -0.143880 
-0.001406 -0.141361 
0.000000 -0.136619 
-0.000894 -0.136947 
-0.001071 -0.135441 
-0.000457 -0.137948 
-0.000687 -0.137784 
0.000000 -0.137705 
-0.002956 -0.138353 
-0.001730 -0.137910 
-0.002455 -0.139465 
-0.001199 -0.139823 
-0.001861 -0.139957 
-0.000871 -0.138666 
0.000353 -0.146486 
-0.004365 -0.137094 
-0.003015 -0.140821 
-0.002293 -0.147774 
-0.003897 -0.148817 
-0.002341 -0.134557 
-0.004124 -0.139397 
-0.003334 -0.136630 
-0.003552 -0.134304 
-0.004368 -0.135033 
-0.004825 -0.150335 
-0.004744 -0.149609 
-0.005012 -0.150125 
-0.004894 -0.146435 
-0.004656 -0.142723 
-0.004867 -0.139453 
-0.004930 -0.141330 
-0.004999 -0.144409 
-0.000525 -0.100934 
0.000137 -0.107200 
-0.000078 -0.113969 
0.000149 -0.109762 
-0.002256 -0.108357 
0.000645 -0.112974 
0.000997 -0.118222 
-0.004562 -0.144906 
-0.002870 -0.135466 
-0.011698 -0.142725 
0.003126 -0.128470 
0.001394 -0.130867 
0.003276 -0.134241 
-0.005849 -0.122578 
-0.001559 -0.126954 
-0.000630 -0.119737 
0.001287 -0.130453 
0.001206 -0.133274 
0.001206 -0.122905 
0.001294 -0.126991 
0.003557 -0.131381 
0.002506 -0.128664 
0.003282 -0.127869 
0.001549 -0.119132 
0.002643 -0.123779 
0.001906 -0.120330 
-0.009663 -0.180999 
-0.009485 -0.179060 
-0.011717 -0.181153 
-0.003429 -0.172814 
-0.006649 -0.176339 
-0.004214 -0.175371 
-0.012014 -0.176855 
-0.009350 -0.176851 
-0.009215 -0.174155 
0.004467 -0.154217 
0.003847 -0.158780 
0.003862 -0.157890 
0.001992 -0.160044 
0.003264 -0.159484 
0.004135 -0.154730 
0.001185 -0.167205 
0.002246 -0.163673 
-0.000291 -0.168499 
-0.013747 -0.160430 
-0.007818 -0.160920 
-0.006450 -0.153826 
-0.009005 -0.170760 
-0.008598 -0.166440 
-0.012927 -0.170566 
0.001174 -0.154505 
-0.003309 -0.160822 
-0.000126 -0.160492 
-0.002496 -0.169579 
-0.001388 -0.165511 
-0.005433 -0.170375 
-0.000302 -0.134366 
-0.000562 -0.131805 
0.000212 -0.137436 
-0.000042 -0.136242 
-0.000258 -0.137638 
-0.000118 -0.136777 
0.000487 -0.139052 
0.001071 -0.135441 
0.000894 -0.136947 
0.002455 -0.139465 
0.001730 -0.137910 
0.002956 -0.138353 
0.000687 -0.137784 
0.000457 -0.137948 
0.003421 -0.149694 
0.003521 -0.146781 
0.004272 -0.150202 
0.001406 -0.141361 
0.002485 -0.143880 
0.001463 -0.143204 
0.004121 -0.143622 
0.003383 -0.144014 
0.003019 -0.141533 
0.000871 -0.138666 
0.001861 -0.139957 
0.001199 -0.139823 
-0.000353 -0.146486 
0.003897 -0.148817 
0.002293 -0.147774 
0.003015 -0.140821 
0.004365 -0.137094 
0.004825 -0.150335 
0.004656 -0.142723 
0.004894 -0.146435 
0.005012 -0.150125 
0.004744 -0.149609 
0.002341 -0.134557 
0.004368 -0.135033 
0.003552 -0.134304 
0.003334 -0.136630 
0.004124 -0.139397 
0.004999 -0.144409 
0.004930 -0.141330 
0.004867 -0.139453 
-0.009894 -0.182879 
-0.007528 -0.180333 
-0.003875 -0.177432 
-0.005532 -0.179137 
-0.006193 -0.180750 
-0.004895 -0.177417 
-0.002239 -0.174011 
-0.002581 -0.166539 
-0.002048 -0.169759 
-0.003298 -0.169711 
0.000147 -0.168055 
-0.000919 -0.169200 
-0.000239 -0.165531 
-0.003699 -0.176159 
-0.002081 -0.172684 
-0.002698 -0.175262 
0.003072 -0.161199 
0.003403 -0.156770 
0.000149 -0.170070 
0.001981 -0.165718 
0.001791 -0.162134 
0.002159 -0.164034 
0.001174 -0.166329 
-0.001769 -0.174014 
-0.000040 -0.170321 
-0.000833 -0.172314 
-0.020095 -0.133044 
-0.017235 -0.137954 
-0.019181 -0.135497 
-0.013614 -0.140500 
-0.015379 -0.139582 
-0.016258 -0.135746 
-0.013560 -0.144929 
-0.014442 -0.142642 
-0.011773 -0.147119 
-0.007557 -0.139256 
-0.008911 -0.140099 
-0.009592 -0.135012 
-0.007134 -0.149033 
-0.008052 -0.144772 
-0.005827 -0.148502 
-0.012742 -0.136126 
-0.010375 -0.140654 
-0.011945 -0.140821 
-0.005086 -0.162108 
-0.005152 -0.159376 
-0.003636 -0.163068 
-0.009290 -0.151397 
-0.007060 -0.155483 
-0.008684 -0.153792 
-0.004228 -0.156438 
-0.005579 -0.156325 
-0.006273 -0.152884 
-0.011029 -0.144930 
-0.008562 -0.149052 
-0.010108 -0.148452 
-0.001150 -0.132205 
-0.000819 -0.128557 
-0.000488 -0.138784 
-0.001021 -0.135573 
-0.002545 -0.129469 
-0.001788 -0.132852 
-0.002495 -0.133712 
0.003090 -0.152606 
0.002331 -0.148776 
-0.000384 -0.145592 
0.001048 -0.147418 
0.000565 -0.149572 
0.001347 -0.145258 
0.000348 -0.141967 
-0.006850 -0.133133 
-0.005194 -0.137061 
-0.006317 -0.138214 
-0.003290 -0.134740 
-0.004187 -0.135878 
-0.004518 -0.131116 
-0.002689 -0.144847 
-0.003541 -0.140435 
-0.001926 -0.143272 
-0.000833 -0.140154 
-0.001309 -0.141677 
-0.002054 -0.137749 
-0.002332 -0.163253 
-0.002998 -0.155926 
-0.002494 -0.159725 
-0.001141 -0.162754 
-0.000047 -0.161646 
-0.005543 -0.143014 
-0.001765 -0.149165 
-0.003597 -0.146309 
-0.004645 -0.147561 
-0.003754 -0.151866 
0.002546 -0.155375 
0.000947 -0.159994 
0.001821 -0.157874 
0.001360 -0.153667 
-0.000095 -0.151608 
-0.001892 -0.154886 
-0.000920 -0.153414 
-0.000304 -0.157587 
-0.025060 -0.125398 
-0.022959 -0.127894 
-0.028486 -0.116804 
-0.025774 -0.122487 
-0.030746 -0.114491 
-0.020904 -0.129607 
-0.018903 -0.130650 
-0.037039 -0.090886 
-0.035387 -0.097889 
-0.039652 -0.089699 
-0.026290 -0.113109 
-0.030880 -0.105750 
-0.028368 -0.106436 
-0.035786 -0.102634 
-0.033359 -0.104526 
-0.031035 -0.110823 
-0.013308 -0.130848 
-0.011604 -0.130264 
-0.016965 -0.131136 
-0.015098 -0.131169 
-0.019569 -0.119887 
-0.017392 -0.125763 
-0.021754 -0.119819 
-0.026226 -0.118385 
-0.023977 -0.119353 
-0.021495 -0.125193 
-0.014816 -0.013381 
-0.024957 -0.026651 
-0.021027 -0.020443 
-0.027883 -0.045078 
-0.027234 -0.035570 
-0.023579 -0.033883 
-0.035354 -0.042284 
-0.031299 -0.038335 
-0.035258 -0.048816 
-0.020754 -0.081774 
-0.023454 -0.073151 
-0.020596 -0.072626 
-0.029521 -0.074298 
-0.026438 -0.073714 
-0.026451 -0.082789 
-0.024087 -0.053908 
-0.025698 -0.064076 
-0.027264 -0.054664 
-0.041661 -0.075538 
-0.038809 -0.075647 
-0.038219 -0.083485 
-0.037569 -0.058412 
-0.038659 -0.067315 
-0.040807 -0.059917 
-0.032397 -0.083560 
-0.035780 -0.075360 
-0.032657 -0.074870 
-0.030630 -0.055658 
-0.032135 -0.065582 
-0.034112 -0.056923 
-0.002153 -0.124930 
-0.001067 -0.124625 
-0.004459 -0.126084 
-0.003277 -0.125425 
-0.004599 -0.115360 
-0.003967 -0.120720 
-0.006212 -0.115877 
-0.009991 -0.129502 
-0.008472 -0.128637 
-0.011468 -0.117895 
-0.010025 -0.123560 
-0.013380 -0.118583 
-0.007047 -0.127739 
-0.005711 -0.126870 
-0.015278 -0.089336 
-0.014717 -0.097347 
-0.017787 -0.089860 
-0.008814 -0.110371 
-0.011684 -0.104192 
-0.009590 -0.103631 
-0.016121 -0.105374 
-0.013861 -0.104785 
-0.012762 -0.111636 
-0.006844 -0.121997 
-0.009638 -0.117183 
-0.007888 -0.116496 
-0.034315 -0.091499 
-0.028686 -0.091594 
-0.031516 -0.091693 
-0.030138 -0.099307 
-0.025847 -0.106701 
-0.020396 -0.090384 
-0.018461 -0.105917 
-0.019606 -0.098434 
-0.023096 -0.090876 
-0.025868 -0.091297 
-0.013547 -0.124995 
-0.021573 -0.113521 
-0.017438 -0.119649 
-0.015372 -0.119189 
-0.017029 -0.112833 
-0.024799 -0.099245 
-0.020872 -0.106362 
-0.023340 -0.106647 
0.000000 0.000000 
-0.011364 -0.011388 
-0.007874 -0.010531 
-0.009320 -0.010759 
0.000000 0.000000 
-0.017407 -0.022276 
-0.020417 -0.032908 
-0.004223 -0.010451 
-0.004956 -0.010436 
0.000000 0.000000 
-0.013171 -0.031799 
-0.009400 -0.021076 
-0.011262 -0.031660 
0.000000 0.000000 
-0.005783 -0.010431 
-0.006735 -0.010451 
-0.019833 -0.062976 
-0.017875 -0.072142 
-0.021456 -0.043284 
-0.021127 -0.053333 
-0.015836 -0.052531 
-0.018382 -0.052887 
-0.016172 -0.042453 
-0.012735 -0.021308 
-0.015293 -0.032008 
-0.017684 -0.032344 
-0.000000 -0.010522 
-0.000452 -0.010523 
0.000000 0.000000 
-0.001219 -0.031300 
-0.000862 -0.020972 
-0.000000 -0.031292 
0.000000 0.000000 
-0.000910 -0.010520 
-0.001383 -0.010516 
-0.002014 -0.070181 
-0.001914 -0.060955 
-0.000000 -0.070144 
-0.004630 -0.041542 
-0.003519 -0.051413 
-0.005333 -0.051506 
-0.000000 -0.051335 
-0.001749 -0.051356 
-0.001516 -0.041449 
0.000000 0.000000 
-0.002957 -0.010484 
-0.003562 -0.010468 
-0.001877 -0.010508 
-0.002399 -0.010498 
0.000000 0.000000 
-0.006443 -0.031428 
-0.004566 -0.020995 
-0.005050 -0.031381 
-0.002456 -0.031317 
-0.003727 -0.031344 
-0.002637 -0.020981 
-0.001299 -0.120012 
0.000000 -0.124524 
-0.005155 -0.109354 
-0.003037 -0.114972 
0.000000 -0.114649 
-0.001510 -0.114731 
-0.001695 -0.108794 
-0.015488 -0.080775 
-0.012869 -0.088835 
-0.008332 -0.087982 
-0.010557 -0.088378 
-0.010676 -0.079922 
-0.010183 -0.096292 
-0.007571 -0.103132 
0.000000 -0.087221 
-0.002034 -0.087272 
-0.002053 -0.078972 
-0.001848 -0.102220 
-0.001963 -0.095035 
0.000000 -0.102154 
-0.006242 -0.079301 
-0.004087 -0.087420 
-0.006181 -0.087659 
-0.005617 -0.102720 
-0.005966 -0.095478 
-0.003715 -0.102411 
-0.006768 -0.021016 
-0.007989 -0.041723 
-0.007928 -0.031487 
-0.009525 -0.031562 
-0.011768 -0.042005 
-0.004051 -0.070284 
-0.008276 -0.070681 
-0.006131 -0.070451 
-0.005832 -0.061165 
-0.007213 -0.051635 
-0.015292 -0.071702 
-0.013470 -0.052240 
-0.014634 -0.062168 
-0.012840 -0.071310 
-0.010506 -0.070968 
-0.009181 -0.051798 
-0.010016 -0.061572 
-0.011259 -0.051999 
0.000000 0.000000 
0.000452 -0.010523 
0.001383 -0.010516 
0.000910 -0.010520 
0.000000 0.000000 
0.000862 -0.020972 
0.001219 -0.031300 
0.003562 -0.010468 
0.002957 -0.010484 
0.000000 0.000000 
0.005050 -0.031381 
0.004566 -0.020995 
0.006443 -0.031428 
0.000000 0.000000 
0.002399 -0.010498 
0.001877 -0.010508 
0.001914 -0.060955 
0.002014 -0.070181 
0.001516 -0.041449 
0.001749 -0.051356 
0.005333 -0.051506 
0.003519 -0.051413 
0.004630 -0.041542 
0.002637 -0.020981 
0.003727 -0.031344 
0.002456 -0.031317 
0.014816 -0.013381 
0.011364 -0.011388 
0.000000 0.000000 
0.020417 -0.032908 
0.017407 -0.022276 
0.023579 -0.033883 
0.000000 0.000000 
0.009320 -0.010759 
0.007874 -0.010531 
0.017875 -0.072142 
0.019833 -0.062976 
0.020596 -0.072626 
0.016172 -0.042453 
0.018382 -0.052887 
0.015836 -0.052531 
0.024087 -0.053908 
0.021127 -0.053333 
0.021456 -0.043284 
0.000000 0.000000 
0.004956 -0.010436 
0.004223 -0.010451 
0.006735 -0.010451 
0.005783 -0.010431 
0.000000 0.000000 
0.011262 -0.031660 
0.009400 -0.021076 
0.013171 -0.031799 
0.017684 -0.032344 
0.015293 -0.032008 
0.012735 -0.021308 
0.001299 -0.120012 
0.001067 -0.124625 
0.001695 -0.108794 
0.001510 -0.114731 
0.004599 -0.115360 
0.003037 -0.114972 
0.005155 -0.109354 
0.002053 -0.078972 
0.002034 -0.087272 
0.006181 -0.087659 
0.004087 -0.087420 
0.006242 -0.079301 
0.001963 -0.095035 
0.001848 -0.102220 
0.015278 -0.089336 
0.012869 -0.088835 
0.015488 -0.080775 
0.007571 -0.103132 
0.010183 -0.096292 
0.009590 -0.103631 
0.010676 -0.079922 
0.010557 -0.088378 
0.008332 -0.087982 
0.003715 -0.102411 
0.005966 -0.095478 
0.005617 -0.102720 
0.006768 -0.021016 
0.011768 -0.042005 
0.009525 -0.031562 
0.007928 -0.031487 
0.007989 -0.041723 
0.015292 -0.071702 
0.010506 -0.070968 
0.012840 -0.071310 
0.014634 -0.062168 
0.013470 -0.052240 
0.004051 -0.070284 
0.007213 -0.051635 
0.005832 -0.061165 
0.006131 -0.070451 
0.008276 -0.070681 
0.011259 -0.051999 
0.010016 -0.061572 
0.009181 -0.051798 
0.021027 -0.020443 
0.024957 -0.026651 
0.035258 -0.048816 
0.031299 -0.038335 
0.035354 -0.042284 
0.027234 -0.035570 
0.027883 -0.045078 
0.038219 -0.083485 
0.038809 -0.075647 
0.041661 -0.075538 
0.032657 -0.074870 
0.035780 -0.075360 
0.032397 -0.083560 
0.040807 -0.059917 
0.038659 -0.067315 
0.037569 -0.058412 
0.023454 -0.073151 
0.020754 -0.081774 
0.027264 -0.054664 
0.025698 -0.064076 
0.026451 -0.082789 
0.026438 -0.073714 
0.029521 -0.074298 
0.034112 -0.056923 
0.032135 -0.065582 
0.030630 -0.055658 
0.020095 -0.133044 
0.022959 -0.127894 
0.025060 -0.125398 
0.018903 -0.130650 
0.020904 -0.129607 
0.016258 -0.135746 
0.030746 -0.114491 
0.025774 -0.122487 
0.028486 -0.116804 
0.011604 -0.130264 
0.013308 -0.130848 
0.009592 -0.135012 
0.021754 -0.119819 
0.017392 -0.125763 
0.019569 -0.119887 
0.012742 -0.136126 
0.015098 -0.131169 
0.016965 -0.131136 
0.039652 -0.089699 
0.035387 -0.097889 
0.037039 -0.090886 
0.031035 -0.110823 
0.033359 -0.104526 
0.035786 -0.102634 
0.028368 -0.106436 
0.030880 -0.105750 
0.026290 -0.113109 
0.021495 -0.125193 
0.023977 -0.119353 
0.026226 -0.118385 
0.002153 -0.124930 
0.000819 -0.128557 
0.006212 -0.115877 
0.003967 -0.120720 
0.002545 -0.129469 
0.003277 -0.125425 
0.004459 -0.126084 
0.017787 -0.089860 
0.014717 -0.097347 
0.012762 -0.111636 
0.013861 -0.104785 
0.016121 -0.105374 
0.011684 -0.104192 
0.008814 -0.110371 
0.006850 -0.133133 
0.008472 -0.128637 
0.009991 -0.129502 
0.005711 -0.126870 
0.007047 -0.127739 
0.004518 -0.131116 