# vtk DataFile Version 2.0
Unstructured Grid Example
ASCII
DATASET UNSTRUCTURED_GRID

POINTS 4225 float
0.011800 -0.183003 0.000000 
0.988200 -0.183003 0.000000 
1.000000 1.000000 0.000000 
0.000000 1.000000 0.000000 
0.500000 -0.099961 0.000000 
0.977869 0.369567 0.000000 
0.500000 1.000000 0.000000 
0.022131 0.369567 0.000000 
0.500000 0.371547 0.000000 
0.263216 -0.152861 0.000000 
0.500000 0.115015 0.000000 
0.246064 0.096500 0.000000 
0.736784 -0.152861 0.000000 
0.753936 0.096500 0.000000 
0.996066 0.084118 0.000000 
0.741825 0.365960 0.000000 
0.959117 0.667244 0.000000 
0.731974 0.668807 0.000000 
0.750000 1.000000 0.000000 
0.500000 0.671145 0.000000 
0.250000 1.000000 0.000000 
0.268026 0.668807 0.000000 
0.040883 0.667244 0.000000 
0.258175 0.365960 0.000000 
0.003934 0.084118 0.000000 
0.137356 -0.173907 0.000000 
0.246944 -0.029621 0.000000 
0.126264 -0.046436 0.000000 
0.500000 0.002809 0.000000 
0.371011 -0.006979 0.000000 
0.378802 -0.114638 0.000000 
0.374517 0.234696 0.000000 
0.371350 0.109319 0.000000 
0.500000 0.237844 0.000000 
0.621198 -0.114638 0.000000 
0.628989 -0.006979 0.000000 
0.873736 -0.046436 0.000000 
0.753056 -0.029621 0.000000 
0.862644 -0.173907 0.000000 
0.628650 0.109319 0.000000 
0.625483 0.234696 0.000000 
0.995355 -0.053560 0.000000 
0.875803 0.085992 0.000000 
0.860529 0.363914 0.000000 
0.870028 0.222455 0.000000 
0.988983 0.225662 0.000000 
0.748994 0.227643 0.000000 
0.621509 0.369859 0.000000 
0.966647 0.516354 0.000000 
0.851094 0.511582 0.000000 
0.850586 0.831069 0.000000 
0.845637 0.666842 0.000000 
0.961295 0.823625 0.000000 
0.735152 0.512814 0.000000 
0.618048 0.515258 0.000000 
0.875000 1.000000 0.000000 
0.736174 0.832842 0.000000 
0.500000 0.833611 0.000000 
0.618752 0.833410 0.000000 
0.625000 1.000000 0.000000 
0.616598 0.670483 0.000000 
0.500000 0.516352 0.000000 
0.375000 1.000000 0.000000 
0.381248 0.833410 0.000000 
0.149414 0.831069 0.000000 
0.263826 0.832842 0.000000 
0.125000 1.000000 0.000000 
0.383402 0.670483 0.000000 
0.381952 0.515258 0.000000 
0.038705 0.823625 0.000000 
0.154363 0.666842 0.000000 
0.139471 0.363914 0.000000 
0.148906 0.511582 0.000000 
0.033353 0.516354 0.000000 
0.264848 0.512814 0.000000 
0.378491 0.369859 0.000000 
0.011017 0.225662 0.000000 
0.129972 0.222455 0.000000 
0.124197 0.085992 0.000000 
0.004645 -0.053560 0.000000 
0.251006 0.227643 0.000000 
0.074240 -0.179002 0.000000 
0.131022 -0.111036 0.000000 
0.069514 -0.115826 0.000000 
0.251814 -0.091639 0.000000 
0.191927 -0.103481 0.000000 
0.200802 -0.165942 0.000000 
0.184546 0.025066 0.000000 
0.186647 -0.039550 0.000000 
0.245456 0.032978 0.000000 
0.500000 -0.049622 0.000000 
0.436309 -0.052756 0.000000 
0.438759 -0.103710 0.000000 
0.435002 0.055643 0.000000 
0.435170 0.000267 0.000000 
0.500000 0.057624 0.000000 
0.321010 -0.131932 0.000000 
0.373356 -0.061829 0.000000 
0.311738 -0.075882 0.000000 
0.438128 0.302740 0.000000 
0.437110 0.237017 0.000000 
0.500000 0.303346 0.000000 
0.308178 0.103237 0.000000 
0.372742 0.170830 0.000000 
0.309996 0.166307 0.000000 
0.500000 0.175074 0.000000 
0.436176 0.173957 0.000000 
0.435423 0.113516 0.000000 
0.308161 -0.017765 0.000000 
0.370618 0.050069 0.000000 
0.307366 0.041937 0.000000 
0.561241 -0.103710 0.000000 
0.563691 -0.052756 0.000000 
0.688262 -0.075882 0.000000 
0.626644 -0.061829 0.000000 
0.678990 -0.131932 0.000000 
0.564830 0.000267 0.000000 
0.564998 0.055643 0.000000 
0.930486 -0.115826 0.000000 
0.868978 -0.111036 0.000000 
0.925760 -0.179002 0.000000 
0.754544 0.032978 0.000000 
0.813353 -0.039550 0.000000 
0.815454 0.025066 0.000000 
0.799198 -0.165942 0.000000 
0.808073 -0.103481 0.000000 
0.748186 -0.091639 0.000000 
0.562890 0.237017 0.000000 
0.561872 0.302740 0.000000 
0.564577 0.113516 0.000000 
0.563824 0.173957 0.000000 
0.690004 0.166307 0.000000 
0.627258 0.170830 0.000000 
0.691822 0.103237 0.000000 
0.691839 -0.017765 0.000000 
0.692634 0.041937 0.000000 
0.629382 0.050069 0.000000 
0.992101 -0.119496 0.000000 
0.934495 -0.050764 0.000000 
0.936132 0.083765 0.000000 
0.936482 0.015873 0.000000 
0.996820 0.014547 0.000000 
0.875983 0.019303 0.000000 
0.815150 0.090421 0.000000 
0.919346 0.365343 0.000000 
0.924800 0.293442 0.000000 
0.983674 0.297293 0.000000 
0.805749 0.293542 0.000000 
0.865498 0.292486 0.000000 
0.801371 0.364379 0.000000 
0.993294 0.154585 0.000000 
0.929760 0.222587 0.000000 
0.933721 0.152699 0.000000 
0.623514 0.301013 0.000000 
0.560842 0.371162 0.000000 
0.751927 0.161289 0.000000 
0.687557 0.231341 0.000000 
0.681864 0.367977 0.000000 
0.684761 0.298517 0.000000 
0.745514 0.295802 0.000000 
0.873639 0.153670 0.000000 
0.809793 0.224407 0.000000 
0.813084 0.156778 0.000000 
0.972053 0.442503 0.000000 
0.913881 0.438415 0.000000 
0.904743 0.588721 0.000000 
0.908849 0.512812 0.000000 
0.962137 0.591224 0.000000 
0.855581 0.436891 0.000000 
0.797066 0.437085 0.000000 
0.916986 0.913923 0.000000 
0.906100 0.828427 0.000000 
0.970349 0.905403 0.000000 
0.788988 0.667783 0.000000 
0.846210 0.747798 0.000000 
0.789882 0.749087 0.000000 
0.958404 0.744595 0.000000 
0.902140 0.746104 0.000000 
0.902199 0.666375 0.000000 
0.619624 0.441275 0.000000 
0.559880 0.442284 0.000000 
0.738256 0.438261 0.000000 
0.679106 0.439817 0.000000 
0.675110 0.590773 0.000000 
0.676757 0.514089 0.000000 
0.732903 0.589674 0.000000 
0.847565 0.588167 0.000000 
0.790354 0.588680 0.000000 
0.793239 0.511809 0.000000 
0.937500 1.000000 0.000000 
0.860264 0.915921 0.000000 
0.742014 0.916481 0.000000 
0.801601 0.916372 0.000000 
0.812500 1.000000 0.000000 
0.793890 0.832259 0.000000 
0.732896 0.750018 0.000000 
0.500000 0.916556 0.000000 
0.560770 0.916540 0.000000 
0.562500 1.000000 0.000000 
0.558660 0.751516 0.000000 
0.559457 0.833549 0.000000 
0.500000 0.751636 0.000000 
0.687500 1.000000 0.000000 
0.621437 0.916527 0.000000 
0.681895 0.916511 0.000000 
0.559091 0.516062 0.000000 
0.500000 0.442637 0.000000 
0.674498 0.669740 0.000000 
0.616969 0.591725 0.000000 
0.500000 0.592599 0.000000 
0.558558 0.592366 0.000000 
0.558381 0.670966 0.000000 
0.677719 0.833185 0.000000 
0.617142 0.751204 0.000000 
0.675274 0.750706 0.000000 
0.437500 1.000000 0.000000 
0.439230 0.916540 0.000000 
0.318105 0.916511 0.000000 
0.378563 0.916527 0.000000 
0.312500 1.000000 0.000000 
0.440543 0.833549 0.000000 
0.441340 0.751516 0.000000 
0.083014 0.913923 0.000000 
0.139736 0.915921 0.000000 
0.062500 1.000000 0.000000 
0.267104 0.750018 0.000000 
0.206110 0.832259 0.000000 
0.210118 0.749087 0.000000 
0.187500 1.000000 0.000000 
0.198399 0.916372 0.000000 
0.257986 0.916481 0.000000 
0.440909 0.516062 0.000000 
0.440120 0.442284 0.000000 
0.441619 0.670966 0.000000 
0.441442 0.592366 0.000000 
0.324890 0.590773 0.000000 
0.383031 0.591725 0.000000 
0.325502 0.669740 0.000000 
0.322281 0.833185 0.000000 
0.324726 0.750706 0.000000 
0.382858 0.751204 0.000000 
0.029651 0.905403 0.000000 
0.093900 0.828427 0.000000 
0.097801 0.666375 0.000000 
0.097860 0.746104 0.000000 
0.041596 0.744595 0.000000 
0.153790 0.747798 0.000000 
0.211012 0.667783 0.000000 
0.080654 0.365343 0.000000 
0.086119 0.438415 0.000000 
0.027947 0.442503 0.000000 
0.202934 0.437085 0.000000 
0.144419 0.436891 0.000000 
0.198629 0.364379 0.000000 
0.037863 0.591224 0.000000 
0.091151 0.512812 0.000000 
0.095257 0.588721 0.000000 
0.380376 0.441275 0.000000 
0.439158 0.371162 0.000000 
0.267097 0.589674 0.000000 
0.323243 0.514089 0.000000 
0.318136 0.367977 0.000000 
0.320894 0.439817 0.000000 
0.261744 0.438261 0.000000 
0.152435 0.588167 0.000000 
0.206761 0.511809 0.000000 
0.209646 0.588680 0.000000 
0.016326 0.297293 0.000000 
0.075200 0.293442 0.000000 
0.066279 0.152699 0.000000 
0.070240 0.222587 0.000000 
0.006706 0.154585 0.000000 
0.134502 0.292486 0.000000 
0.194251 0.293542 0.000000 
0.065505 -0.050764 0.000000 
0.007899 -0.119496 0.000000 
0.184850 0.090421 0.000000 
0.124017 0.019303 0.000000 
0.003180 0.014547 0.000000 
0.063518 0.015873 0.000000 
0.063868 0.083765 0.000000 
0.376486 0.301013 0.000000 
0.254486 0.295802 0.000000 
0.315239 0.298517 0.000000 
0.312443 0.231341 0.000000 
0.248073 0.161289 0.000000 
0.126361 0.153670 0.000000 
0.186916 0.156778 0.000000 
0.190207 0.224407 0.000000 
0.042952 -0.181023 0.000000 
0.071917 -0.147659 0.000000 
0.040850 -0.149611 0.000000 
0.134122 -0.142738 0.000000 
0.103021 -0.145442 0.000000 
0.105716 -0.176703 0.000000 
0.097882 -0.081464 0.000000 
0.100310 -0.113678 0.000000 
0.128352 -0.078905 0.000000 
0.256352 -0.122455 0.000000 
0.226423 -0.129486 0.000000 
0.232302 -0.160243 0.000000 
0.218856 -0.066631 0.000000 
0.221995 -0.098178 0.000000 
0.248830 -0.060686 0.000000 
0.169090 -0.170399 0.000000 
0.195962 -0.135004 0.000000 
0.165141 -0.139333 0.000000 
0.214904 0.060935 0.000000 
0.214916 0.028797 0.000000 
0.245549 0.064601 0.000000 
0.156501 -0.043363 0.000000 
0.185250 -0.007321 0.000000 
0.155046 -0.010836 0.000000 
0.245879 0.001585 0.000000 
0.215495 -0.003152 0.000000 
0.216757 -0.034952 0.000000 
0.161585 -0.107702 0.000000 
0.188839 -0.071619 0.000000 
0.158678 -0.075672 0.000000 
0.500000 -0.075033 0.000000 
0.468622 -0.075904 0.000000 
0.469301 -0.100903 0.000000 
0.467752 -0.024410 0.000000 
0.468106 -0.050418 0.000000 
0.500000 -0.023688 0.000000 
0.408546 -0.108321 0.000000 
0.437364 -0.078469 0.000000 
0.406338 -0.082679 0.000000 
0.467542 0.085550 0.000000 
0.467462 0.057119 0.000000 
0.500000 0.085990 0.000000 
0.402965 -0.002816 0.000000 
0.434991 0.027649 0.000000 
0.402691 0.024927 0.000000 
0.500000 0.029903 0.000000 
0.467454 0.029329 0.000000 
0.467543 0.002161 0.000000 
0.292696 -0.142810 0.000000 
0.315339 -0.104214 0.000000 
0.285780 -0.113652 0.000000 
0.375633 -0.088453 0.000000 
0.345297 -0.095681 0.000000 
0.349620 -0.122545 0.000000 
0.340470 -0.040454 0.000000 
0.342346 -0.068340 0.000000 
0.371869 -0.034679 0.000000 
0.435591 -0.026525 0.000000 
0.403603 -0.029981 0.000000 
0.404700 -0.056589 0.000000 
0.469305 0.337000 0.000000 
[...]
POINT_DATA 4225

SCALARS u_h float 2
LOOKUP_TABLE default
0.011800 -0.183003 
-0.011800 -0.183003 
0.000000 0.000000 
0.000000 0.000000 
-0.000000 -0.099961 
-0.022131 -0.130433 
0.000000 0.000000 
0.022131 -0.130433 
-0.000000 -0.128453 
0.013216 -0.152861 
-0.000000 -0.134985 
-0.003936 -0.153500 
-0.013216 -0.152861 
0.003936 -0.153500 
-0.003934 -0.165882 
-0.008175 -0.134040 
-0.040883 -0.082756 
-0.018026 -0.081193 
0.000000 0.000000 
-0.000000 -0.078855 
0.000000 0.000000 
0.018026 -0.081193 
0.040883 -0.082756 
0.008175 -0.134040 
0.003934 -0.165882 
0.012356 -0.173907 
-0.003056 -0.154621 
0.001264 -0.171436 
-0.000000 -0.122191 
-0.003989 -0.131979 
0.003802 -0.114638 
-0.000483 -0.140304 
-0.003650 -0.140681 
-0.000000 -0.137156 
-0.003802 -0.114638 
0.003989 -0.131979 
-0.001264 -0.171436 
0.003056 -0.154621 
-0.012356 -0.173907 
0.003650 -0.140681 
0.000483 -0.140304 
-0.004645 -0.178560 
0.000803 -0.164008 
-0.014471 -0.136086 
-0.004972 -0.152545 
-0.011017 -0.149338 
-0.001006 -0.147357 
-0.003491 -0.130141 
-0.033353 -0.108646 
-0.023906 -0.113418 
-0.024414 -0.043931 
-0.029363 -0.083158 
-0.038705 -0.051375 
-0.014848 -0.112186 
-0.006952 -0.109742 
0.000000 0.000000 
-0.013826 -0.042158 
-0.000000 -0.041389 
-0.006248 -0.041590 
0.000000 0.000000 
-0.008402 -0.079517 
-0.000000 -0.108648 
0.000000 0.000000 
0.006248 -0.041590 
0.024414 -0.043931 
0.013826 -0.042158 
0.000000 0.000000 
0.008402 -0.079517 
0.006952 -0.109742 
0.038705 -0.051375 
0.029363 -0.083158 
0.014471 -0.136086 
0.023906 -0.113418 
0.033353 -0.108646 
0.014848 -0.112186 
0.003491 -0.130141 
0.011017 -0.149338 
0.004972 -0.152545 
-0.000803 -0.164008 
0.004645 -0.178560 
0.001006 -0.147357 
0.011740 -0.179002 
0.006022 -0.173536 
0.007014 -0.178326 
0.001814 -0.154139 
0.004427 -0.165981 
0.013302 -0.165942 
-0.002954 -0.162434 
-0.000853 -0.164550 
-0.004544 -0.154522 
-0.000000 -0.112122 
-0.001191 -0.115256 
0.001259 -0.103710 
-0.002498 -0.131857 
-0.002330 -0.124733 
-0.000000 -0.129876 
0.008510 -0.131932 
-0.001644 -0.124329 
-0.000762 -0.138382 
0.000628 -0.134760 
-0.000390 -0.137983 
-0.000000 -0.134154 
-0.004322 -0.146763 
-0.002258 -0.141670 
-0.002504 -0.146193 
-0.000000 -0.137426 
-0.001324 -0.138543 
-0.002077 -0.136484 
-0.004339 -0.142765 
-0.004382 -0.137431 
-0.005134 -0.145563 
-0.001259 -0.103710 
0.001191 -0.115256 
0.000762 -0.138382 
0.001644 -0.124329 
-0.008510 -0.131932 
0.002330 -0.124733 
0.002498 -0.131857 
-0.007014 -0.178326 
-0.006022 -0.173536 
-0.011740 -0.179002 
0.004544 -0.154522 
0.000853 -0.164550 
0.002954 -0.162434 
-0.013302 -0.165942 
-0.004427 -0.165981 
-0.001814 -0.154139 
0.000390 -0.137983 
-0.000628 -0.134760 
0.002077 -0.136484 
0.001324 -0.138543 
0.002504 -0.146193 
0.002258 -0.141670 
0.004322 -0.146763 
0.004339 -0.142765 
0.005134 -0.145563 
0.004382 -0.137431 
-0.007899 -0.181996 
-0.003005 -0.175764 
-0.001368 -0.166235 
-0.001018 -0.171627 
-0.003180 -0.172953 
0.000983 -0.168197 
0.002650 -0.159579 
-0.018154 -0.134657 
-0.012700 -0.144058 
-0.016326 -0.140207 
-0.006751 -0.143958 
-0.009502 -0.145014 
-0.011129 -0.135621 
-0.006706 -0.157915 
-0.007740 -0.152413 
-0.003779 -0.159801 
-0.001486 -0.136487 
-0.001658 -0.128838 
0.001927 -0.151211 
0.000057 -0.143659 
-0.005636 -0.132023 
-0.002739 -0.138983 
-0.004486 -0.141698 
-0.001361 -0.158830 
-0.002707 -0.150593 
0.000584 -0.155722 
-0.027947 -0.119997 
-0.023619 -0.124085 
-0.032757 -0.098779 
-0.028651 -0.112188 
-0.037863 -0.096276 
-0.019419 -0.125609 
-0.015434 -0.125415 
-0.020514 -0.023577 
-0.031400 -0.046573 
-0.029651 -0.032097 
-0.023512 -0.082217 
-0.028790 -0.064702 
-0.022618 -0.063413 
-0.041596 -0.067905 
-0.035360 -0.066396 
-0.035301 -0.083625 
-0.005376 -0.121225 
-0.002620 -0.120216 
-0.011744 -0.124239 
-0.008394 -0.122683 
-0.012390 -0.096727 
-0.010743 -0.110911 
-0.017097 -0.097826 
-0.027435 -0.099333 
-0.022146 -0.098820 
-0.019261 -0.113191 
0.000000 0.000000 
-0.014736 -0.021579 
-0.007986 -0.021019 
-0.010899 -0.021128 
0.000000 0.000000 
-0.018610 -0.042741 
-0.017104 -0.062482 
-0.000000 -0.020944 
-0.001730 -0.020960 
0.000000 0.000000 
-0.003840 -0.060984 
-0.003043 -0.041451 
-0.000000 -0.060864 
0.000000 0.000000 
-0.003563 -0.020973 
-0.005605 -0.020989 
-0.003409 -0.108938 
-0.000000 -0.119863 
-0.013002 -0.080260 
-0.008031 -0.095775 
-0.000000 -0.094901 
-0.003942 -0.095134 
-0.004119 -0.079034 
-0.009781 -0.041815 
-0.007858 -0.061296 
-0.012226 -0.061794 
0.000000 0.000000 
0.001730 -0.020960 
0.005605 -0.020989 
0.003563 -0.020973 
0.000000 0.000000 
0.003043 -0.041451 
0.003840 -0.060984 
0.020514 -0.023577 
0.014736 -0.021579 
0.000000 0.000000 
0.017104 -0.062482 
0.018610 -0.042741 
0.022618 -0.063413 
0.000000 0.000000 
0.010899 -0.021128 
0.007986 -0.021019 
0.003409 -0.108938 
0.002620 -0.120216 
0.004119 -0.079034 
0.003942 -0.095134 
0.012390 -0.096727 
0.008031 -0.095775 
0.013002 -0.080260 
0.009781 -0.041815 
0.012226 -0.061794 
0.007858 -0.061296 
0.029651 -0.032097 
0.031400 -0.046573 
0.035301 -0.083625 
0.035360 -0.066396 
0.041596 -0.067905 
0.028790 -0.064702 
0.023512 -0.082217 
0.018154 -0.134657 
0.023619 -0.124085 
0.027947 -0.119997 
0.015434 -0.125415 
0.019419 -0.125609 
0.011129 -0.135621 
0.037863 -0.096276 
0.028651 -0.112188 
0.032757 -0.098779 
0.005376 -0.121225 
0.001658 -0.128838 
0.017097 -0.097826 
0.010743 -0.110911 
0.005636 -0.132023 
0.008394 -0.122683 
0.011744 -0.124239 
0.027435 -0.099333 
0.019261 -0.113191 
0.022146 -0.098820 
0.016326 -0.140207 
0.012700 -0.144058 
0.003779 -0.159801 
0.007740 -0.152413 
0.006706 -0.157915 
0.009502 -0.145014 
0.006751 -0.143958 
0.003005 -0.175764 
0.007899 -0.181996 
-0.002650 -0.159579 
-0.000983 -0.168197 
0.003180 -0.172953 
0.001018 -0.171627 
0.001368 -0.166235 
0.001486 -0.136487 
0.004486 -0.141698 
0.002739 -0.138983 
-0.000057 -0.143659 
-0.001927 -0.151211 
0.001361 -0.158830 
-0.000584 -0.155722 
0.002707 -0.150593 
0.011702 -0.181023 
0.009417 -0.178909 
0.009600 -0.180861 
0.009122 -0.173988 
0.009271 -0.176692 
0.011966 -0.176703 
0.004132 -0.175214 
0.006560 -0.176178 
0.003352 -0.172655 
0.006352 -0.153705 
0.007673 -0.160736 
0.013552 -0.160243 
0.000106 -0.160381 
0.003245 -0.160678 
-0.001170 -0.154436 
0.012840 -0.170399 
0.008462 -0.166254 
0.008891 -0.170583 
-0.003846 -0.157815 
-0.003834 -0.158703 
-0.004451 -0.154149 
0.000251 -0.168363 
-0.002250 -0.163571 
-0.001204 -0.167086 
-0.004121 -0.154665 
-0.003255 -0.159402 
-0.001993 -0.159952 
0.005335 -0.170202 
0.001339 -0.165369 
0.002428 -0.169422 
-0.000000 -0.106283 
-0.000128 -0.107154 
0.000551 -0.100903 
-0.000998 -0.118160 
-0.000644 -0.112918 
-0.000000 -0.117438 
0.002296 -0.108321 
-0.000136 -0.109719 
0.000088 -0.113929 
-0.001208 -0.133200 
-0.001288 -0.130381 
-0.000000 -0.132760 
-0.003285 -0.127816 
-0.002509 -0.128601 
-0.003559 -0.131323 
-0.000000 -0.126347 
-0.001296 -0.126921 
-0.001207 -0.122839 
0.011446 -0.142810 
0.002839 -0.135464 
0.004530 -0.144902 
0.000633 -0.119703 
0.001547 -0.126931 
0.005870 -0.122545 
-0.003280 -0.134204 
-0.001404 -0.130840 
-0.003131 -0.128429 
-0.001909 -0.120275 
-0.002647 -0.123731 
-0.001550 -0.119089 
0.000555 -0.131750 
0.000297 -0.134305 
-0.000000 -0.131632 
-0.000489 -0.138979 
0.000114 -0.136707 
0.000255 -0.137565 
-0.000000 -0.135997 
0.000039 -0.136176 
-0.000215 -0.137366 
-0.004258 -0.150135 
-0.003512 -0.146712 
-0.003409 -0.149624 
-0.003016 -0.141463 
-0.003377 -0.143945 
-0.004115 -0.143556 
-0.001459 -0.143130 
-0.002480 -0.143808 
-0.001406 -0.141287 
-0.000000 -0.136542 
-0.000895 -0.136872 
-0.001072 -0.135367 
-0.000459 -0.137876 
-0.000688 -0.137710 
-0.000000 -0.137631 
-0.002955 -0.138284 
-0.001731 -0.137838 
-0.002454 -0.139394 
-0.001200 -0.139750 
-0.001862 -0.139885 
-0.000873 -0.138593 
0.000351 -0.146456 
-0.004364 -0.137049 
-0.003014 -0.140785 
-0.002285 -0.147730 
-0.003885 -0.148766 
-0.002342 -0.134488 
-0.004121 -0.139334 
-0.003334 -0.136564 
-0.003553 -0.134242 
-0.004368 -0.134979 
-0.004811 -0.150271 
-0.004731 -0.149552 
-0.004999 -0.150065 
-0.004884 -0.146372 
-0.004650 -0.142660 
-0.004863 -0.139401 
-0.004924 -0.141272 
-0.004991 -0.144356 
-0.000551 -0.100903 
0.000128 -0.107154 
-0.000088 -0.113929 
0.000136 -0.109719 
-0.002296 -0.108321 
0.000644 -0.112918 
0.000998 -0.118160 
-0.004530 -0.144902 
-0.002839 -0.135464 
-0.011446 -0.142810 
0.003131 -0.128429 
0.001404 -0.130840 
0.003280 -0.134204 
-0.005870 -0.122545 
-0.001547 -0.126931 
-0.000633 -0.119703 
0.001288 -0.130381 
0.001208 -0.133200 
0.001207 -0.122839 
0.001296 -0.126921 
0.003559 -0.131323 
0.002509 -0.128601 
0.003285 -0.127816 
0.001550 -0.119089 
0.002647 -0.123731 
0.001909 -0.120275 
-0.009600 -0.180861 
-0.009417 -0.178909 
-0.011702 -0.181023 
-0.003352 -0.172655 
-0.006560 -0.176178 
-0.004132 -0.175214 
-0.011966 -0.176703 
-0.009271 -0.176692 
-0.009122 -0.173988 
0.004451 -0.154149 
0.003834 -0.158703 
0.003846 -0.157815 
0.001993 -0.159952 
0.003255 -0.159402 
0.004121 -0.154665 
0.001204 -0.167086 
0.002250 -0.163571 
-0.000251 -0.168363 
-0.013552 -0.160243 
-0.007673 -0.160736 
-0.006352 -0.153705 
-0.008891 -0.170583 
-0.008462 -0.166254 
-0.012840 -0.170399 
0.001170 -0.154436 
-0.003245 -0.160678 
-0.000106 -0.160381 
-0.002428 -0.169422 
-0.001339 -0.165369 
-0.005335 -0.170202 
-0.000297 -0.134305 
-0.000555 -0.131750 
0.000215 -0.137366 
-0.000039 -0.136176 
-0.000255 -0.137565 
-0.000114 -0.136707 
0.000489 -0.138979 
0.001072 -0.135367 
0.000895 -0.136872 
0.002454 -0.139394 
0.001731 -0.137838 
0.002955 -0.138284 
0.000688 -0.137710 
0.000459 -0.137876 
0.003409 -0.149624 
0.003512 -0.146712 
0.004258 -0.150135 
0.001406 -0.141287 
0.002480 -0.143808 
0.001459 -0.143130 
0.004115 -0.143556 
0.003377 -0.143945 
0.003016 -0.141463 
0.000873 -0.138593 
0.001862 -0.139885 
0.001200 -0.139750 
-0.000351 -0.146456 
0.003885 -0.148766 
0.002285 -0.147730 
0.003014 -0.140785 
0.004364 -0.137049 
0.004811 -0.150271 
0.004650 -0.142660 
0.004884 -0.146372 
0.004999 -0.150065 
0.004731 -0.149552 
0.002342 -0.134488 
0.004368 -0.134979 
0.003553 -0.134242 
0.003334 -0.136564 
0.004121 -0.139334 
0.004991 -0.144356 
0.004924 -0.141272 
0.004863 -0.139401 
-0.009841 -0.182777 
-0.007443 -0.180188 
-0.003803 -0.177277 
-0.005447 -0.178985 
-0.006109 -0.180586 
-0.004811 -0.177264 
-0.002175 -0.173863 
-0.002582 -0.166410 
-0.002035 -0.169619 
-0.003282 -0.169559 
0.000152 -0.167936 
-0.000909 -0.169072 
-0.000246 -0.165420 
-0.003643 -0.175985 
-0.002050 -0.172536 
-0.002646 -0.175108 
0.003059 -0.161114 
0.003385 -0.156695 
0.000181 -0.169939 
0.001984 -0.165612 
0.001776 -0.162043 
0.002152 -0.163937 
0.001173 -0.166221 
-0.001720 -0.173870 
-0.000018 -0.170193 
-0.000791 -0.172177 
-0.020108 -0.132960 
-0.017249 -0.137868 
-0.019195 -0.135411 
-0.013630 -0.140413 
-0.015394 -0.139495 
-0.016273 -0.135660 
-0.013580 -0.144845 
-0.014459 -0.142554 
-0.011793 -0.147028 
-0.007567 -0.139170 
-0.008923 -0.140013 
-0.009601 -0.134925 
-0.007154 -0.148945 
-0.008069 -0.144685 
-0.005845 -0.148416 
-0.012754 -0.136039 
-0.010389 -0.140567 
-0.011960 -0.140734 
-0.005094 -0.161986 
-0.005169 -0.159267 
-0.003647 -0.162949 
-0.009311 -0.151302 
-0.007081 -0.155382 
-0.008704 -0.153695 
-0.004250 -0.156341 
-0.005601 -0.156225 
-0.006295 -0.152791 
-0.011047 -0.144841 
-0.008582 -0.148961 
-0.010128 -0.148360 
-0.001145 -0.132138 
-0.000817 -0.128505 
-0.000487 -0.138708 
-0.001017 -0.135500 
-0.002543 -0.129395 
-0.001784 -0.132778 
-0.002494 -0.133634 
0.003074 -0.152534 
0.002319 -0.148703 
-0.000393 -0.145514 
0.001038 -0.147343 
0.000551 -0.149496 
0.001340 -0.145183 
0.000345 -0.141891 
-0.006854 -0.133048 
-0.005199 -0.136977 
-0.006325 -0.138129 
-0.003291 -0.134659 
-0.004190 -0.135796 
-0.004518 -0.131034 
-0.002700 -0.144766 
-0.003548 -0.140353 
-0.001933 -0.143192 
-0.000835 -0.140076 
-0.001313 -0.141598 
-0.002055 -0.137670 
-0.002345 -0.163140 
-0.003020 -0.155834 
-0.002514 -0.159625 
-0.001156 -0.162649 
-0.000064 -0.161549 
-0.005555 -0.142930 
-0.001780 -0.149084 
-0.003611 -0.146227 
-0.004662 -0.147476 
-0.003774 -0.151779 
0.002528 -0.155300 
0.000928 -0.159906 
0.001801 -0.157793 
0.001342 -0.153590 
-0.000112 -0.151529 
-0.001913 -0.154800 
-0.000939 -0.153332 
-0.000325 -0.157500 
-0.025063 -0.125326 
-0.022966 -0.127817 
-0.028474 -0.116741 
-0.025772 -0.122418 
-0.030730 -0.114441 
-0.020913 -0.129526 
-0.018912 -0.130567 
-0.036994 -0.090837 
-0.035351 -0.097839 
-0.039603 -0.089669 
-0.026276 -0.113034 
-0.030855 -0.105685 
-0.028345 -0.106364 
-0.035753 -0.102596 
-0.033331 -0.104473 
-0.031015 -0.110766 
-0.013315 -0.130762 
-0.011610 -0.130178 
-0.016974 -0.131051 
-0.015106 -0.131083 
-0.019565 -0.119803 
-0.017394 -0.125678 
-0.021749 -0.119738 
-0.026218 -0.118313 
-0.023971 -0.119276 
-0.021497 -0.125112 
-0.014530 -0.013201 
-0.024759 -0.026528 
-0.020795 -0.020001 
-0.027771 -0.045000 
-0.027088 -0.035481 
-0.023446 -0.033806 
-0.035214 -0.042222 
-0.031151 -0.038237 
-0.035144 -0.048739 
-0.020713 -0.081702 
-0.023400 -0.073079 
-0.020546 -0.072556 
-0.029460 -0.074225 
-0.026380 -0.073640 
-0.026404 -0.082715 
-0.024006 -0.053839 
-0.025628 -0.064004 
-0.027175 -0.054591 
-0.041593 -0.075512 
-0.038744 -0.075596 
-0.038165 -0.083437 
-0.037476 -0.058349 
-0.038582 -0.067260 
-0.040713 -0.059886 
-0.032347 -0.083491 
-0.035716 -0.075297 
-0.032594 -0.074799 
-0.030538 -0.055583 
-0.032059 -0.065510 
-0.034019 -0.056850 
-0.002157 -0.124864 
-0.001073 -0.124571 
-0.004461 -0.126006 
-0.003280 -0.125352 
-0.004602 -0.115288 
-0.003972 -0.120648 
-0.006213 -0.115802 
-0.009996 -0.129416 
-0.008475 -0.128552 
-0.011466 -0.117812 
-0.010026 -0.123476 
-0.013377 -0.118499 
-0.007049 -0.127655 
-0.005713 -0.126789 
-0.015252 -0.089264 
-0.014698 -0.097271 
-0.017758 -0.089786 
-0.008811 -0.110295 
-0.011675 -0.104116 
-0.009583 -0.103557 
-0.016106 -0.105295 
-0.013849 -0.104707 
-0.012755 -0.111556 
-0.006846 -0.121917 
-0.009637 -0.117102 
-0.007888 -0.116418 
-0.034272 -0.091438 
-0.028648 -0.091520 
-0.031475 -0.091624 
-0.030107 -0.099237 
-0.025826 -0.106624 
-0.020364 -0.090308 
-0.018445 -0.105836 
-0.019583 -0.098356 
-0.023061 -0.090800 
-0.025831 -0.091221 
-0.013549 -0.124909 
-0.021562 -0.113440 
-0.017435 -0.119564 
-0.015369 -0.119105 
-0.017019 -0.112751 
-0.024771 -0.099168 
-0.020854 -0.106281 
-0.023321 -0.106568 
0.000000 0.000000 
-0.011215 -0.011329 
-0.007819 -0.010515 
-0.009236 -0.010733 
0.000000 0.000000 
-0.017269 -0.022213 
-0.020305 -0.032844 
-0.004207 -0.010444 
-0.004935 -0.010428 
0.000000 0.000000 
-0.013115 -0.031764 
-0.009359 -0.021055 
-0.011218 -0.031630 
0.000000 0.000000 
-0.005754 -0.010421 
-0.006697 -0.010439 
-0.019776 -0.062911 
-0.017831 -0.072076 
-0.021366 -0.043221 
-0.021055 -0.053270 
-0.015784 -0.052479 
-0.018319 -0.052829 
-0.016109 -0.042405 
-0.012662 -0.021276 
-0.015222 -0.031967 
-0.017594 -0.032293 
-0.000000 -0.010510 
-0.000449 -0.010514 
0.000000 0.000000 
-0.001215 -0.031271 
-0.000858 -0.020953 
-0.000000 -0.031256 
0.000000 0.000000 
-0.000907 -0.010513 
-0.001378 -0.010509 
-0.002010 -0.070119 
-0.001909 -0.060900 
-0.000000 -0.070076 
-0.004615 -0.041511 
-0.003509 -0.051371 
-0.005317 -0.051466 
-0.000000 -0.051280 
-0.001743 -0.051309 
-0.001512 -0.041411 
0.000000 0.000000 
-0.002947 -0.010478 
-0.003549 -0.010461 
-0.001871 -0.010502 
-0.002391 -0.010491 
0.000000 0.000000 
-0.006422 -0.031405 
-0.004551 -0.020981 
-0.005033 -0.031359 
-0.002447 -0.031293 
-0.003714 -0.031322 
-0.002627 -0.020967 
-0.001303 -0.119952 
-0.000000 -0.124483 
-0.005155 -0.109283 
-0.003041 -0.114903 
-0.000000 -0.114582 
-0.001512 -0.114665 
-0.001696 -0.108724 
-0.015456 -0.080708 
-0.012848 -0.088765 
-0.008319 -0.087915 
-0.010540 -0.088310 
-0.010654 -0.079859 
-0.010170 -0.096221 
-0.007566 -0.103060 
-0.000000 -0.087146 
-0.002031 -0.087202 
-0.002049 -0.078904 
-0.001848 -0.102148 
-0.001962 -0.094963 
-0.000000 -0.102079 
-0.006230 -0.079239 
-0.004082 -0.087352 
-0.006171 -0.087592 
-0.005614 -0.102648 
-0.005960 -0.095408 
-0.003714 -0.102340 
-0.006743 -0.021000 
-0.007963 -0.041691 
-0.007900 -0.031463 
-0.009490 -0.031535 
-0.011727 -0.041968 
-0.004041 -0.070226 
-0.008256 -0.070625 
-0.006117 -0.070395 
-0.005816 -0.061117 
-0.007191 -0.051594 
-0.015254 -0.071640 
-0.013426 -0.052193 
-0.014592 -0.062112 
-0.012808 -0.071251 
-0.010481 -0.070912 
-0.009152 -0.051757 
-0.009988 -0.061522 
-0.011223 -0.051955 
0.000000 0.000000 
0.000449 -0.010514 
0.001378 -0.010509 
0.000907 -0.010513 
0.000000 0.000000 
0.000858 -0.020953 
0.001215 -0.031271 
0.003549 -0.010461 
0.002947 -0.010478 
0.000000 0.000000 
0.005033 -0.031359 
0.004551 -0.020981 
0.006422 -0.031405 
0.000000 0.000000 
0.002391 -0.010491 
0.001871 -0.010502 
0.001909 -0.060900 
0.002010 -0.070119 
0.001512 -0.041411 
0.001743 -0.051309 
0.005317 -0.051466 
0.003509 -0.051371 
0.004615 -0.041511 
0.002627 -0.020967 
0.003714 -0.031322 
0.002447 -0.031293 
0.014530 -0.013201 
0.011215 -0.011329 
0.000000 0.000000 
0.020305 -0.032844 
0.017269 -0.022213 
0.023446 -0.033806 
0.000000 0.000000 
0.009236 -0.010733 
0.007819 -0.010515 
0.017831 -0.072076 
0.019776 -0.062911 
0.020546 -0.072556 
0.016109 -0.042405 
0.018319 -0.052829 
0.015784 -0.052479 
0.024006 -0.053839 
0.021055 -0.053270 
0.021366 -0.043221 
0.000000 0.000000 
0.004935 -0.010428 
0.004207 -0.010444 
0.006697 -0.010439 
0.005754 -0.010421 
0.000000 0.000000 
0.011218 -0.031630 
0.009359 -0.021055 
0.013115 -0.031764 
0.017594 -0.032293 
0.015222 -0.031967 
0.012662 -0.021276 
0.001303 -0.119952 
0.001073 -0.124571 
0.001696 -0.108724 
0.001512 -0.114665 
0.004602 -0.115288 
0.003041 -0.114903 
0.005155 -0.109283 
0.002049 -0.078904 
0.002031 -0.087202 
0.006171 -0.087592 
0.004082 -0.087352 
0.006230 -0.079239 
0.001962 -0.094963 
0.001848 -0.102148 
0.015252 -0.089264 
0.012848 -0.088765 
0.015456 -0.080708 
0.007566 -0.103060 
0.010170 -0.096221 
0.009583 -0.103557 
0.010654 -0.079859 
0.010540 -0.088310 
0.008319 -0.087915 
0.003714 -0.102340 
0.005960 -0.095408 
0.005614 -0.102648 
0.006743 -0.021000 
0.011727 -0.041968 
0.009490 -0.031535 
0.007900 -0.031463 
0.007963 -0.041691 
0.015254 -0.071640 
0.010481 -0.070912 
0.012808 -0.071251 
0.014592 -0.062112 
0.013426 -0.052193 
0.004041 -0.070226 
0.007191 -0.051594 
0.005816 -0.061117 
0.006117 -0.070395 
0.008256 -0.070625 
0.011223 -0.051955 
0.009988 -0.061522 
0.009152 -0.051757 
0.020795 -0.020001 
0.024759 -0.026528 
0.035144 -0.048739 
0.031151 -0.038237 
0.035214 -0.042222 
0.027088 -0.035481 
0.027771 -0.045000 
0.038165 -0.083437 
0.038744 -0.075596 
0.041593 -0.075512 
0.032594 -0.074799 
0.035716 -0.075297 
0.032347 -0.083491 
0.040713 -0.059886 
0.038582 -0.067260 
0.037476 -0.058349 
0.023400 -0.073079 
0.020713 -0.081702 
0.027175 -0.054591 
0.025628 -0.064004 
0.026404 -0.082715 
0.026380 -0.073640 
0.029460 -0.074225 
0.034019 -0.056850 
0.032059 -0.065510 
0.030538 -0.055583 
0.020108 -0.132960 
0.022966 -0.127817 
0.025063 -0.125326 
0.018912 -0.130567 
0.020913 -0.129526 
0.016273 -0.135660 
0.030730 -0.114441 
0.025772 -0.122418 
0.028474 -0.116741 
0.011610 -0.130178 
0.013315 -0.130762 
0.009601 -0.134925 
0.021749 -0.119738 
0.017394 -0.125678 
0.019565 -0.119803 
0.012754 -0.136039 
0.015106 -0.131083 
0.016974 -0.131051 
0.039603 -0.089669 
0.035351 -0.097839 
0.036994 -0.090837 
0.031015 -0.110766 
0.033331 -0.104473 
0.035753 -0.102596 
0.028345 -0.106364 
0.030855 -0.105685 
0.026276 -0.113034 
0.021497 -0.125112 
0.023971 -0.119276 
0.026218 -0.118313 
0.002157 -0.124864 
0.000817 -0.128505 
0.006213 -0.115802 
0.003972 -0.120648 
0.002543 -0.129395 
0.003280 -0.125352 
0.004461 -0.126006 
0.017758 -0.089786 
0.014698 -0.097271 
0.012755 -0.111556 
0.013849 -0.104707 
0.016106 -0.105295 
0.011675 -0.104116 
0.008811 -0.110295 
0.006854 -0.133048 
0.008475 -0.128552 
0.009996 -0.129416 
0.005713 -0.126789 
0.007049 -0.127655 