# vtk DataFile Version 2.0
Unstructured Grid Example
ASCII
DATASET UNSTRUCTURED_GRID

POINTS 25 float
0.007062 -0.172950 0.000000 
0.992938 -0.172950 0.000000 
1.000000 1.000000 0.000000 
0.000000 1.000000 0.000000 
0.500000 -0.089954 0.000000 
0.975232 0.373603 0.000000 
0.500000 1.000000 0.000000 
0.024768 0.373603 0.000000 
0.500000 0.377354 0.000000 
0.254445 -0.150155 0.000000 
0.500000 0.126033 0.000000 
0.249872 0.098234 0.000000 
0.745555 -0.150155 0.000000 
0.750128 0.098234 0.000000 
0.992546 0.090403 0.000000 
0.738896 0.371213 0.000000 
0.963812 0.667381 0.000000 
0.735167 0.674329 0.000000 
0.750000 1.000000 0.000000 
0.500000 0.679021 0.000000 
0.250000 1.000000 0.000000 
0.264833 0.674329 0.000000 
0.036188 0.667381 0.000000 
0.261104 0.371213 0.000000 
0.007454 0.090403 0.000000 

CELLS 32 128
3  0 9 11 
3  4 10 9 
3  8 11 10 
3  9 10 11 
3  4 12 10 
3  1 13 12 
3  8 10 13 
3  12 13 10 
3  1 14 13 
3  5 15 14 
3  8 13 15 
3  14 15 13 
3  5 16 15 
3  2 17 16 
3  8 15 17 
3  16 17 15 
3  2 18 17 
3  6 19 18 
3  8 17 19 
3  18 19 17 
3  6 20 19 
3  3 21 20 
3  8 19 21 
3  20 21 19 
3  3 22 21 
3  7 23 22 
3  8 21 23 
3  22 23 21 
3  7 24 23 
3  0 11 24 
3  8 23 11 
3  24 11 23 

CELL_TYPES 32
5
5
5
5
5
5
5
5
5
5
5
5
5
5
5
5
5
5
5
5
5
5
5
5
5
5
5
5
5
5
5
5

POINT_DATA 25

SCALARS u_h float 2
LOOKUP_TABLE default
0.007062 -0.172950 
-0.007062 -0.172950 
0.000000 0.000000 
0.000000 0.000000 
-0.000000 -0.089954 
-0.024768 -0.126397 
0.000000 0.000000 
0.024768 -0.126397 
-0.000000 -0.122646 
0.004445 -0.150155 
-0.000000 -0.123967 
-0.000128 -0.151766 
-0.004445 -0.150155 
0.000128 -0.151766 
-0.007454 -0.159597 
-0.011104 -0.128787 
-0.036188 -0.082619 
-0.014833 -0.075671 
0.000000 0.000000 
0.000000 -0.070979 
0.000000 0.000000 
0.014833 -0.075671 
0.036188 -0.082619 
0.011104 -0.128787 
0.007454 -0.159597 

CELL_DATA 32

SCALARS epsilon float 4
LOOKUP_TABLE default
-0.008654 -0.000485 0.000000 0.036638
-0.017940 -0.104813 0.000000 0.139317
0.000513 0.011381 0.000000 0.055307
0.002726 0.001809 0.000000 0.046817
-0.017940 -0.104813 0.000000 -0.139317
-0.008654 -0.000485 0.000000 -0.036638
0.000513 0.011381 0.000000 -0.055307
0.002726 0.001809 0.000000 -0.046817
-0.030836 0.052412 0.000000 -0.015658
-0.053440 0.124750 0.000000 -0.031917
-0.045529 0.086949 0.000000 -0.034570
-0.031215 0.086841 0.000000 -0.037336
-0.054908 0.160543 0.000000 -0.019567
-0.078734 0.282591 0.000000 0.063796
-0.045634 0.190504 0.000000 -0.017674
-0.089316 0.190537 0.000000 -0.019264
0.001037 0.259349 0.000000 0.028065
0.000000 0.245583 0.000000 -0.000000
-0.061086 0.186074 0.000000 -0.007746
-0.059011 0.260325 0.000000 0.022649
0.000000 0.245583 0.000000 -0.000000
0.001037 0.259349 0.000000 -0.028065
-0.061086 0.186074 0.000000 0.007746
-0.059011 0.260325 0.000000 -0.022649
-0.078734 0.282591 0.000000 -0.063796
-0.054908 0.160543 0.000000 0.019567
-0.045634 0.190504 0.000000 0.017674
-0.089316 0.190537 0.000000 0.019264
-0.053440 0.124750 0.000000 0.031917
-0.030836 0.052412 0.000000 0.015658
-0.045529 0.086949 0.000000 0.034570
-0.031215 0.086841 0.000000 0.037336

SCALARS sigma float 4
LOOKUP_TABLE default
-0.250645 -0.182793 -0.118151 0.602805
-1.906846 -4.697033 -1.578110 2.326923
0.066267 0.143557 0.057885 0.906572
0.060215 -0.054337 0.001617 0.764847
-1.906846 -4.697033 -1.578110 -2.326923
-0.250645 -0.182793 -0.118151 -0.602805
0.066267 0.143557 0.057885 -0.906572
0.060215 -0.054337 0.001617 -0.764847
-0.338170 0.980334 0.178527 -0.263551
-0.368145 2.333931 0.559390 -0.395186
-0.481465 1.592279 0.311132 -0.523213
-0.063955 1.737699 0.474161 -0.556642
-0.041975 3.051356 0.872391 -0.207389
0.133482 4.923196 1.512189 0.508154
0.542517 3.734099 1.268576 -0.253635
-0.887461 3.218682 0.664436 -0.300843
2.593492 5.555883 2.593492 0.207210
2.455831 5.309326 2.455831 -0.000000
0.020852 3.475467 1.021346 -0.135589
0.760040 4.839393 1.695643 0.146424
2.455831 5.309326 2.455831 -0.000000
2.593492 5.555883 2.593492 -0.207210
0.020852 3.475467 1.021346 0.135589
0.760040 4.839393 1.695643 -0.146424
0.133482 4.923196 1.512189 -0.508154
-0.041975 3.051356 0.872391 0.207389
0.542517 3.734099 1.268576 0.253635
-0.887461 3.218682 0.664436 0.300843
-0.368145 2.333931 0.559390 0.395186
-0.338170 0.980334 0.178527 0.263551
-0.481465 1.592279 0.311132 0.523213
-0.063955 1.737699 0.474161 0.556642

