# vtk DataFile Version 2.0
Unstructured Grid Example
ASCII
DATASET UNSTRUCTURED_GRID

POINTS 9 float
0.012102 -0.152820 0.000000 
0.987898 -0.152820 0.000000 
1.000000 1.000000 0.000000 
0.000000 1.000000 0.000000 
0.500000 -0.060350 0.000000 
0.975715 0.389950 0.000000 
0.500000 1.000000 0.000000 
0.024285 0.389950 0.000000 
0.500000 0.403207 0.000000 

CELLS 8 32
3  0 4 8 
3  4 1 8 
3  1 5 8 
3  5 2 8 
3  2 6 8 
3  6 3 8 
3  3 7 8 
3  7 0 8 

CELL_TYPES 8
5
5
5
5
5
5
5
5

POINT_DATA 9

SCALARS u_h float 2
LOOKUP_TABLE default
0.012102 -0.152820 
-0.012102 -0.152820 
0.000000 0.000000 
0.000000 0.000000 
-0.000000 -0.060350 
-0.024285 -0.110050 
0.000000 0.000000 
0.024285 -0.110050 
-0.000000 -0.096793 

CELL_DATA 8

SCALARS epsilon float 4
LOOKUP_TABLE default
-0.024497 -0.054630 0.000000 0.099678
-0.024497 -0.054630 0.000000 -0.099678
-0.050092 0.081612 0.000000 -0.024906
-0.047768 0.197999 0.000000 0.013847
0.000000 0.175341 0.000000 0.000000
0.000000 0.175341 0.000000 0.000000
-0.047768 0.197999 0.000000 -0.013847
-0.050092 0.081612 0.000000 0.024906

SCALARS sigma float 4
LOOKUP_TABLE default
-1.399693 -2.389691 -0.963218 1.676294
-1.399693 -2.389691 -0.963218 -1.676294
-0.643041 1.436920 0.221028 -0.394966
0.544626 3.858522 1.309320 0.069290
1.753410 3.983006 1.753410 0.000000
1.753410 3.983006 1.753410 0.000000
0.544626 3.858522 1.309320 -0.069290
-0.643041 1.436920 0.221028 0.394966

