# vtk DataFile Version 2.0
Unstructured Grid Example
ASCII
DATASET UNSTRUCTURED_GRID

POINTS 81 float
0.011081 -0.179248 0.000000 
0.988919 -0.179248 0.000000 
1.000000 1.000000 0.000000 
0.000000 1.000000 0.000000 
0.500000 -0.097577 0.000000 
0.976988 0.371209 0.000000 
0.500000 1.000000 0.000000 
0.023012 0.371209 0.000000 
0.500000 0.372795 0.000000 
0.259047 -0.151633 0.000000 
0.500000 0.119211 0.000000 
0.247430 0.097596 0.000000 
0.740953 -0.151633 0.000000 
0.752570 0.097596 0.000000 
0.994832 0.086906 0.000000 
0.741207 0.368621 0.000000 
0.961354 0.667179 0.000000 
0.733286 0.671173 0.000000 
0.750000 1.000000 0.000000 
0.500000 0.674252 0.000000 
0.250000 1.000000 0.000000 
0.266714 0.671173 0.000000 
0.038646 0.667179 0.000000 
0.258793 0.368621 0.000000 
0.005168 0.086906 0.000000 
0.135377 -0.170312 0.000000 
0.248130 -0.029024 0.000000 
0.126106 -0.043507 0.000000 
0.500000 0.007106 0.000000 
0.371409 -0.004653 0.000000 
0.379355 -0.112121 0.000000 
0.374438 0.237728 0.000000 
0.371616 0.112187 0.000000 
0.500000 0.241033 0.000000 
0.620645 -0.112121 0.000000 
0.628591 -0.004653 0.000000 
0.873894 -0.043507 0.000000 
0.751870 -0.029024 0.000000 
0.864623 -0.170312 0.000000 
0.628384 0.112187 0.000000 
0.625562 0.237728 0.000000 
0.996052 -0.049209 0.000000 
0.874353 0.088025 0.000000 
0.859455 0.366239 0.000000 
0.868536 0.224425 0.000000 
0.987327 0.227236 0.000000 
0.748126 0.229598 0.000000 
0.621518 0.372893 0.000000 
0.967552 0.516596 0.000000 
0.851411 0.513649 0.000000 
0.854016 0.833140 0.000000 
0.847390 0.668611 0.000000 
0.964385 0.825099 0.000000 
0.735295 0.515499 0.000000 
0.617926 0.518076 0.000000 
0.875000 1.000000 0.000000 
0.737735 0.834221 0.000000 
0.500000 0.835666 0.000000 
0.619327 0.834742 0.000000 
0.625000 1.000000 0.000000 
0.617124 0.672916 0.000000 
0.500000 0.519217 0.000000 
0.375000 1.000000 0.000000 
0.380673 0.834742 0.000000 
0.145984 0.833140 0.000000 
0.262265 0.834221 0.000000 
0.125000 1.000000 0.000000 
0.382876 0.672916 0.000000 
0.382074 0.518076 0.000000 
0.035615 0.825099 0.000000 
0.152610 0.668611 0.000000 
0.140545 0.366239 0.000000 
0.148589 0.513649 0.000000 
0.032448 0.516596 0.000000 
0.264705 0.515499 0.000000 
0.378482 0.372893 0.000000 
0.012673 0.227236 0.000000 
0.131464 0.224425 0.000000 
0.125647 0.088025 0.000000 
0.003948 -0.049209 0.000000 
0.251874 0.229598 0.000000 

CELLS 128 512
3  0 25 27 
3  9 26 25 
3  11 27 26 
3  25 26 27 
3  4 28 30 
3  10 29 28 
3  9 30 29 
3  28 29 30 
3  8 31 33 
3  11 32 31 
3  10 33 32 
3  31 32 33 
3  9 29 26 
3  10 32 29 
3  11 26 32 
3  29 32 26 
3  4 34 28 
3  12 35 34 
3  10 28 35 
3  34 35 28 
3  1 36 38 
3  13 37 36 
3  12 38 37 
3  36 37 38 
3  8 33 40 
3  10 39 33 
3  13 40 39 
3  33 39 40 
3  12 37 35 
3  13 39 37 
3  10 35 39 
3  37 39 35 
3  1 41 36 
3  14 42 41 
3  13 36 42 
3  41 42 36 
3  5 43 45 
3  15 44 43 
3  14 45 44 
3  43 44 45 
3  8 40 47 
3  13 46 40 
3  15 47 46 
3  40 46 47 
3  14 44 42 
3  15 46 44 
3  13 42 46 
3  44 46 42 
3  5 48 43 
3  16 49 48 
3  15 43 49 
3  48 49 43 
3  2 50 52 
3  17 51 50 
3  16 52 51 
3  50 51 52 
3  8 47 54 
3  15 53 47 
3  17 54 53 
3  47 53 54 
3  16 51 49 
3  17 53 51 
3  15 49 53 
3  51 53 49 
3  2 55 50 
3  18 56 55 
3  17 50 56 
3  55 56 50 
3  6 57 59 
3  19 58 57 
3  18 59 58 
3  57 58 59 
3  8 54 61 
3  17 60 54 
3  19 61 60 
3  54 60 61 
3  18 58 56 
3  19 60 58 
3  17 56 60 
3  58 60 56 
3  6 62 57 
3  20 63 62 
3  19 57 63 
3  62 63 57 
3  3 64 66 
3  21 65 64 
3  20 66 65 
3  64 65 66 
3  8 61 68 
3  19 67 61 
3  21 68 67 
3  61 67 68 
3  20 65 63 
3  21 67 65 
3  19 63 67 
3  65 67 63 
3  3 69 64 
3  22 70 69 
3  21 64 70 
3  69 70 64 
3  7 71 73 
3  23 72 71 
3  22 73 72 
3  71 72 73 
3  8 68 75 
3  21 74 68 
3  23 75 74 
3  68 74 75 
3  22 72 70 
3  23 74 72 
3  21 70 74 
3  72 74 70 
3  7 76 71 
3  24 77 76 
3  23 71 77 
3  76 77 71 
3  0 27 79 
3  11 78 27 
3  24 79 78 
3  27 78 79 
3  8 75 31 
3  23 80 75 
3  11 31 80 
3  75 80 31 
3  24 78 77 
3  11 80 78 
3  23 77 80 
3  78 80 77 

CELL_TYPES 128
5
5
5
5
5
5
5
5
5
5
5
5
5
5
5
5
5
5
5
5
5
5
5
5
5
5
5
5
5
5
5
5
5
5
5
5
5
5
5
5
5
5
5
5
5
5
5
5
5
5
5
5
5
5
5
5
5
5
5
5
5
5
5
5
5
5
5
5
5
5
5
5
5
5
5
5
5
5
5
5
5
5
5
5
5
5
5
5
5
5
5
5
5
5
5
5
5
5
5
5
5
5
5
5
5
5
5
5
5
5
5
5
5
5
5
5
5
5
5
5
5
5
5
5
5
5
5
5

POINT_DATA 81

SCALARS u_h float 2
LOOKUP_TABLE default
0.011081 -0.179248 
-0.011081 -0.179248 
0.000000 0.000000 
0.000000 0.000000 
-0.000000 -0.097577 
-0.023012 -0.128791 
0.000000 0.000000 
0.023012 -0.128791 
-0.000000 -0.127205 
0.009047 -0.151633 
-0.000000 -0.130789 
-0.002570 -0.152404 
-0.009047 -0.151633 
0.002570 -0.152404 
-0.005168 -0.163094 
-0.008793 -0.131379 
-0.038646 -0.082821 
-0.016714 -0.078827 
0.000000 0.000000 
-0.000000 -0.075748 
0.000000 0.000000 
0.016714 -0.078827 
0.038646 -0.082821 
0.008793 -0.131379 
0.005168 -0.163094 
0.010377 -0.170312 
-0.001870 -0.154024 
0.001106 -0.168507 
-0.000000 -0.117894 
-0.003591 -0.129653 
0.004355 -0.112121 
-0.000562 -0.137272 
-0.003384 -0.137813 
-0.000000 -0.133967 
-0.004355 -0.112121 
0.003591 -0.129653 
-0.001106 -0.168507 
0.001870 -0.154024 
-0.010377 -0.170312 
0.003384 -0.137813 
0.000562 -0.137272 
-0.003948 -0.174209 
-0.000647 -0.161975 
-0.015545 -0.133761 
-0.006464 -0.150575 
-0.012673 -0.147764 
-0.001874 -0.145402 
-0.003482 -0.127107 
-0.032448 -0.108404 
-0.023589 -0.111351 
-0.020984 -0.041860 
-0.027610 -0.081389 
-0.035615 -0.049901 
-0.014705 -0.109501 
-0.007074 -0.106924 
0.000000 0.000000 
-0.012265 -0.040779 
-0.000000 -0.039334 
-0.005673 -0.040258 
0.000000 0.000000 
-0.007876 -0.077084 
-0.000000 -0.105783 
0.000000 0.000000 
0.005673 -0.040258 
0.020984 -0.041860 
0.012265 -0.040779 
0.000000 0.000000 
0.007876 -0.077084 
0.007074 -0.106924 
0.035615 -0.049901 
0.027610 -0.081389 
0.015545 -0.133761 
0.023589 -0.111351 
0.032448 -0.108404 
0.014705 -0.109501 
0.003482 -0.127107 
0.012673 -0.147764 
0.006464 -0.150575 
0.000647 -0.161975 
0.003948 -0.174209 
0.001874 -0.145402 

CELL_DATA 128

SCALARS epsilon float 4
LOOKUP_TABLE default
0.002271 0.022063 0.000000 -0.002043
0.006604 0.005585 0.000000 0.032038
-0.023419 0.020388 0.000000 0.054286
-0.012698 0.029700 0.000000 0.019123
-0.035447 -0.164882 0.000000 0.069372
0.028317 -0.103218 0.000000 0.052408
-0.011451 -0.056832 0.000000 0.151378
0.037598 -0.137686 0.000000 0.024495
0.004484 0.052948 0.000000 0.012541
-0.008915 0.008553 0.000000 0.069470
0.026702 -0.024169 0.000000 0.028807
0.004143 0.004070 0.000000 0.024399
0.007516 0.017746 0.000000 0.055108
0.026607 -0.065782 0.000000 0.030840
-0.005863 0.020245 0.000000 0.054796
-0.014217 -0.045366 0.000000 0.105109
-0.035447 -0.164882 0.000000 -0.069372
-0.011451 -0.056832 0.000000 -0.151378
0.028317 -0.103218 0.000000 -0.052408
0.037598 -0.137686 0.000000 -0.024495
0.002271 0.022063 0.000000 0.002043
-0.023419 0.020388 0.000000 -0.054286
0.006604 0.005585 0.000000 -0.032038
-0.012698 0.029700 0.000000 -0.019123
0.004484 0.052948 0.000000 -0.012541
0.026702 -0.024169 0.000000 -0.028807
-0.008915 0.008553 0.000000 -0.069470
0.004143 0.004070 0.000000 -0.024399
0.007516 0.017746 0.000000 -0.055108
-0.005863 0.020245 0.000000 -0.054796
0.026607 -0.065782 0.000000 -0.030840
-0.014217 -0.045366 0.000000 -0.105109
-0.018866 0.043055 0.000000 0.007230
-0.036858 0.084946 0.000000 -0.009134
-0.025791 0.053950 0.000000 -0.034479
-0.022820 0.052035 0.000000 -0.019791
-0.055600 0.144113 0.000000 -0.025992
-0.054456 0.124481 0.000000 -0.046237
-0.048064 0.116678 0.000000 -0.021217
-0.047132 0.127305 0.000000 -0.027786
-0.027749 0.078058 0.000000 -0.016182
-0.021320 0.054201 0.000000 -0.048866
-0.043803 0.104718 0.000000 -0.043949
-0.021196 0.077947 0.000000 -0.046471
-0.036234 0.086713 0.000000 -0.028068
-0.038189 0.104592 0.000000 -0.047023
-0.028118 0.054591 0.000000 -0.054423
-0.038240 0.086026 0.000000 -0.042924
-0.056419 0.153402 0.000000 -0.022298
-0.071357 0.185558 0.000000 -0.016173
-0.054895 0.162652 0.000000 -0.041290
-0.070278 0.165163 0.000000 -0.023878
-0.083455 0.340808 0.000000 0.124554
-0.089066 0.270113 0.000000 0.019633
-0.091682 0.230470 0.000000 0.008227
-0.119861 0.273398 0.000000 0.004227
-0.027903 0.148700 0.000000 -0.014152
-0.043933 0.159104 0.000000 -0.038671
-0.063095 0.216332 0.000000 -0.016468
-0.063101 0.148326 0.000000 -0.023842
-0.092060 0.211778 0.000000 -0.021563
-0.091121 0.216332 0.000000 -0.016616
-0.073275 0.159512 0.000000 -0.031159
-0.073598 0.211725 0.000000 -0.022607
0.007908 0.282339 0.000000 0.078654
0.002737 0.276236 0.000000 0.046091
-0.071491 0.260851 0.000000 0.014789
-0.061894 0.283458 0.000000 0.081288
0.000000 0.267998 0.000000 0.000000
-0.046410 0.251059 0.000000 -0.002857
0.000589 0.273279 0.000000 0.021345
-0.045499 0.273546 0.000000 0.019567
-0.058185 0.157041 0.000000 -0.003881
-0.073253 0.211281 0.000000 -0.008922
-0.064984 0.212539 0.000000 -0.004290
-0.058220 0.211265 0.000000 -0.006946
-0.050750 0.276547 0.000000 0.047085
-0.064724 0.253644 0.000000 0.004808
-0.072353 0.261039 0.000000 0.012791
-0.053959 0.253521 0.000000 0.007218
0.000000 0.267998 0.000000 0.000000
0.000589 0.273279 0.000000 -0.021345
-0.046410 0.251059 0.000000 0.002857
-0.045499 0.273546 0.000000 -0.019567
0.007908 0.282339 0.000000 -0.078654
-0.071491 0.260851 0.000000 -0.014789
0.002737 0.276236 0.000000 -0.046091
-0.061894 0.283458 0.000000 -0.081288
-0.058185 0.157041 0.000000 0.003881
-0.064984 0.212539 0.000000 0.004290
-0.073253 0.211281 0.000000 0.008922
-0.058220 0.211265 0.000000 0.006946
-0.050750 0.276547 0.000000 -0.047085
-0.072353 0.261039 0.000000 -0.012791
-0.064724 0.253644 0.000000 -0.004808
-0.053959 0.253521 0.000000 -0.007218
-0.083455 0.340808 0.000000 -0.124554
-0.091682 0.230470 0.000000 -0.008227
-0.089066 0.270113 0.000000 -0.019633
-0.119861 0.273398 0.000000 -0.004227
-0.056419 0.153402 0.000000 0.022298
-0.054895 0.162652 0.000000 0.041290
-0.071357 0.185558 0.000000 0.016173
-0.070278 0.165163 0.000000 0.023878
-0.027903 0.148700 0.000000 0.014152
-0.063095 0.216332 0.000000 0.016468
-0.043933 0.159104 0.000000 0.038671
-0.063101 0.148326 0.000000 0.023842
-0.092060 0.211778 0.000000 0.021563
-0.073275 0.159512 0.000000 0.031159
-0.091121 0.216332 0.000000 0.016616
-0.073598 0.211725 0.000000 0.022607
-0.055600 0.144113 0.000000 0.025992
-0.048064 0.116678 0.000000 0.021217
-0.054456 0.124481 0.000000 0.046237
-0.047132 0.127305 0.000000 0.027786
-0.018866 0.043055 0.000000 -0.007230
-0.025791 0.053950 0.000000 0.034479
-0.036858 0.084946 0.000000 0.009134
-0.022820 0.052035 0.000000 0.019791
-0.027749 0.078058 0.000000 0.016182
-0.043803 0.104718 0.000000 0.043949
-0.021320 0.054201 0.000000 0.048866
-0.021196 0.077947 0.000000 0.046471
-0.036234 0.086713 0.000000 0.028068
-0.028118 0.054591 0.000000 0.054423
-0.038189 0.104592 0.000000 0.047023
-0.038240 0.086026 0.000000 0.042924

SCALARS sigma float 4
LOOKUP_TABLE default
0.277800 0.593872 0.244256 0.009935
0.253233 0.113219 0.102098 0.534052
-0.489166 0.127002 -0.098794 0.912652
-0.030542 0.586826 0.155161 0.362844
-2.659988 -6.026105 -1.982643 1.180314
-0.387186 -2.983650 -0.862398 0.836140
-1.081056 -3.359655 -1.128119 2.263130
-0.446480 -4.008973 -1.116412 0.111661
0.646567 1.368901 0.575921 0.204752
-0.276967 -0.096372 -0.101667 1.152106
0.422610 -0.437807 -0.004172 0.460303
0.129155 0.126467 0.070563 0.395771
0.389886 0.302490 0.194550 0.927298
-0.010101 -1.670440 -0.445776 0.495650
-0.009878 0.304335 0.081392 0.905692
-1.055943 -2.063589 -0.803890 1.752604
-2.659988 -6.026105 -1.982643 -1.180314
-1.081056 -3.359655 -1.128119 -2.263130
-0.387186 -2.983650 -0.862398 -0.836140
-0.446480 -4.008973 -1.116412 -0.111661
0.277800 0.593872 0.244256 -0.009935
-0.489166 0.127002 -0.098794 -0.912652
0.253233 0.113219 0.102098 -0.534052
-0.030542 0.586826 0.155161 -0.362844
0.646567 1.368901 0.575921 -0.204752
0.422610 -0.437807 -0.004172 -0.460303
-0.276967 -0.096372 -0.101667 -1.152106
0.129155 0.126467 0.070563 -0.395771
0.389886 0.302490 0.194550 -0.927298
-0.009878 0.304335 0.081392 -0.905692
-0.010101 -1.670440 -0.445776 -0.495650
-1.055943 -2.063589 -0.803890 -1.752604
-0.092874 0.896866 0.224597 0.069803
-0.196571 1.672107 0.416595 -0.139493
-0.196123 1.020208 0.229990 -0.584381
-0.115224 1.046883 0.260565 -0.336076
-0.243143 2.718033 0.711370 -0.233398
-0.443570 2.283822 0.521915 -0.640973
-0.253532 2.236575 0.564974 -0.234167
-0.141023 2.464908 0.666287 -0.305334
-0.008393 1.613476 0.454532 -0.222089
-0.120872 1.044374 0.257944 -0.782798
-0.287468 1.978882 0.478776 -0.647676
0.124923 1.606918 0.491284 -0.728964
-0.194294 1.703144 0.426190 -0.400105
-0.128119 2.027714 0.539918 -0.694199
-0.326098 0.955724 0.174786 -0.885226
-0.292968 1.626863 0.375223 -0.658136
-0.170480 2.896085 0.786791 -0.177068
-0.333080 3.346369 0.871966 -0.126685
-0.073720 3.060834 0.864894 -0.531352
-0.504346 2.964823 0.705300 -0.235316
-0.036405 5.655097 1.694407 0.856980
-0.166122 4.636540 1.321601 0.129886
-0.599812 3.925216 0.963934 0.057901
-1.247329 4.310196 0.879621 -0.145513
0.677570 3.125251 1.120977 -0.157074
0.249968 3.115070 0.981994 -0.527249
0.231233 4.008767 1.253947 -0.229989
-0.417813 2.704996 0.653691 -0.342150
-0.798012 3.577517 0.797957 -0.278871
-0.713793 3.672951 0.852348 -0.243931
-0.663375 2.803402 0.609182 -0.422026
-0.169387 3.795419 1.059393 -0.286743
2.823387 5.958843 2.823387 0.540548
2.762357 5.852912 2.762357 0.322873
0.365254 4.697826 1.516250 0.113233
0.618886 5.101798 1.732596 0.695504
2.679975 5.708734 2.679975 0.000000
1.104686 4.838765 1.813293 -0.049187
2.732791 5.801326 2.732791 0.150910
1.331138 5.234632 2.023902 0.139297
-0.158212 2.948973 0.805510 -0.067718
-0.143834 3.800386 1.069158 -0.135440
0.142828 3.923751 1.198955 -0.075422
0.349139 3.980535 1.283494 -0.097927
1.113635 5.191336 1.932931 0.388365
0.533761 4.659406 1.560411 0.011962
0.339883 4.691508 1.505847 0.077955
0.883768 4.788890 1.720977 0.052466
2.679975 5.708734 2.679975 0.000000
2.732791 5.801326 2.732791 -0.150910
1.104686 4.838765 1.813293 0.049187
1.331138 5.234632 2.023902 -0.139297
2.823387 5.958843 2.823387 -0.540548
0.365254 4.697826 1.516250 -0.113233
2.762357 5.852912 2.762357 -0.322873
0.618886 5.101798 1.732596 -0.695504
-0.158212 2.948973 0.805510 0.067718
0.142828 3.923751 1.198955 0.075422
-0.143834 3.800386 1.069158 0.135440
0.349139 3.980535 1.283494 0.097927
1.113635 5.191336 1.932931 -0.388365
0.339883 4.691508 1.505847 -0.077955
0.533761 4.659406 1.560411 -0.011962
0.883768 4.788890 1.720977 -0.052466
-0.036405 5.655097 1.694407 -0.856980
-0.599812 3.925216 0.963934 -0.057901
-0.166122 4.636540 1.321601 -0.129886
-1.247329 4.310196 0.879621 0.145513
-0.170480 2.896085 0.786791 0.177068
-0.073720 3.060834 0.864894 0.531352
-0.333080 3.346369 0.871966 0.126685
-0.504346 2.964823 0.705300 0.235316
0.677570 3.125251 1.120977 0.157074
0.231233 4.008767 1.253947 0.229989
0.249968 3.115070 0.981994 0.527249
-0.417813 2.704996 0.653691 0.342150
-0.798012 3.577517 0.797957 0.278871
-0.663375 2.803402 0.609182 0.422026
-0.713793 3.672951 0.852348 0.243931
-0.169387 3.795419 1.059393 0.286743
-0.243143 2.718033 0.711370 0.233398
-0.253532 2.236575 0.564974 0.234167
-0.443570 2.283822 0.521915 0.640973
-0.141023 2.464908 0.666287 0.305334
-0.092874 0.896866 0.224597 -0.069803
-0.196123 1.020208 0.229990 0.584381
-0.196571 1.672107 0.416595 0.139493
-0.115224 1.046883 0.260565 0.336076
-0.008393 1.613476 0.454532 0.222089
-0.287468 1.978882 0.478776 0.647676
-0.120872 1.044374 0.257944 0.782798
0.124923 1.606918 0.491284 0.728964
-0.194294 1.703144 0.426190 0.400105
-0.326098 0.955724 0.174786 0.885226
-0.128119 2.027714 0.539918 0.694199
-0.292968 1.626863 0.375223 0.658136

