# vtk DataFile Version 2.0
Unstructured Grid Example
ASCII
DATASET UNSTRUCTURED_GRID

POINTS 1089 float
0.011804 -0.182747 0.000000 
0.988196 -0.182747 0.000000 
1.000000 1.000000 0.000000 
0.000000 1.000000 0.000000 
0.500000 -0.099844 0.000000 
0.977816 0.369823 0.000000 
0.500000 1.000000 0.000000 
0.022184 0.369823 0.000000 
0.500000 0.371575 0.000000 
0.262346 -0.152510 0.000000 
0.500000 0.115291 0.000000 
0.246135 0.096686 0.000000 
0.737654 -0.152510 0.000000 
0.753865 0.096686 0.000000 
0.996047 0.084520 0.000000 
0.741797 0.366221 0.000000 
0.959305 0.667279 0.000000 
0.732083 0.669017 0.000000 
0.750000 1.000000 0.000000 
0.500000 0.671389 0.000000 
0.250000 1.000000 0.000000 
0.267917 0.669017 0.000000 
0.040695 0.667279 0.000000 
0.258203 0.366221 0.000000 
0.003953 0.084520 0.000000 
0.137153 -0.173413 0.000000 
0.247006 -0.029463 0.000000 
0.126117 -0.046008 0.000000 
0.500000 0.003094 0.000000 
0.371012 -0.006826 0.000000 
0.378934 -0.114497 0.000000 
0.374513 0.234933 0.000000 
0.371360 0.109534 0.000000 
0.500000 0.238069 0.000000 
0.621066 -0.114497 0.000000 
0.628988 -0.006826 0.000000 
0.873883 -0.046008 0.000000 
0.752994 -0.029463 0.000000 
0.862847 -0.173413 0.000000 
0.628640 0.109534 0.000000 
0.625487 0.234933 0.000000 
0.995570 -0.053028 0.000000 
0.875744 0.086280 0.000000 
0.860471 0.364167 0.000000 
0.869941 0.222710 0.000000 
0.988896 0.225907 0.000000 
0.748946 0.227874 0.000000 
0.621513 0.370106 0.000000 
0.966724 0.516447 0.000000 
0.851126 0.511809 0.000000 
0.850891 0.831260 0.000000 
0.845788 0.667044 0.000000 
0.961639 0.823749 0.000000 
0.735170 0.513063 0.000000 
0.618045 0.515489 0.000000 
0.875000 1.000000 0.000000 
0.736323 0.832964 0.000000 
0.500000 0.833769 0.000000 
0.618810 0.833509 0.000000 
0.625000 1.000000 0.000000 
0.616647 0.670677 0.000000 
0.500000 0.516579 0.000000 
0.375000 1.000000 0.000000 
0.381190 0.833509 0.000000 
0.149109 0.831260 0.000000 
0.263677 0.832964 0.000000 
0.125000 1.000000 0.000000 
0.383353 0.670677 0.000000 
0.381955 0.515489 0.000000 
0.038361 0.823749 0.000000 
0.154212 0.667044 0.000000 
0.139529 0.364167 0.000000 
0.148874 0.511809 0.000000 
0.033276 0.516447 0.000000 
0.264830 0.513063 0.000000 
0.378487 0.370106 0.000000 
0.011104 0.225907 0.000000 
0.130059 0.222710 0.000000 
0.124256 0.086280 0.000000 
0.004430 -0.053028 0.000000 
0.251054 0.227874 0.000000 
0.074159 -0.178568 0.000000 
0.130740 -0.110525 0.000000 
0.069254 -0.115357 0.000000 
0.251757 -0.091425 0.000000 
0.191674 -0.102997 0.000000 
0.200346 -0.165403 0.000000 
0.184593 0.025318 0.000000 
0.186605 -0.039215 0.000000 
0.245531 0.033143 0.000000 
0.500000 -0.049368 0.000000 
0.436324 -0.052573 0.000000 
0.438904 -0.103577 0.000000 
0.434996 0.055875 0.000000 
0.435164 0.000478 0.000000 
0.500000 0.057910 0.000000 
0.320817 -0.131900 0.000000 
0.373355 -0.061709 0.000000 
0.311728 -0.075847 0.000000 
0.438106 0.302952 0.000000 
0.437097 0.237248 0.000000 
0.500000 0.303508 0.000000 
0.308217 0.103430 0.000000 
0.372746 0.171060 0.000000 
0.310026 0.166523 0.000000 
0.500000 0.175331 0.000000 
0.436168 0.174199 0.000000 
0.435417 0.113759 0.000000 
0.308199 -0.017650 0.000000 
0.370627 0.050259 0.000000 
0.307410 0.042098 0.000000 
0.561096 -0.103577 0.000000 
0.563676 -0.052573 0.000000 
0.688272 -0.075847 0.000000 
0.626645 -0.061709 0.000000 
0.679183 -0.131900 0.000000 
0.564836 0.000478 0.000000 
0.565004 0.055875 0.000000 
0.930746 -0.115357 0.000000 
0.869260 -0.110525 0.000000 
0.925841 -0.178568 0.000000 
0.754469 0.033143 0.000000 
0.813395 -0.039215 0.000000 
0.815407 0.025318 0.000000 
0.799654 -0.165403 0.000000 
0.808326 -0.102997 0.000000 
0.748243 -0.091425 0.000000 
0.562903 0.237248 0.000000 
0.561894 0.302952 0.000000 
0.564583 0.113759 0.000000 
0.563832 0.174199 0.000000 
0.689974 0.166523 0.000000 
0.627254 0.171060 0.000000 
0.691783 0.103430 0.000000 
0.691801 -0.017650 0.000000 
0.692590 0.042098 0.000000 
0.629373 0.050259 0.000000 
0.992338 -0.119070 0.000000 
0.934695 -0.050313 0.000000 
0.936095 0.084114 0.000000 
0.936547 0.016277 0.000000 
0.996908 0.015046 0.000000 
0.876001 0.019644 0.000000 
0.815072 0.090646 0.000000 
0.919285 0.365586 0.000000 
0.924725 0.293695 0.000000 
0.983598 0.297519 0.000000 
0.805692 0.293791 0.000000 
0.865427 0.292739 0.000000 
0.801325 0.364637 0.000000 
0.993219 0.154892 0.000000 
0.929670 0.222858 0.000000 
0.933636 0.153002 0.000000 
0.623523 0.301255 0.000000 
0.560851 0.371364 0.000000 
0.751867 0.161499 0.000000 
0.687537 0.231577 0.000000 
0.681855 0.368237 0.000000 
0.684749 0.298767 0.000000 
0.745478 0.296051 0.000000 
0.873550 0.153934 0.000000 
0.809721 0.224644 0.000000 
0.813001 0.157004 0.000000 
0.972070 0.442655 0.000000 
0.913871 0.438627 0.000000 
0.904846 0.588884 0.000000 
0.908895 0.512995 0.000000 
0.962268 0.591280 0.000000 
0.855564 0.437133 0.000000 
0.797050 0.437340 0.000000 
0.917481 0.914198 0.000000 
0.906444 0.828625 0.000000 
0.970766 0.905970 0.000000 
0.789122 0.667998 0.000000 
0.846435 0.747996 0.000000 
0.790075 0.749283 0.000000 
0.958660 0.744632 0.000000 
0.902381 0.746276 0.000000 
0.902364 0.666533 0.000000 
0.619608 0.441515 0.000000 
0.559856 0.442488 0.000000 
0.738244 0.438521 0.000000 
0.679095 0.440073 0.000000 
0.675152 0.590998 0.000000 
0.676765 0.514332 0.000000 
0.732964 0.589906 0.000000 
0.847653 0.588378 0.000000 
0.790429 0.588910 0.000000 
0.793263 0.512053 0.000000 
0.937500 1.000000 0.000000 
0.860527 0.916036 0.000000 
0.742100 0.916534 0.000000 
0.801745 0.916441 0.000000 
0.812500 1.000000 0.000000 
0.794112 0.832413 0.000000 
0.733045 0.750195 0.000000 
0.500000 0.916642 0.000000 
0.560789 0.916594 0.000000 
0.562500 1.000000 0.000000 
0.558690 0.751682 0.000000 
0.559485 0.833661 0.000000 
0.500000 0.751848 0.000000 
0.687500 1.000000 0.000000 
0.621470 0.916572 0.000000 
0.681948 0.916557 0.000000 
0.559081 0.516282 0.000000 
0.500000 0.442801 0.000000 
0.674577 0.669940 0.000000 
0.616992 0.591944 0.000000 
0.500000 0.592849 0.000000 
0.558565 0.592588 0.000000 
0.558403 0.671171 0.000000 
0.677816 0.833289 0.000000 
0.617206 0.751356 0.000000 
0.675378 0.750866 0.000000 
0.437500 1.000000 0.000000 
0.439211 0.916594 0.000000 
0.318052 0.916557 0.000000 
0.378530 0.916572 0.000000 
0.312500 1.000000 0.000000 
0.440515 0.833661 0.000000 
0.441310 0.751682 0.000000 
0.082519 0.914198 0.000000 
0.139473 0.916036 0.000000 
0.062500 1.000000 0.000000 
0.266955 0.750195 0.000000 
0.205888 0.832413 0.000000 
0.209925 0.749283 0.000000 
0.187500 1.000000 0.000000 
0.198255 0.916441 0.000000 
0.257900 0.916534 0.000000 
0.440919 0.516282 0.000000 
0.440144 0.442488 0.000000 
0.441597 0.671171 0.000000 
0.441435 0.592588 0.000000 
0.324848 0.590998 0.000000 
0.383008 0.591944 0.000000 
0.325423 0.669940 0.000000 
0.322184 0.833289 0.000000 
0.324622 0.750866 0.000000 
0.382794 0.751356 0.000000 
0.029234 0.905970 0.000000 
0.093556 0.828625 0.000000 
0.097636 0.666533 0.000000 
0.097619 0.746276 0.000000 
0.041340 0.744632 0.000000 
0.153565 0.747996 0.000000 
0.210878 0.667998 0.000000 
0.080715 0.365586 0.000000 
0.086129 0.438627 0.000000 
0.027930 0.442655 0.000000 
0.202950 0.437340 0.000000 
0.144436 0.437133 0.000000 
0.198675 0.364637 0.000000 
0.037732 0.591280 0.000000 
0.091105 0.512995 0.000000 
0.095154 0.588884 0.000000 
0.380392 0.441515 0.000000 
0.439149 0.371364 0.000000 
0.267036 0.589906 0.000000 
0.323235 0.514332 0.000000 
0.318145 0.368237 0.000000 
0.320905 0.440073 0.000000 
0.261756 0.438521 0.000000 
0.152347 0.588378 0.000000 
0.206737 0.512053 0.000000 
0.209571 0.588910 0.000000 
0.016402 0.297519 0.000000 
0.075275 0.293695 0.000000 
0.066364 0.153002 0.000000 
0.070330 0.222858 0.000000 
0.006781 0.154892 0.000000 
0.134573 0.292739 0.000000 
0.194308 0.293791 0.000000 
0.065305 -0.050313 0.000000 
0.007662 -0.119070 0.000000 
0.184928 0.090646 0.000000 
0.123999 0.019644 0.000000 
0.003092 0.015046 0.000000 
0.063453 0.016277 0.000000 
0.063905 0.084114 0.000000 
0.376477 0.301255 0.000000 
0.254522 0.296051 0.000000 
0.315251 0.298767 0.000000 
0.312463 0.231577 0.000000 
0.248133 0.161499 0.000000 
0.126450 0.153934 0.000000 
0.186999 0.157004 0.000000 
0.190279 0.224644 0.000000 
0.042913 -0.180636 0.000000 
0.071711 -0.147199 0.000000 
0.040670 -0.149196 0.000000 
0.133828 -0.142219 0.000000 
0.102778 -0.144952 0.000000 
0.105584 -0.176239 0.000000 
0.097641 -0.080990 0.000000 
0.100039 -0.113184 0.000000 
0.128130 -0.078429 0.000000 
0.256059 -0.122156 0.000000 
0.226022 -0.128999 0.000000 
0.231637 -0.159735 0.000000 
0.218810 -0.066325 0.000000 
0.221820 -0.097786 0.000000 
0.248861 -0.060514 0.000000 
0.168785 -0.169876 0.000000 
0.195561 -0.134459 0.000000 
0.164790 -0.138791 0.000000 
0.214980 0.061132 0.000000 
0.214985 0.028999 0.000000 
0.245623 0.064776 0.000000 
0.156400 -0.042968 0.000000 
0.185263 -0.007037 0.000000 
0.155012 -0.010495 0.000000 
0.245952 0.001744 0.000000 
0.215548 -0.002935 0.000000 
0.216777 -0.034703 0.000000 
0.161302 -0.107188 0.000000 
0.188712 -0.071214 0.000000 
0.158491 -0.075215 0.000000 
0.500000 -0.074825 0.000000 
0.468659 -0.075725 0.000000 
0.469399 -0.100781 0.000000 
0.467751 -0.024177 0.000000 
0.468116 -0.050206 0.000000 
0.500000 -0.023412 0.000000 
0.408704 -0.108179 0.000000 
0.437418 -0.078305 0.000000 
0.406390 -0.082532 0.000000 
0.467537 0.085809 0.000000 
0.467456 0.057376 0.000000 
0.500000 0.086272 0.000000 
0.402961 -0.002635 0.000000 
0.434985 0.027872 0.000000 
0.402688 0.025123 0.000000 
0.500000 0.030191 0.000000 
0.467448 0.029582 0.000000 
0.467538 0.002406 0.000000 
0.292035 -0.142991 0.000000 
0.315252 -0.104238 0.000000 
0.285679 -0.113682 0.000000 
0.375659 -0.088333 0.000000 
0.345275 -0.095614 0.000000 
0.349658 -0.122428 0.000000 
0.340473 -0.040352 0.000000 
0.342331 -0.068267 0.000000 
0.371866 -0.034545 0.000000 
0.435590 -0.026327 0.000000 
0.403601 -0.029814 0.000000 
0.404710 -0.056433 0.000000 
0.469281 0.337162 0.000000 
[...]
POINT_DATA 1089

SCALARS u_h float 2
LOOKUP_TABLE default
0.011804 -0.182747 
-0.011804 -0.182747 
0.000000 0.000000 
0.000000 0.000000 
0.000000 -0.099844 
-0.022184 -0.130177 
0.000000 0.000000 
0.022184 -0.130177 
0.000000 -0.128425 
0.012346 -0.152510 
0.000000 -0.134709 
-0.003865 -0.153314 
-0.012346 -0.152510 
0.003865 -0.153314 
-0.003953 -0.165480 
-0.008203 -0.133779 
-0.040695 -0.082721 
-0.017917 -0.080983 
0.000000 0.000000 
0.000000 -0.078611 
0.000000 0.000000 
0.017917 -0.080983 
0.040695 -0.082721 
0.008203 -0.133779 
0.003953 -0.165480 
0.012153 -0.173413 
-0.002994 -0.154463 
0.001117 -0.171008 
0.000000 -0.121906 
-0.003988 -0.131826 
0.003934 -0.114497 
-0.000487 -0.140067 
-0.003640 -0.140466 
0.000000 -0.136931 
-0.003934 -0.114497 
0.003988 -0.131826 
-0.001117 -0.171008 
0.002994 -0.154463 
-0.012153 -0.173413 
0.003640 -0.140466 
0.000487 -0.140067 
-0.004430 -0.178028 
0.000744 -0.163720 
-0.014529 -0.135833 
-0.005059 -0.152290 
-0.011104 -0.149093 
-0.001054 -0.147126 
-0.003487 -0.129894 
-0.033276 -0.108553 
-0.023874 -0.113191 
-0.024109 -0.043740 
-0.029212 -0.082956 
-0.038361 -0.051251 
-0.014830 -0.111937 
-0.006955 -0.109511 
0.000000 0.000000 
-0.013677 -0.042036 
0.000000 -0.041231 
-0.006190 -0.041491 
0.000000 0.000000 
-0.008353 -0.079323 
0.000000 -0.108421 
0.000000 0.000000 
0.006190 -0.041491 
0.024109 -0.043740 
0.013677 -0.042036 
0.000000 0.000000 
0.008353 -0.079323 
0.006955 -0.109511 
0.038361 -0.051251 
0.029212 -0.082956 
0.014529 -0.135833 
0.023874 -0.113191 
0.033276 -0.108553 
0.014830 -0.111937 
0.003487 -0.129894 
0.011104 -0.149093 
0.005059 -0.152290 
-0.000744 -0.163720 
0.004430 -0.178028 
0.001054 -0.147126 
0.011659 -0.178568 
0.005740 -0.173025 
0.006754 -0.177857 
0.001757 -0.153925 
0.004174 -0.165497 
0.012846 -0.165403 
-0.002907 -0.162182 
-0.000895 -0.164215 
-0.004469 -0.154357 
0.000000 -0.111868 
-0.001176 -0.115073 
0.001404 -0.103577 
-0.002504 -0.131625 
-0.002336 -0.124522 
0.000000 -0.129590 
0.008317 -0.131900 
-0.001645 -0.124209 
-0.000772 -0.138347 
0.000606 -0.134548 
-0.000403 -0.137752 
0.000000 -0.133992 
-0.004283 -0.146570 
-0.002254 -0.141440 
-0.002474 -0.145977 
0.000000 -0.137169 
-0.001332 -0.138301 
-0.002083 -0.136241 
-0.004301 -0.142650 
-0.004373 -0.137241 
-0.005090 -0.145402 
-0.001404 -0.103577 
0.001176 -0.115073 
0.000772 -0.138347 
0.001645 -0.124209 
-0.008317 -0.131900 
0.002336 -0.124522 
0.002504 -0.131625 
-0.006754 -0.177857 
-0.005740 -0.173025 
-0.011659 -0.178568 
0.004469 -0.154357 
0.000895 -0.164215 
0.002907 -0.162182 
-0.012846 -0.165403 
-0.004174 -0.165497 
-0.001757 -0.153925 
0.000403 -0.137752 
-0.000606 -0.134548 
0.002083 -0.136241 
0.001332 -0.138301 
0.002474 -0.145977 
0.002254 -0.141440 
0.004283 -0.146570 
0.004301 -0.142650 
0.005090 -0.145402 
0.004373 -0.137241 
-0.007662 -0.181570 
-0.002805 -0.175313 
-0.001405 -0.165886 
-0.000953 -0.171223 
-0.003092 -0.172454 
0.001001 -0.167856 
0.002572 -0.159354 
-0.018215 -0.134414 
-0.012775 -0.143805 
-0.016402 -0.139981 
-0.006808 -0.143709 
-0.009573 -0.144761 
-0.011175 -0.135363 
-0.006781 -0.157608 
-0.007830 -0.152142 
-0.003864 -0.159498 
-0.001477 -0.136245 
-0.001649 -0.128636 
0.001867 -0.151001 
0.000037 -0.143423 
-0.005645 -0.131763 
-0.002751 -0.138733 
-0.004522 -0.141449 
-0.001450 -0.158566 
-0.002779 -0.150356 
0.000501 -0.155496 
-0.027930 -0.119845 
-0.023629 -0.123873 
-0.032654 -0.098616 
-0.028605 -0.112005 
-0.037732 -0.096220 
-0.019436 -0.125367 
-0.015450 -0.125160 
-0.020019 -0.023302 
-0.031056 -0.046375 
-0.029234 -0.031530 
-0.023378 -0.082002 
-0.028565 -0.064504 
-0.022425 -0.063217 
-0.041340 -0.067868 
-0.035119 -0.066224 
-0.035136 -0.083467 
-0.005392 -0.120985 
-0.002644 -0.120012 
-0.011756 -0.123979 
-0.008405 -0.122427 
-0.012348 -0.096502 
-0.010735 -0.110668 
-0.017036 -0.097594 
-0.027347 -0.099122 
-0.022071 -0.098590 
-0.019237 -0.112947 
0.000000 0.000000 
-0.014473 -0.021464 
-0.007900 -0.020966 
-0.010755 -0.021059 
0.000000 0.000000 
-0.018388 -0.042587 
-0.016955 -0.062305 
0.000000 -0.020858 
-0.001711 -0.020906 
0.000000 0.000000 
-0.003810 -0.060818 
-0.003015 -0.041339 
0.000000 -0.060652 
0.000000 0.000000 
-0.003530 -0.020928 
-0.005552 -0.020943 
-0.003419 -0.108718 
0.000000 -0.119699 
-0.012923 -0.080060 
-0.008008 -0.095556 
0.000000 -0.094651 
-0.003935 -0.094912 
-0.004097 -0.078829 
-0.009684 -0.041711 
-0.007794 -0.061144 
-0.012122 -0.061634 
0.000000 0.000000 
0.001711 -0.020906 
0.005552 -0.020943 
0.003530 -0.020928 
0.000000 0.000000 
0.003015 -0.041339 
0.003810 -0.060818 
0.020019 -0.023302 
0.014473 -0.021464 
0.000000 0.000000 
0.016955 -0.062305 
0.018388 -0.042587 
0.022425 -0.063217 
0.000000 0.000000 
0.010755 -0.021059 
0.007900 -0.020966 
0.003419 -0.108718 
0.002644 -0.120012 
0.004097 -0.078829 
0.003935 -0.094912 
0.012348 -0.096502 
0.008008 -0.095556 
0.012923 -0.080060 
0.009684 -0.041711 
0.012122 -0.061634 
0.007794 -0.061144 
0.029234 -0.031530 
0.031056 -0.046375 
0.035136 -0.083467 
0.035119 -0.066224 
0.041340 -0.067868 
0.028565 -0.064504 
0.023378 -0.082002 
0.018215 -0.134414 
0.023629 -0.123873 
0.027930 -0.119845 
0.015450 -0.125160 
0.019436 -0.125367 
0.011175 -0.135363 
0.037732 -0.096220 
0.028605 -0.112005 
0.032654 -0.098616 
0.005392 -0.120985 
0.001649 -0.128636 
0.017036 -0.097594 
0.010735 -0.110668 
0.005645 -0.131763 
0.008405 -0.122427 
0.011756 -0.123979 
0.027347 -0.099122 
0.019237 -0.112947 
0.022071 -0.098590 
0.016402 -0.139981 
0.012775 -0.143805 
0.003864 -0.159498 
0.007830 -0.152142 
0.006781 -0.157608 
0.009573 -0.144761 
0.006808 -0.143709 
0.002805 -0.175313 
0.007662 -0.181570 
-0.002572 -0.159354 
-0.001001 -0.167856 
0.003092 -0.172454 
0.000953 -0.171223 
0.001405 -0.165886 
0.001477 -0.136245 
0.004522 -0.141449 
0.002751 -0.138733 
-0.000037 -0.143423 
-0.001867 -0.151001 
0.001450 -0.158566 
-0.000501 -0.155496 
0.002779 -0.150356 
0.011663 -0.180636 
0.009211 -0.178449 
0.009420 -0.180446 
0.008828 -0.173469 
0.009028 -0.176202 
0.011834 -0.176239 
0.003891 -0.174740 
0.006289 -0.175684 
0.003130 -0.172179 
0.006059 -0.153406 
0.007272 -0.160249 
0.012887 -0.159735 
0.000060 -0.160075 
0.003070 -0.160286 
-0.001139 -0.154264 
0.012535 -0.169876 
0.008061 -0.165709 
0.008540 -0.170041 
-0.003770 -0.157618 
-0.003765 -0.158501 
-0.004377 -0.153974 
0.000150 -0.167968 
-0.002237 -0.163287 
-0.001238 -0.166745 
-0.004048 -0.154506 
-0.003202 -0.159185 
-0.001973 -0.159703 
0.005052 -0.169688 
0.001212 -0.164964 
0.002241 -0.168965 
0.000000 -0.106075 
-0.000091 -0.106975 
0.000649 -0.100781 
-0.000999 -0.117927 
-0.000634 -0.112706 
0.000000 -0.117162 
0.002454 -0.108179 
-0.000082 -0.109555 
0.000140 -0.113782 
-0.001213 -0.132941 
-0.001294 -0.130124 
0.000000 -0.132478 
-0.003289 -0.127635 
-0.002515 -0.128378 
-0.003562 -0.131127 
0.000000 -0.126059 
-0.001302 -0.126668 
-0.001212 -0.122594 
0.010785 -0.142991 
0.002752 -0.135488 
0.004429 -0.144932 
0.000659 -0.119583 
0.001525 -0.126864 
0.005908 -0.122428 
-0.003277 -0.134102 
-0.001419 -0.130767 
-0.003134 -0.128295 
-0.001910 -0.120077 
-0.002649 -0.123564 
-0.001540 -0.118933 
0.000531 -0.131588 
0.000278 -0.134117 
0.000000 -0.131526 
-0.000501 -0.138744 
0.000096 -0.136485 
0.000239 -0.137332 
0.000000 -0.135798 
0.000025 -0.135966 
-0.000225 -0.137138 
-0.004202 -0.149950 
-0.003477 -0.146506 
-0.003358 -0.149425 
-0.003009 -0.141240 
-0.003358 -0.143730 
-0.004092 -0.143353 
-0.001448 -0.142899 
-0.002464 -0.143585 
-0.001405 -0.141053 
0.000000 -0.136275 
-0.000901 -0.136617 
-0.001077 -0.135108 
-0.000467 -0.137636 
-0.000694 -0.137461 
0.000000 -0.137388 
-0.002956 -0.138056 
-0.001737 -0.137594 
-0.002456 -0.139160 
-0.001208 -0.139513 
-0.001866 -0.139649 
-0.000883 -0.138355 
0.000373 -0.146424 
-0.004348 -0.136918 
-0.002990 -0.140704 
-0.002229 -0.147655 
-0.003821 -0.148658 
-0.002347 -0.134249 
-0.004111 -0.139130 
-0.003334 -0.136344 
-0.003554 -0.134033 
-0.004361 -0.134806 
-0.004751 -0.150101 
-0.004665 -0.149420 
-0.004935 -0.149912 
-0.004841 -0.146194 
-0.004625 -0.142470 
-0.004841 -0.139247 
-0.004899 -0.141098 
-0.004948 -0.144216 
-0.000649 -0.100781 
0.000091 -0.106975 
-0.000140 -0.113782 
0.000082 -0.109555 
-0.002454 -0.108179 
0.000634 -0.112706 
0.000999 -0.117927 
-0.004429 -0.144932 
-0.002752 -0.135488 
-0.010785 -0.142991 
0.003134 -0.128295 
0.001419 -0.130767 
0.003277 -0.134102 
-0.005908 -0.122428 
-0.001525 -0.126864 
-0.000659 -0.119583 
0.001294 -0.130124 
0.001213 -0.132941 
0.001212 -0.122594 
0.001302 -0.126668 
0.003562 -0.131127 
0.002515 -0.128378 
0.003289 -0.127635 
0.001540 -0.118933 
0.002649 -0.123564 
0.001910 -0.120077 
-0.009420 -0.180446 
-0.009211 -0.178449 
-0.011663 -0.180636 
-0.003130 -0.172179 
-0.006289 -0.175684 
-0.003891 -0.174740 
-0.011834 -0.176239 
-0.009028 -0.176202 
-0.008828 -0.173469 
0.004377 -0.153974 
0.003765 -0.158501 
0.003770 -0.157618 
0.001973 -0.159703 
0.003202 -0.159185 
0.004048 -0.154506 
0.001238 -0.166745 
0.002237 -0.163287 
-0.000150 -0.167968 
-0.012887 -0.159735 
-0.007272 -0.160249 
-0.006059 -0.153406 
-0.008540 -0.170041 
-0.008061 -0.165709 
-0.012535 -0.169876 
0.001139 -0.154264 
-0.003070 -0.160286 
-0.000060 -0.160075 
-0.002241 -0.168965 
-0.001212 -0.164964 
-0.005052 -0.169688 
-0.000278 -0.134117 
-0.000531 -0.131588 
0.000225 -0.137138 
-0.000025 -0.135966 
-0.000239 -0.137332 
-0.000096 -0.136485 
0.000501 -0.138744 
0.001077 -0.135108 
0.000901 -0.136617 
0.002456 -0.139160 
0.001737 -0.137594 
0.002956 -0.138056 
0.000694 -0.137461 
0.000467 -0.137636 
0.003358 -0.149425 
0.003477 -0.146506 
0.004202 -0.149950 
0.001405 -0.141053 
0.002464 -0.143585 
0.001448 -0.142899 
0.004092 -0.143353 
0.003358 -0.143730 
0.003009 -0.141240 
0.000883 -0.138355 
0.001866 -0.139649 
0.001208 -0.139513 
-0.000373 -0.146424 
0.003821 -0.148658 
0.002229 -0.147655 
0.002990 -0.140704 
0.004348 -0.136918 
0.004751 -0.150101 
0.004625 -0.142470 
0.004841 -0.146194 
0.004935 -0.149912 
0.004665 -0.149420 
0.002347 -0.134249 
0.004361 -0.134806 
0.003554 -0.134033 
0.003334 -0.136344 
0.004111 -0.139130 
0.004948 -0.144216 
0.004899 -0.141098 
0.004841 -0.139247 
-0.009690 -0.182447 
-0.007191 -0.179746 
-0.003592 -0.176807 
-0.005192 -0.178523 
-0.005858 -0.180089 
-0.004561 -0.176799 
-0.001995 -0.173420 
-0.002611 -0.166032 
-0.002017 -0.169208 
-0.003254 -0.169105 
0.000144 -0.167592 
-0.000902 -0.168695 
-0.000293 -0.165100 
-0.003489 -0.175456 
-0.001972 -0.172095 
-0.002500 -0.174646 
0.002993 -0.160881 
0.003307 -0.156495 
0.000258 -0.169559 
0.001969 -0.165312 
0.001706 -0.161787 
0.002103 -0.163664 
0.001146 -0.165911 
-0.001587 -0.173441 
0.000028 -0.169819 
-0.000681 -0.171769 
-0.020167 -0.132719 
-0.017315 -0.137625 
-0.019262 -0.135175 
-0.013696 -0.140161 
-0.015460 -0.139247 
-0.016334 -0.135412 
-0.013663 -0.144615 
-0.014534 -0.142308 
-0.011876 -0.146775 
-0.007608 -0.138916 
-0.008974 -0.139760 
-0.009639 -0.134665 
-0.007233 -0.148691 
-0.008134 -0.144435 
-0.005918 -0.148168 
-0.012808 -0.135783 
-0.010448 -0.140314 
-0.012023 -0.140481 
-0.005148 -0.161635 
-0.005250 -0.158954 
-0.003709 -0.162606 
-0.009401 -0.151036 
-0.007170 -0.155095 
-0.008788 -0.153424 
-0.004341 -0.156068 
-0.005692 -0.155940 
-0.006384 -0.152526 
-0.011121 -0.144586 
-0.008665 -0.148703 
-0.010212 -0.148100 
-0.001124 -0.131932 
-0.000811 -0.128357 
-0.000480 -0.138468 
-0.001000 -0.135269 
-0.002535 -0.129164 
-0.001769 -0.132547 
-0.002486 -0.133389 
0.003008 -0.152336 
0.002274 -0.148492 
-0.000426 -0.145281 
0.000998 -0.147120 
0.000497 -0.149275 
0.001315 -0.144957 
0.000338 -0.141654 
-0.006872 -0.132786 
-0.005220 -0.136721 
-0.006356 -0.137874 
-0.003291 -0.134406 
-0.004200 -0.135540 
-0.004520 -0.130778 
-0.002741 -0.144526 
-0.003571 -0.140103 
-0.001962 -0.142950 
-0.000838 -0.139833 
-0.001328 -0.141355 
-0.002056 -0.137421 
-0.002413 -0.162816 
-0.003110 -0.155577 
-0.002601 -0.159340 
-0.001229 -0.162349 
-0.000143 -0.161276 
-0.005602 -0.142682 
-0.001841 -0.148853 
-0.003664 -0.145987 
-0.004726 -0.147234 
-0.003854 -0.151535 
0.002451 -0.155094 
0.000845 -0.159659 
0.001719 -0.157570 
0.001269 -0.153376 
-0.000180 -0.151306 
-0.001999 -0.154557 
-0.001018 -0.153101 
-0.000411 -0.157257 
-0.025078 -0.125128 
-0.022997 -0.127603 
-0.028444 -0.116575 
-0.025773 -0.122229 
-0.030682 -0.114323 
-0.020951 -0.129298 
-0.018953 -0.130327 
-0.036852 -0.090725 
-0.035236 -0.097720 
-0.039445 -0.089626 
-0.026238 -0.112825 
-0.030780 -0.105514 
-0.028280 -0.106164 
-0.035649 -0.102523 
-0.033244 -0.104343 
-0.030956 -0.110620 
-0.013347 -0.130504 
-0.011637 -0.129917 
-0.017014 -0.130803 
-0.015142 -0.130829 
-0.019561 -0.119559 
-0.017411 -0.125428 
-0.021743 -0.119504 
-0.026200 -0.118116 
-0.023961 -0.119056 
-0.021513 -0.124883 
-0.013827 -0.012624 
-0.024296 -0.026221 
-0.020485 -0.018950 
-0.027440 -0.044801 
-0.026681 -0.035262 
-0.023063 -0.033599 
-0.034822 -0.041957 
-0.030741 -0.037992 
-0.034795 -0.048544 
-0.020591 -0.081488 
-0.023236 -0.072873 
-0.020398 -0.072354 
-0.029274 -0.074025 
-0.026203 -0.073434 
-0.026261 -0.082504 
-0.023761 -0.053648 
-0.025417 -0.063804 
-0.026909 -0.054394 
-0.041373 -0.075481 
-0.038538 -0.075480 
-0.037992 -0.083326 
-0.037183 -0.058192 
-0.038336 -0.067129 
-0.040416 -0.059824 
-0.032189 -0.083305 
-0.035516 -0.075134 
-0.032400 -0.074613 
-0.030258 -0.055389 
-0.031825 -0.065320 
-0.033730 -0.056666 
-0.002175 -0.124663 
-0.001096 -0.124414 
-0.004472 -0.125761 
-0.003294 -0.125124 
-0.004619 -0.115063 
-0.003992 -0.120423 
-0.006226 -0.115566 
-0.010017 -0.129153 
-0.008492 -0.128290 
-0.011467 -0.117559 
-0.010037 -0.123217 
-0.013376 -0.118244 
-0.007062 -0.127396 
-0.005725 -0.126535 
-0.015179 -0.089045 
-0.014647 -0.097042 
-0.017674 -0.089564 
-0.008809 -0.110057 
-0.011651 -0.103881 
-0.009566 -0.103326 
-0.016069 -0.105054 
-0.013817 -0.104468 
-0.012742 -0.111309 
-0.006859 -0.121667 
-0.009641 -0.116852 
-0.007896 -0.116174 
-0.034140 -0.091279 
-0.028529 -0.091314 
-0.031350 -0.091436 
-0.030013 -0.099044 
-0.025767 -0.106406 
-0.020270 -0.090085 
-0.018401 -0.105596 
-0.019514 -0.098123 
-0.022958 -0.090577 
-0.025720 -0.091004 
-0.013562 -0.124651 
-0.021534 -0.113202 
-0.017432 -0.119314 
-0.015367 -0.118851 
-0.016998 -0.112503 
-0.024690 -0.098944 
-0.020806 -0.106044 
-0.023268 -0.106337 
0.000000 0.000000 
-0.010898 -0.011134 
-0.007702 -0.010465 
-0.009059 -0.010646 
0.000000 0.000000 
-0.016902 -0.022039 
-0.019986 -0.032674 
-0.004166 -0.010421 
-0.004884 -0.010403 
0.000000 0.000000 
-0.012957 -0.031665 
-0.009248 -0.020996 
-0.011093 -0.031543 
0.000000 0.000000 
-0.005689 -0.010393 
-0.006611 -0.010404 
-0.019604 -0.062724 
-0.017700 -0.071880 
-0.021101 -0.043047 
-0.020839 -0.053090 
-0.015627 -0.052326 
-0.018134 -0.052663 
-0.015926 -0.042269 
-0.012470 -0.021191 
-0.015021 -0.031851 
-0.017340 -0.032154 
0.000000 -0.010466 
-0.000442 -0.010482 
0.000000 0.000000 
-0.001202 -0.031173 
-0.000848 -0.020888 
0.000000 -0.031132 
0.000000 0.000000 
-0.000896 -0.010487 
-0.001364 -0.010486 
-0.001997 -0.069914 
-0.001894 -0.060716 
0.000000 -0.069845 
-0.004572 -0.041408 
-0.003478 -0.051230 
-0.005270 -0.051335 
0.000000 -0.051093 
-0.001728 -0.051150 
-0.001497 -0.041281 
0.000000 0.000000 
-0.002922 -0.010456 
-0.003517 -0.010440 
-0.001854 -0.010480 
-0.002370 -0.010470 
0.000000 0.000000 
-0.006360 -0.031334 
-0.004509 -0.020936 
-0.004985 -0.031287 
-0.002423 -0.031209 
-0.003678 -0.031246 
-0.002602 -0.020919 
-0.001322 -0.119770 
0.000000 -0.124377 
-0.005164 -0.109058 
-0.003058 -0.114690 
0.000000 -0.114380 
-0.001525 -0.114461 
-0.001704 -0.108504 
-0.015362 -0.080503 
-0.012787 -0.088551 
-0.008282 -0.087707 
-0.010491 -0.088100 
-0.010591 -0.079664 
-0.010138 -0.095999 
-0.007557 -0.102834 
0.000000 -0.086896 
-0.002024 -0.086973 
-0.002039 -0.078685 
-0.001850 -0.101919 
-0.001959 -0.094731 
0.000000 -0.101837 
-0.006195 -0.079043 
-0.004066 -0.087136 
-0.006146 -0.087383 
-0.005612 -0.102425 
-0.005945 -0.095190 
-0.003715 -0.102117 
-0.006676 -0.020951 
-0.007887 -0.041591 
-0.007822 -0.031388 
-0.009391 -0.031455 
-0.011606 -0.041856 
-0.004014 -0.070038 
-0.008198 -0.070450 
-0.006074 -0.070217 
-0.005770 -0.060961 
-0.007127 -0.051468 
-0.015141 -0.071452 
-0.013297 -0.052051 
-0.014466 -0.061945 
-0.012714 -0.071070 
-0.010405 -0.070735 
-0.009069 -0.051629 
-0.009905 -0.061368 
-0.011118 -0.051822 
0.000000 0.000000 
0.000442 -0.010482 
0.001364 -0.010486 
0.000896 -0.010487 
0.000000 0.000000 
0.000848 -0.020888 
0.001202 -0.031173 
0.003517 -0.010440 
0.002922 -0.010456 
0.000000 0.000000 
0.004985 -0.031287 
0.004509 -0.020936 
0.006360 -0.031334 
0.000000 0.000000 
0.002370 -0.010470 
0.001854 -0.010480 
0.001894 -0.060716 
0.001997 -0.069914 
0.001497 -0.041281 
0.001728 -0.051150 
0.005270 -0.051335 
0.003478 -0.051230 
0.004572 -0.041408 
0.002602 -0.020919 
0.003678 -0.031246 
0.002423 -0.031209 
0.013827 -0.012624 
0.010898 -0.011134 
0.000000 0.000000 
0.019986 -0.032674 
0.016902 -0.022039 
0.023063 -0.033599 
0.000000 0.000000 
0.009059 -0.010646 
0.007702 -0.010465 
0.017700 -0.071880 
0.019604 -0.062724 
0.020398 -0.072354 
0.015926 -0.042269 
0.018134 -0.052663 
0.015627 -0.052326 
0.023761 -0.053648 
0.020839 -0.053090 
0.021101 -0.043047 
0.000000 0.000000 
0.004884 -0.010403 
0.004166 -0.010421 
0.006611 -0.010404 
0.005689 -0.010393 
0.000000 0.000000 
0.011093 -0.031543 
0.009248 -0.020996 
0.012957 -0.031665 
0.017340 -0.032154 
0.015021 -0.031851 
0.012470 -0.021191 
0.001322 -0.119770 
0.001096 -0.124414 
0.001704 -0.108504 
0.001525 -0.114461 
0.004619 -0.115063 
0.003058 -0.114690 
0.005164 -0.109058 
0.002039 -0.078685 
0.002024 -0.086973 
0.006146 -0.087383 
0.004066 -0.087136 
0.006195 -0.079043 
0.001959 -0.094731 
0.001850 -0.101919 
0.015179 -0.089045 
0.012787 -0.088551 
0.015362 -0.080503 
0.007557 -0.102834 
0.010138 -0.095999 
0.009566 -0.103326 
0.010591 -0.079664 
0.010491 -0.088100 
0.008282 -0.087707 
0.003715 -0.102117 
0.005945 -0.095190 
0.005612 -0.102425 
0.006676 -0.020951 
0.011606 -0.041856 
0.009391 -0.031455 
0.007822 -0.031388 
0.007887 -0.041591 
0.015141 -0.071452 
0.010405 -0.070735 
0.012714 -0.071070 
0.014466 -0.061945 
0.013297 -0.052051 
0.004014 -0.070038 
0.007127 -0.051468 
0.005770 -0.060961 
0.006074 -0.070217 
0.008198 -0.070450 
0.011118 -0.051822 
0.009905 -0.061368 
0.009069 -0.051629 
0.020485 -0.018950 
0.024296 -0.026221 
0.034795 -0.048544 
0.030741 -0.037992 
0.034822 -0.041957 
0.026681 -0.035262 
0.027440 -0.044801 
0.037992 -0.083326 
0.038538 -0.075480 
0.041373 -0.075481 
0.032400 -0.074613 
0.035516 -0.075134 
0.032189 -0.083305 
0.040416 -0.059824 
0.038336 -0.067129 
0.037183 -0.058192 
0.023236 -0.072873 
0.020591 -0.081488 
0.026909 -0.054394 
0.025417 -0.063804 
0.026261 -0.082504 
0.026203 -0.073434 
0.029274 -0.074025 
0.033730 -0.056666 
0.031825 -0.065320 
0.030258 -0.055389 
0.020167 -0.132719 
0.022997 -0.127603 
0.025078 -0.125128 
0.018953 -0.130327 
0.020951 -0.129298 
0.016334 -0.135412 
0.030682 -0.114323 
0.025773 -0.122229 
0.028444 -0.116575 
0.011637 -0.129917 
0.013347 -0.130504 
0.009639 -0.134665 
0.021743 -0.119504 
0.017411 -0.125428 
0.019561 -0.119559 
0.012808 -0.135783 
0.015142 -0.130829 
0.017014 -0.130803 
0.039445 -0.089626 
0.035236 -0.097720 
0.036852 -0.090725 
0.030956 -0.110620 
0.033244 -0.104343 
0.035649 -0.102523 
0.028280 -0.106164 
0.030780 -0.105514 
0.026238 -0.112825 
0.021513 -0.124883 
0.023961 -0.119056 
0.026200 -0.118116 
0.002175 -0.124663 
0.000811 -0.128357 
0.006226 -0.115566 
0.003992 -0.120423 
0.002535 -0.129164 
0.003294 -0.125124 
0.004472 -0.125761 
0.017674 -0.089564 
0.014647 -0.097042 
0.012742 -0.111309 
0.013817 -0.104468 
0.016069 -0.105054 
0.011651 -0.103881 
0.008809 -0.110057 
0.006872 -0.132786 
0.008492 -0.128290 
0.010017 -0.129153 
0.005725 -0.126535 
0.007062 -0.127396 
0.004520 -0.130778 
0.013376 -0.118244 