# vtk DataFile Version 2.0
Unstructured Grid Example
ASCII
DATASET UNSTRUCTURED_GRID

POINTS 1089 float
0.010899 -0.153426 0.000000 
0.989101 -0.153426 0.000000 
1.000000 1.000000 0.000000 
0.000000 1.000000 0.000000 
0.500000 -0.100000 0.000000 
0.967180 0.390297 0.000000 
0.500000 1.000000 0.000000 
0.032820 0.390297 0.000000 
0.500000 0.390417 0.000000 
0.260691 -0.158381 0.000000 
0.500000 0.109096 0.000000 
0.261088 0.105087 0.000000 
0.739309 -0.158381 0.000000 
0.738912 0.105087 0.000000 
0.978410 0.109331 0.000000 
0.734200 0.388838 0.000000 
0.964813 0.684197 0.000000 
0.736283 0.689466 0.000000 
0.750000 1.000000 0.000000 
0.500000 0.690228 0.000000 
0.250000 1.000000 0.000000 
0.263717 0.689466 0.000000 
0.035187 0.684197 0.000000 
0.265800 0.388838 0.000000 
0.021590 0.109331 0.000000 
0.135560 -0.157114 0.000000 
0.259839 -0.029704 0.000000 
0.138158 -0.028767 0.000000 
0.500000 -0.021280 0.000000 
0.380083 -0.026865 0.000000 
0.387719 -0.155288 0.000000 
0.381490 0.246069 0.000000 
0.380085 0.107138 0.000000 
0.500000 0.246930 0.000000 
0.612281 -0.155288 0.000000 
0.619917 -0.026865 0.000000 
0.861842 -0.028767 0.000000 
0.740161 -0.029704 0.000000 
0.864440 -0.157114 0.000000 
0.619915 0.107138 0.000000 
0.618510 0.246069 0.000000 
0.984126 -0.024860 0.000000 
0.858358 0.105508 0.000000 
0.850507 0.388213 0.000000 
0.854180 0.244678 0.000000 
0.972407 0.247975 0.000000 
0.736375 0.244681 0.000000 
0.617420 0.389982 0.000000 
0.963948 0.535593 0.000000 
0.848966 0.535950 0.000000 
0.860492 0.843443 0.000000 
0.851508 0.687839 0.000000 
0.972858 0.836783 0.000000 
0.733794 0.537301 0.000000 
0.617347 0.538274 0.000000 
0.875000 1.000000 0.000000 
0.742126 0.844179 0.000000 
0.500000 0.844268 0.000000 
0.621452 0.844249 0.000000 
0.625000 1.000000 0.000000 
0.618701 0.690047 0.000000 
0.500000 0.538630 0.000000 
0.375000 1.000000 0.000000 
0.378548 0.844249 0.000000 
0.139508 0.843443 0.000000 
0.257874 0.844179 0.000000 
0.125000 1.000000 0.000000 
0.381299 0.690047 0.000000 
0.382653 0.538274 0.000000 
0.027142 0.836783 0.000000 
0.148492 0.687839 0.000000 
0.149493 0.388213 0.000000 
0.151034 0.535950 0.000000 
0.036052 0.535593 0.000000 
0.266206 0.537301 0.000000 
0.382580 0.389982 0.000000 
0.027593 0.247975 0.000000 
0.145820 0.244678 0.000000 
0.141642 0.105508 0.000000 
0.015874 -0.024860 0.000000 
0.263625 0.244681 0.000000 
0.073180 -0.155470 0.000000 
0.136817 -0.093754 0.000000 
0.075033 -0.092121 0.000000 
0.260167 -0.094967 0.000000 
0.198541 -0.094725 0.000000 
0.198044 -0.158113 0.000000 
0.200098 0.036995 0.000000 
0.199126 -0.029620 0.000000 
0.260184 0.037056 0.000000 
0.500000 -0.083938 0.000000 
0.442575 -0.087361 0.000000 
0.453641 -0.146359 0.000000 
0.439551 0.041657 0.000000 
0.439777 -0.023596 0.000000 
0.500000 0.042821 0.000000 
0.323738 -0.157720 0.000000 
0.382552 -0.092153 0.000000 
0.321593 -0.094302 0.000000 
0.440996 0.317903 0.000000 
0.440664 0.246694 0.000000 
0.500000 0.318054 0.000000 
0.320577 0.105873 0.000000 
0.380769 0.175961 0.000000 
0.321496 0.175000 0.000000 
0.500000 0.177216 0.000000 
0.440267 0.176847 0.000000 
0.439855 0.108471 0.000000 
0.320185 -0.028882 0.000000 
0.379675 0.039566 0.000000 
0.320004 0.037911 0.000000 
0.546359 -0.146359 0.000000 
0.557425 -0.087361 0.000000 
0.678407 -0.094302 0.000000 
0.617448 -0.092153 0.000000 
0.676262 -0.157720 0.000000 
0.560223 -0.023596 0.000000 
0.560449 0.041657 0.000000 
0.924967 -0.092121 0.000000 
0.863183 -0.093754 0.000000 
0.926820 -0.155470 0.000000 
0.739816 0.037056 0.000000 
0.800874 -0.029620 0.000000 
0.799902 0.036995 0.000000 
0.801956 -0.158113 0.000000 
0.801459 -0.094725 0.000000 
0.739833 -0.094967 0.000000 
0.559336 0.246694 0.000000 
0.559004 0.317903 0.000000 
0.560145 0.108471 0.000000 
0.559733 0.176847 0.000000 
0.678504 0.175000 0.000000 
0.619231 0.175961 0.000000 
0.679423 0.105873 0.000000 
0.679815 -0.028882 0.000000 
0.679996 0.037911 0.000000 
0.620325 0.039566 0.000000 
0.986747 -0.089915 0.000000 
0.922966 -0.027181 0.000000 
0.918344 0.106920 0.000000 
0.920758 0.039217 0.000000 
0.981343 0.041607 0.000000 
0.860239 0.037705 0.000000 
0.798540 0.104935 0.000000 
0.908737 0.388691 0.000000 
0.910836 0.316745 0.000000 
0.969603 0.318699 0.000000 
0.793661 0.315833 0.000000 
0.852195 0.315917 0.000000 
0.792370 0.388365 0.000000 
0.975393 0.178160 0.000000 
0.913242 0.245765 0.000000 
0.915797 0.175800 0.000000 
0.617877 0.317431 0.000000 
0.558765 0.390361 0.000000 
0.737690 0.174304 0.000000 
0.677499 0.245311 0.000000 
0.675900 0.389429 0.000000 
0.676585 0.316799 0.000000 
0.735155 0.316201 0.000000 
0.856290 0.174524 0.000000 
0.795240 0.244400 0.000000 
0.796926 0.174089 0.000000 
0.965163 0.462529 0.000000 
0.907152 0.461586 0.000000 
0.906566 0.610308 0.000000 
0.906343 0.535448 0.000000 
0.963730 0.609471 0.000000 
0.849361 0.461560 0.000000 
0.791597 0.461979 0.000000 
0.926752 0.921036 0.000000 
0.917540 0.841633 0.000000 
0.981792 0.915754 0.000000 
0.794255 0.688862 0.000000 
0.855065 0.765264 0.000000 
0.797412 0.766184 0.000000 
0.967631 0.759876 0.000000 
0.911593 0.763305 0.000000 
0.908160 0.686229 0.000000 
0.617222 0.463631 0.000000 
0.558658 0.463946 0.000000 
0.733703 0.462560 0.000000 
0.675584 0.463144 0.000000 
0.676421 0.613462 0.000000 
0.675729 0.537857 0.000000 
0.734618 0.612977 0.000000 
0.849584 0.611380 0.000000 
0.792336 0.612296 0.000000 
0.791516 0.536639 0.000000 
0.937500 1.000000 0.000000 
0.867528 0.921865 0.000000 
0.745968 0.922014 0.000000 
0.807007 0.922010 0.000000 
0.812500 1.000000 0.000000 
0.801774 0.844005 0.000000 
0.738817 0.766600 0.000000 
0.500000 0.921953 0.000000 
0.561614 0.921953 0.000000 
0.562500 1.000000 0.000000 
0.560023 0.766968 0.000000 
0.560770 0.844257 0.000000 
0.500000 0.766998 0.000000 
0.687500 1.000000 0.000000 
0.623182 0.921966 0.000000 
0.684656 0.921990 0.000000 
0.558731 0.538534 0.000000 
0.500000 0.464046 0.000000 
0.677709 0.689827 0.000000 
0.617835 0.613790 0.000000 
0.500000 0.614065 0.000000 
0.558983 0.613987 0.000000 
0.559418 0.690174 0.000000 
0.681948 0.844232 0.000000 
0.619927 0.766909 0.000000 
0.679580 0.766802 0.000000 
0.437500 1.000000 0.000000 
0.438386 0.921953 0.000000 
0.315344 0.921990 0.000000 
0.376818 0.921966 0.000000 
0.312500 1.000000 0.000000 
0.439230 0.844257 0.000000 
0.439977 0.766968 0.000000 
0.073248 0.921036 0.000000 
0.132472 0.921865 0.000000 
0.062500 1.000000 0.000000 
0.261183 0.766600 0.000000 
0.198226 0.844005 0.000000 
0.202588 0.766184 0.000000 
0.187500 1.000000 0.000000 
0.192993 0.922010 0.000000 
0.254032 0.922014 0.000000 
0.441269 0.538534 0.000000 
0.441342 0.463946 0.000000 
0.440582 0.690174 0.000000 
0.441017 0.613987 0.000000 
0.323579 0.613462 0.000000 
0.382165 0.613790 0.000000 
0.322291 0.689827 0.000000 
0.318052 0.844232 0.000000 
0.320420 0.766802 0.000000 
0.380073 0.766909 0.000000 
0.018208 0.915754 0.000000 
0.082460 0.841633 0.000000 
0.091840 0.686229 0.000000 
0.088407 0.763305 0.000000 
0.032369 0.759876 0.000000 
0.144935 0.765264 0.000000 
0.205745 0.688862 0.000000 
0.091263 0.388691 0.000000 
0.092848 0.461586 0.000000 
0.034837 0.462529 0.000000 
0.208403 0.461979 0.000000 
0.150639 0.461560 0.000000 
0.207630 0.388365 0.000000 
0.036270 0.609471 0.000000 
0.093657 0.535448 0.000000 
0.093434 0.610308 0.000000 
0.382778 0.463631 0.000000 
0.441235 0.390361 0.000000 
0.265382 0.612977 0.000000 
0.324271 0.537857 0.000000 
0.324100 0.389429 0.000000 
0.324416 0.463144 0.000000 
0.266297 0.462560 0.000000 
0.150416 0.611380 0.000000 
0.208484 0.536639 0.000000 
0.207664 0.612296 0.000000 
0.030397 0.318699 0.000000 
0.089164 0.316745 0.000000 
0.084203 0.175800 0.000000 
0.086758 0.245765 0.000000 
0.024607 0.178160 0.000000 
0.147805 0.315917 0.000000 
0.206339 0.315833 0.000000 
0.077034 -0.027181 0.000000 
0.013253 -0.089915 0.000000 
0.201460 0.104935 0.000000 
0.139761 0.037705 0.000000 
0.018657 0.041607 0.000000 
0.079242 0.039217 0.000000 
0.081656 0.106920 0.000000 
0.382123 0.317431 0.000000 
0.264845 0.316201 0.000000 
0.323415 0.316799 0.000000 
0.322501 0.245311 0.000000 
0.262310 0.174304 0.000000 
0.143710 0.174524 0.000000 
0.203074 0.174089 0.000000 
0.204760 0.244400 0.000000 
0.042034 -0.154459 0.000000 
0.074097 -0.123996 0.000000 
0.043049 -0.122977 0.000000 
0.136195 -0.125643 0.000000 
0.105144 -0.124895 0.000000 
0.104357 -0.156366 0.000000 
0.106746 -0.060734 0.000000 
0.105931 -0.093015 0.000000 
0.137462 -0.061456 0.000000 
0.260473 -0.126923 0.000000 
0.229386 -0.126879 0.000000 
0.229338 -0.158345 0.000000 
0.229393 -0.062560 0.000000 
0.229370 -0.094944 0.000000 
0.259928 -0.062544 0.000000 
0.166789 -0.157699 0.000000 
0.198313 -0.126643 0.000000 
0.167251 -0.126229 0.000000 
0.230687 0.070773 0.000000 
0.230175 0.036929 0.000000 
0.260581 0.070920 0.000000 
0.168668 -0.029286 0.000000 
0.199558 0.003512 0.000000 
0.169269 0.003808 0.000000 
0.259928 0.003507 0.000000 
0.229781 0.003410 0.000000 
0.229521 -0.029763 0.000000 
0.167688 -0.094326 0.000000 
0.198795 -0.062375 0.000000 
0.168148 -0.062005 0.000000 
0.500000 -0.078947 0.000000 
0.479043 -0.114042 0.000000 
0.468202 -0.107263 0.000000 
0.470295 -0.053597 0.000000 
0.472038 -0.084676 0.000000 
0.500000 -0.052536 0.000000 
0.420337 -0.152445 0.000000 
0.447398 -0.118009 0.000000 
0.416174 -0.121786 0.000000 
0.469787 0.075468 0.000000 
0.469706 0.042473 0.000000 
0.500000 0.075708 0.000000 
0.409913 -0.025340 0.000000 
0.439541 0.008843 0.000000 
0.409582 0.007492 0.000000 
0.500000 0.010481 0.000000 
0.469681 0.009963 0.000000 
0.469797 -0.022053 0.000000 
0.292140 -0.158193 0.000000 
0.322714 -0.126307 0.000000 
0.291582 -0.126750 0.000000 
0.385023 -0.124103 0.000000 
0.353866 -0.125490 0.000000 
0.355564 -0.156839 0.000000 
0.350917 -0.060947 0.000000 
0.352157 -0.093476 0.000000 
0.380947 -0.059677 0.000000 
0.440552 -0.055684 0.000000 
0.410806 -0.057902 0.000000 
0.412709 -0.090145 0.000000 
[...]
POINT_DATA 1089

SCALARS u_h float 2
LOOKUP_TABLE default
0.010899 -0.153426 
-0.010899 -0.153426 
0.000000 0.000000 
0.000000 0.000000 
-0.000000 -0.100000 
-0.032820 -0.109703 
0.000000 0.000000 
0.032820 -0.109703 
-0.000000 -0.109583 
0.010691 -0.158381 
-0.000000 -0.140904 
0.011088 -0.144913 
-0.010691 -0.158381 
-0.011088 -0.144913 
-0.021590 -0.140669 
-0.015800 -0.111162 
-0.035187 -0.065803 
-0.013717 -0.060534 
0.000000 0.000000 
-0.000000 -0.059772 
0.000000 0.000000 
0.013717 -0.060534 
0.035187 -0.065803 
0.015800 -0.111162 
0.021590 -0.140669 
0.010560 -0.157114 
0.009839 -0.154704 
0.013158 -0.153767 
-0.000000 -0.146280 
0.005083 -0.151865 
0.012719 -0.155288 
0.006490 -0.128931 
0.005085 -0.142862 
-0.000000 -0.128070 
-0.012719 -0.155288 
-0.005083 -0.151865 
-0.013158 -0.153767 
-0.009839 -0.154704 
-0.010560 -0.157114 
-0.005085 -0.142862 
-0.006490 -0.128931 
-0.015874 -0.149860 
-0.016642 -0.144492 
-0.024493 -0.111787 
-0.020820 -0.130322 
-0.027593 -0.127025 
-0.013625 -0.130319 
-0.007580 -0.110018 
-0.036052 -0.089407 
-0.026034 -0.089050 
-0.014508 -0.031557 
-0.023492 -0.062161 
-0.027142 -0.038217 
-0.016206 -0.087699 
-0.007653 -0.086726 
0.000000 0.000000 
-0.007874 -0.030821 
0.000000 -0.030732 
-0.003548 -0.030751 
0.000000 0.000000 
-0.006299 -0.059953 
-0.000000 -0.086370 
0.000000 0.000000 
0.003548 -0.030751 
0.014508 -0.031557 
0.007874 -0.030821 
0.000000 0.000000 
0.006299 -0.059953 
0.007653 -0.086726 
0.027142 -0.038217 
0.023492 -0.062161 
0.024493 -0.111787 
0.026034 -0.089050 
0.036052 -0.089407 
0.016206 -0.087699 
0.007580 -0.110018 
0.027593 -0.127025 
0.020820 -0.130322 
0.016642 -0.144492 
0.015874 -0.149860 
0.013625 -0.130319 
0.010680 -0.155470 
0.011817 -0.156254 
0.012533 -0.154621 
0.010167 -0.157467 
0.011041 -0.157225 
0.010544 -0.158113 
0.012598 -0.150505 
0.011626 -0.154620 
0.010184 -0.150444 
-0.000000 -0.146438 
0.005075 -0.149861 
0.016141 -0.146359 
0.002051 -0.145843 
0.002277 -0.148596 
-0.000000 -0.144679 
0.011238 -0.157720 
0.007552 -0.154653 
0.009093 -0.156802 
0.003496 -0.119597 
0.003164 -0.128306 
-0.000000 -0.119446 
0.008077 -0.144127 
0.005769 -0.136539 
0.008996 -0.137500 
-0.000000 -0.135284 
0.002767 -0.135653 
0.002355 -0.141529 
0.007685 -0.153882 
0.004675 -0.147934 
0.007504 -0.149589 
-0.016141 -0.146359 
-0.005075 -0.149861 
-0.009093 -0.156802 
-0.007552 -0.154653 
-0.011238 -0.157720 
-0.002277 -0.148596 
-0.002051 -0.145843 
-0.012533 -0.154621 
-0.011817 -0.156254 
-0.010680 -0.155470 
-0.010184 -0.150444 
-0.011626 -0.154620 
-0.012598 -0.150505 
-0.010544 -0.158113 
-0.011041 -0.157225 
-0.010167 -0.157467 
-0.003164 -0.128306 
-0.003496 -0.119597 
-0.002355 -0.141529 
-0.002767 -0.135653 
-0.008996 -0.137500 
-0.005769 -0.136539 
-0.008077 -0.144127 
-0.007685 -0.153882 
-0.007504 -0.149589 
-0.004675 -0.147934 
-0.013253 -0.152415 
-0.014534 -0.152181 
-0.019156 -0.143080 
-0.016742 -0.148283 
-0.018657 -0.145893 
-0.014761 -0.149795 
-0.013960 -0.145065 
-0.028763 -0.111309 
-0.026664 -0.120755 
-0.030397 -0.118801 
-0.018839 -0.121667 
-0.022805 -0.121583 
-0.020130 -0.111635 
-0.024607 -0.134340 
-0.024258 -0.129235 
-0.021703 -0.136700 
-0.007123 -0.120069 
-0.003735 -0.109639 
-0.012310 -0.138196 
-0.010001 -0.129689 
-0.011600 -0.110571 
-0.010915 -0.120701 
-0.014845 -0.121299 
-0.018710 -0.137976 
-0.017260 -0.130600 
-0.015574 -0.138411 
-0.034837 -0.099971 
-0.030348 -0.100914 
-0.030934 -0.077192 
-0.031157 -0.089552 
-0.036270 -0.078029 
-0.025639 -0.100940 
-0.020903 -0.100521 
-0.010748 -0.016464 
-0.019960 -0.033367 
-0.018208 -0.021746 
-0.018245 -0.061138 
-0.019935 -0.047236 
-0.015088 -0.046316 
-0.032369 -0.052624 
-0.025907 -0.049195 
-0.029340 -0.063771 
-0.007778 -0.098869 
-0.003842 -0.098554 
-0.016297 -0.099940 
-0.011916 -0.099356 
-0.011079 -0.074038 
-0.011771 -0.087143 
-0.015382 -0.074523 
-0.025416 -0.076120 
-0.020164 -0.075204 
-0.020984 -0.088361 
0.000000 0.000000 
-0.007472 -0.015635 
-0.004032 -0.015486 
-0.005493 -0.015490 
0.000000 0.000000 
-0.010726 -0.030995 
-0.011183 -0.045900 
0.000000 -0.015547 
-0.000886 -0.015547 
0.000000 0.000000 
-0.002477 -0.045532 
-0.001730 -0.030743 
0.000000 -0.045502 
0.000000 0.000000 
-0.001818 -0.015534 
-0.002844 -0.015510 
-0.003769 -0.086466 
-0.000000 -0.098454 
-0.009791 -0.060173 
-0.007165 -0.073710 
-0.000000 -0.073435 
-0.003517 -0.073513 
-0.003082 -0.059826 
-0.005552 -0.030768 
-0.005073 -0.045591 
-0.007920 -0.045698 
0.000000 0.000000 
0.000886 -0.015547 
0.002844 -0.015510 
0.001818 -0.015534 
0.000000 0.000000 
0.001730 -0.030743 
0.002477 -0.045532 
0.010748 -0.016464 
0.007472 -0.015635 
0.000000 0.000000 
0.011183 -0.045900 
0.010726 -0.030995 
0.015088 -0.046316 
0.000000 0.000000 
0.005493 -0.015490 
0.004032 -0.015486 
0.003769 -0.086466 
0.003842 -0.098554 
0.003082 -0.059826 
0.003517 -0.073513 
0.011079 -0.074038 
0.007165 -0.073710 
0.009791 -0.060173 
0.005552 -0.030768 
0.007920 -0.045698 
0.005073 -0.045591 
0.018208 -0.021746 
0.019960 -0.033367 
0.029340 -0.063771 
0.025907 -0.049195 
0.032369 -0.052624 
0.019935 -0.047236 
0.018245 -0.061138 
0.028763 -0.111309 
0.030348 -0.100914 
0.034837 -0.099971 
0.020903 -0.100521 
0.025639 -0.100940 
0.020130 -0.111635 
0.036270 -0.078029 
0.031157 -0.089552 
0.030934 -0.077192 
0.007778 -0.098869 
0.003735 -0.109639 
0.015382 -0.074523 
0.011771 -0.087143 
0.011600 -0.110571 
0.011916 -0.099356 
0.016297 -0.099940 
0.025416 -0.076120 
0.020984 -0.088361 
0.020164 -0.075204 
0.030397 -0.118801 
0.026664 -0.120755 
0.021703 -0.136700 
0.024258 -0.129235 
0.024607 -0.134340 
0.022805 -0.121583 
0.018839 -0.121667 
0.014534 -0.152181 
0.013253 -0.152415 
0.013960 -0.145065 
0.014761 -0.149795 
0.018657 -0.145893 
0.016742 -0.148283 
0.019156 -0.143080 
0.007123 -0.120069 
0.014845 -0.121299 
0.010915 -0.120701 
0.010001 -0.129689 
0.012310 -0.138196 
0.018710 -0.137976 
0.015574 -0.138411 
0.017260 -0.130600 
0.010784 -0.154459 
0.011597 -0.155246 
0.011799 -0.154227 
0.011195 -0.156893 
0.011394 -0.156145 
0.010607 -0.156366 
0.012996 -0.154484 
0.012181 -0.155515 
0.012462 -0.155206 
0.010473 -0.158173 
0.010636 -0.158129 
0.010588 -0.158345 
0.010643 -0.156310 
0.010620 -0.157444 
0.009928 -0.156294 
0.010539 -0.157699 
0.010813 -0.157893 
0.011001 -0.157479 
0.011937 -0.147977 
0.011425 -0.150571 
0.010581 -0.147830 
0.012418 -0.154286 
0.012058 -0.152738 
0.013019 -0.152442 
0.009928 -0.152743 
0.011031 -0.152840 
0.010771 -0.154763 
0.011438 -0.156826 
0.011295 -0.156125 
0.011898 -0.155755 
-0.000000 -0.110197 
0.010293 -0.145292 
-0.000548 -0.107263 
0.001545 -0.147347 
0.003288 -0.147176 
-0.000000 -0.146286 
0.014087 -0.152445 
0.009898 -0.149259 
0.009924 -0.153036 
0.001037 -0.143282 
0.000956 -0.145027 
-0.000000 -0.143042 
0.003663 -0.150340 
0.002041 -0.147407 
0.003332 -0.148758 
-0.000000 -0.145769 
0.000931 -0.146287 
0.001047 -0.147053 
0.010890 -0.158193 
0.010214 -0.157557 
0.010332 -0.158000 
0.010023 -0.155353 
0.010116 -0.156740 
0.011814 -0.156839 
0.007167 -0.154697 
0.008407 -0.155976 
0.005947 -0.153427 
0.003052 -0.149434 
0.004556 -0.151652 
0.006459 -0.152645 
0.001800 -0.114668 
0.001736 -0.119476 
-0.000000 -0.114659 
0.004803 -0.128584 
0.003341 -0.124115 
0.005060 -0.124351 
-0.000000 -0.123924 
0.001658 -0.123967 
0.001569 -0.128127 
0.009593 -0.144593 
0.008513 -0.140961 
0.010097 -0.141391 
0.005411 -0.139861 
0.006942 -0.140438 
0.006564 -0.143538 
0.007797 -0.133326 
0.007362 -0.137035 
0.006134 -0.132895 
-0.000000 -0.138307 
0.001252 -0.138434 
0.001140 -0.141076 
0.001470 -0.131938 
0.001363 -0.135380 
-0.000000 -0.131864 
0.003673 -0.142162 
0.002558 -0.138782 
0.003944 -0.139284 
0.004524 -0.132490 
0.004234 -0.136059 
0.002971 -0.132157 
0.009666 -0.157270 
0.006438 -0.153045 
0.008218 -0.155543 
0.009128 -0.156053 
0.008816 -0.154421 
0.002176 -0.143885 
0.004823 -0.145549 
0.003445 -0.144693 
0.003306 -0.146885 
0.004720 -0.150034 
0.009173 -0.147503 
0.008741 -0.152431 
0.008874 -0.150119 
0.007726 -0.147002 
0.006265 -0.146341 
0.006119 -0.151090 
0.006093 -0.148855 
0.007469 -0.151886 
0.000548 -0.107263 
-0.010293 -0.145292 
-0.009924 -0.153036 
-0.009898 -0.149259 
-0.014087 -0.152445 
-0.003288 -0.147176 
-0.001545 -0.147347 
-0.010332 -0.158000 
-0.010214 -0.157557 
-0.010890 -0.158193 
-0.005947 -0.153427 
-0.008407 -0.155976 
-0.007167 -0.154697 
-0.011814 -0.156839 
-0.010116 -0.156740 
-0.010023 -0.155353 
-0.000956 -0.145027 
-0.001037 -0.143282 
-0.001047 -0.147053 
-0.000931 -0.146287 
-0.003332 -0.148758 
-0.002041 -0.147407 
-0.003663 -0.150340 
-0.006459 -0.152645 
-0.004556 -0.151652 
-0.003052 -0.149434 
-0.011799 -0.154227 
-0.011597 -0.155246 
-0.010784 -0.154459 
-0.012462 -0.155206 
-0.012181 -0.155515 
-0.012996 -0.154484 
-0.010607 -0.156366 
-0.011394 -0.156145 
-0.011195 -0.156893 
-0.010581 -0.147830 
-0.011425 -0.150571 
-0.011937 -0.147977 
-0.010771 -0.154763 
-0.011031 -0.152840 
-0.009928 -0.152743 
-0.013019 -0.152442 
-0.012058 -0.152738 
-0.012418 -0.154286 
-0.010588 -0.158345 
-0.010636 -0.158129 
-0.010473 -0.158173 
-0.011001 -0.157479 
-0.010813 -0.157893 
-0.010539 -0.157699 
-0.009928 -0.156294 
-0.010620 -0.157444 
-0.010643 -0.156310 
-0.011898 -0.155755 
-0.011295 -0.156125 
-0.011438 -0.156826 
-0.001736 -0.119476 
-0.001800 -0.114668 
-0.001569 -0.128127 
-0.001658 -0.123967 
-0.005060 -0.124351 
-0.003341 -0.124115 
-0.004803 -0.128584 
-0.001140 -0.141076 
-0.001252 -0.138434 
-0.003944 -0.139284 
-0.002558 -0.138782 
-0.003673 -0.142162 
-0.001363 -0.135380 
-0.001470 -0.131938 
-0.010097 -0.141391 
-0.008513 -0.140961 
-0.009593 -0.144593 
-0.006134 -0.132895 
-0.007362 -0.137035 
-0.007797 -0.133326 
-0.006564 -0.143538 
-0.006942 -0.140438 
-0.005411 -0.139861 
-0.002971 -0.132157 
-0.004234 -0.136059 
-0.004524 -0.132490 
-0.009666 -0.157270 
-0.008816 -0.154421 
-0.009128 -0.156053 
-0.008218 -0.155543 
-0.006438 -0.153045 
-0.009173 -0.147503 
-0.006265 -0.146341 
-0.007726 -0.147002 
-0.008874 -0.150119 
-0.008741 -0.152431 
-0.002176 -0.143885 
-0.004720 -0.150034 
-0.003306 -0.146885 
-0.003445 -0.144693 
-0.004823 -0.145549 
-0.007469 -0.151886 
-0.006093 -0.148855 
-0.006119 -0.151090 
-0.012016 -0.153124 
-0.012883 -0.153585 
-0.015199 -0.151114 
-0.014019 -0.152540 
-0.014543 -0.151322 
-0.013510 -0.153594 
-0.013859 -0.153065 
-0.020374 -0.142012 
-0.019017 -0.144759 
-0.020107 -0.143428 
-0.016816 -0.146678 
-0.017926 -0.145836 
-0.017916 -0.143900 
-0.017245 -0.148043 
-0.017699 -0.147203 
-0.016425 -0.149328 
-0.013238 -0.147942 
-0.012547 -0.145074 
-0.013923 -0.151956 
-0.013708 -0.150247 
-0.015325 -0.144875 
-0.014481 -0.147719 
-0.015671 -0.147301 
-0.015611 -0.150404 
-0.015769 -0.149143 
-0.014782 -0.151278 
-0.030825 -0.110694 
-0.029734 -0.115428 
-0.031674 -0.114360 
-0.025747 -0.116593 
-0.027761 -0.116150 
-0.026647 -0.111651 
-0.029028 -0.123023 
-0.028543 -0.119945 
-0.027270 -0.124236 
-0.017442 -0.116612 
-0.019532 -0.116787 
-0.017954 -0.111424 
-0.021839 -0.126086 
-0.020831 -0.121698 
-0.019968 -0.126258 
-0.022314 -0.111767 
-0.021621 -0.116867 
-0.023697 -0.116816 
-0.023094 -0.137635 
-0.023159 -0.135673 
-0.021760 -0.138979 
-0.025934 -0.128293 
-0.024557 -0.132108 
-0.026113 -0.130800 
-0.021395 -0.133813 
-0.022989 -0.133098 
-0.022554 -0.129898 
-0.024751 -0.121283 
-0.023680 -0.125720 
-0.025490 -0.125119 
-0.003629 -0.114767 
-0.001860 -0.109556 
-0.006824 -0.124653 
-0.005290 -0.119801 
-0.005639 -0.109799 
-0.005485 -0.114946 
-0.007379 -0.115187 
-0.011674 -0.141701 
-0.010652 -0.137897 
-0.011805 -0.130035 
-0.011229 -0.134111 
-0.012968 -0.134401 
-0.009500 -0.133743 
-0.008226 -0.129311 
-0.013679 -0.110870 
-0.013313 -0.116082 
-0.015366 -0.116368 
-0.009315 -0.115470 
-0.011294 -0.115776 
-0.009566 -0.110281 
-0.014258 -0.125951 
-0.012867 -0.121017 
-0.012358 -0.125669 
-0.008631 -0.124993 
-0.010479 -0.125341 
-0.008999 -0.120377 
-0.020419 -0.140031 
-0.019770 -0.134288 
-0.020223 -0.137457 
-0.019057 -0.140822 
-0.017661 -0.141380 
-0.016840 -0.121525 
-0.015448 -0.130516 
-0.016167 -0.126161 
-0.018074 -0.126273 
-0.019054 -0.130546 
-0.013227 -0.141871 
-0.016225 -0.141728 
-0.014747 -0.141885 
-0.013954 -0.138374 
-0.014702 -0.134588 
-0.018111 -0.134556 
-0.016419 -0.134648 
-0.017160 -0.138285 
-0.033926 -0.104945 
-0.031815 -0.105756 
-0.033252 -0.095210 
-0.032631 -0.100594 
-0.035554 -0.094790 
-0.029638 -0.106232 
-0.027409 -0.106456 
-0.033183 -0.071359 
-0.033658 -0.077683 
-0.035914 -0.072027 
-0.028604 -0.089346 
-0.031193 -0.083500 
-0.028532 -0.083129 
-0.036303 -0.083821 
-0.033800 -0.083761 
-0.033652 -0.089601 
-0.020589 -0.106211 
-0.018334 -0.105964 
-0.025145 -0.106494 
-0.022865 -0.106399 
-0.023479 -0.094868 
-0.023263 -0.100765 
-0.025946 -0.095125 
-0.030864 -0.095355 
-0.028418 -0.095305 
-0.028009 -0.101007 
-0.006806 -0.008701 
-0.013788 -0.018040 
-0.011303 -0.011967 
-0.016971 -0.032210 
-0.015784 -0.025005 
-0.013146 -0.024045 
-0.023270 -0.030341 
-0.019240 -0.026922 
-0.023452 -0.035292 
-0.015896 -0.060796 
-0.016825 -0.053808 
-0.014597 -0.053505 
-0.021937 -0.054811 
-0.019266 -0.054228 
-0.020777 -0.061584 
-0.015098 -0.038990 
-0.017374 -0.046685 
-0.017458 -0.039467 
-0.034029 -0.059344 
-0.031011 -0.057905 
-0.032321 -0.064773 
-0.026698 -0.043208 
-0.029171 -0.050729 
-0.030115 -0.045604 
-0.026366 -0.062889 
-0.027890 -0.056634 
-0.024829 -0.055602 
-0.020187 -0.040236 
-0.022790 -0.048046 
-0.023299 -0.041439 
-0.003811 -0.104230 
-0.001906 -0.104152 
-0.007716 -0.104574 
-0.005744 -0.104374 
-0.005772 -0.092748 
-0.005790 -0.098686 
-0.007759 -0.092915 
-0.016112 -0.105682 
-0.013935 -0.105387 
-0.014085 -0.093644 
-0.014076 -0.099641 
-0.016335 -0.093942 
-0.011809 -0.105094 
-0.009736 -0.104818 
-0.012524 -0.067383 
-0.013175 -0.074259 
-0.014659 -0.067621 
-0.009677 -0.086916 
-0.011497 -0.080695 
-0.009438 -0.080488 
-0.015894 -0.081221 
-0.013646 -0.080939 
-0.013946 -0.087405 
-0.009818 -0.099095 
-0.011907 -0.093368 
-0.009801 -0.093123 
-0.030334 -0.070619 
-0.024638 -0.069267 
-0.027459 -0.069905 
-0.028165 -0.076650 
-0.025869 -0.082715 
-0.016931 -0.067914 
-0.018245 -0.081543 
-0.017710 -0.074836 
-0.019352 -0.068277 
-0.021925 -0.068725 
-0.018576 -0.100239 
-0.023484 -0.088711 
-0.021043 -0.094569 
-0.018657 -0.094255 
-0.018554 -0.088019 
-0.022738 -0.075633 
-0.020699 -0.081903 
-0.023247 -0.082298 
0.000000 0.000000 
-0.005260 -0.008069 
-0.003693 -0.007772 
-0.004347 -0.007853 
0.000000 0.000000 
-0.008846 -0.015880 
-0.011137 -0.023584 
-0.002017 -0.007760 
-0.002356 -0.007748 
0.000000 0.000000 
-0.007025 -0.023197 
-0.004718 -0.015481 
-0.005999 -0.023176 
0.000000 0.000000 
-0.002737 -0.007741 
-0.003173 -0.007744 
-0.013038 -0.046068 
-0.012556 -0.053285 
-0.012463 -0.031196 
-0.013045 -0.038698 
-0.009613 -0.038403 
-0.011234 -0.038517 
-0.009215 -0.030883 
-0.006392 -0.015530 
-0.008184 -0.023248 
-0.009529 -0.023358 
0.000000 -0.007817 
-0.000221 -0.007817 
0.000000 0.000000 
-0.000654 -0.023191 
-0.000440 -0.015549 
0.000000 -0.023188 
0.000000 0.000000 
-0.000445 -0.007815 
-0.000675 -0.007811 
-0.001392 -0.052721 
-0.001231 -0.045514 
0.000000 -0.052706 
-0.002622 -0.030747 
-0.002119 -0.038193 
-0.003211 -0.038206 
0.000000 -0.038174 
-0.001053 -0.038182 
-0.000859 -0.030738 
0.000000 0.000000 
-0.001426 -0.007785 
-0.001710 -0.007773 
-0.000913 -0.007804 
-0.001162 -0.007795 
0.000000 0.000000 
-0.003442 -0.023179 
-0.002316 -0.015523 
-0.002701 -0.023185 
-0.001317 -0.023191 
-0.001996 -0.023189 
-0.001344 -0.015542 
-0.001918 -0.098477 
-0.000000 -0.104143 
-0.005689 -0.086576 
-0.003827 -0.092627 
-0.000000 -0.092526 
-0.001909 -0.092553 
-0.001878 -0.086398 
-0.011690 -0.060331 
-0.010510 -0.067192 
-0.006779 -0.066915 
-0.008601 -0.067038 
-0.008001 -0.060049 
-0.009081 -0.073857 
-0.007456 -0.080319 
-0.000000 -0.066687 
-0.001653 -0.066709 
-0.001533 -0.059791 
-0.001826 -0.080028 
-0.001750 -0.073460 
-0.000000 -0.080001 
-0.004665 -0.059879 
-0.003322 -0.066753 
-0.005025 -0.066821 
-0.005537 -0.080186 
-0.005316 -0.073596 
-0.003666 -0.080090 
-0.003413 -0.015497 
-0.004519 -0.030757 
-0.004228 -0.023174 
-0.005075 -0.023171 
-0.006662 -0.030786 
-0.002800 -0.052747 
-0.005728 -0.052839 
-0.004239 -0.052786 
-0.003752 -0.045557 
-0.004343 -0.038224 
-0.010675 -0.053123 
-0.008142 -0.038329 
-0.009487 -0.045782 
-0.008925 -0.053002 
-0.007284 -0.052909 
-0.005530 -0.038247 
-0.006456 -0.045637 
-0.006790 -0.038281 
0.000000 0.000000 
0.000221 -0.007817 
0.000675 -0.007811 
0.000445 -0.007815 
0.000000 0.000000 
0.000440 -0.015549 
0.000654 -0.023191 
0.001710 -0.007773 
0.001426 -0.007785 
0.000000 0.000000 
0.002701 -0.023185 
0.002316 -0.015523 
0.003442 -0.023179 
0.000000 0.000000 
0.001162 -0.007795 
0.000913 -0.007804 
0.001231 -0.045514 
0.001392 -0.052721 
0.000859 -0.030738 
0.001053 -0.038182 
0.003211 -0.038206 
0.002119 -0.038193 
0.002622 -0.030747 
0.001344 -0.015542 
0.001996 -0.023189 
0.001317 -0.023191 
0.006806 -0.008701 
0.005260 -0.008069 
0.000000 0.000000 
0.011137 -0.023584 
0.008846 -0.015880 
0.013146 -0.024045 
0.000000 0.000000 
0.004347 -0.007853 
0.003693 -0.007772 
0.012556 -0.053285 
0.013038 -0.046068 
0.014597 -0.053505 
0.009215 -0.030883 
0.011234 -0.038517 
0.009613 -0.038403 
0.015098 -0.038990 
0.013045 -0.038698 
0.012463 -0.031196 
0.000000 0.000000 
0.002356 -0.007748 
0.002017 -0.007760 
0.003173 -0.007744 
0.002737 -0.007741 
0.000000 0.000000 
0.005999 -0.023176 
0.004718 -0.015481 
0.007025 -0.023197 
0.009529 -0.023358 
0.008184 -0.023248 
0.006392 -0.015530 
0.001918 -0.098477 
0.001906 -0.104152 
0.001878 -0.086398 
0.001909 -0.092553 
0.005772 -0.092748 
0.003827 -0.092627 
0.005689 -0.086576 
0.001533 -0.059791 
0.001653 -0.066709 
0.005025 -0.066821 
0.003322 -0.066753 
0.004665 -0.059879 
0.001750 -0.073460 
0.001826 -0.080028 
0.012524 -0.067383 
0.010510 -0.067192 
0.011690 -0.060331 
0.007456 -0.080319 
0.009081 -0.073857 
0.009438 -0.080488 
0.008001 -0.060049 
0.008601 -0.067038 
0.006779 -0.066915 
0.003666 -0.080090 
0.005316 -0.073596 
0.005537 -0.080186 
0.003413 -0.015497 
0.006662 -0.030786 
0.005075 -0.023171 
0.004228 -0.023174 
0.004519 -0.030757 
0.010675 -0.053123 
0.007284 -0.052909 
0.008925 -0.053002 
0.009487 -0.045782 
0.008142 -0.038329 
0.002800 -0.052747 
0.004343 -0.038224 
0.003752 -0.045557 
0.004239 -0.052786 
0.005728 -0.052839 
0.006790 -0.038281 
0.006456 -0.045637 
0.005530 -0.038247 
0.011303 -0.011967 
0.013788 -0.018040 
0.023452 -0.035292 
0.019240 -0.026922 
0.023270 -0.030341 
0.015784 -0.025005 
0.016971 -0.032210 
0.032321 -0.064773 
0.031011 -0.057905 
0.034029 -0.059344 
0.024829 -0.055602 
0.027890 -0.056634 
0.026366 -0.062889 
0.030115 -0.045604 
0.029171 -0.050729 
0.026698 -0.043208 
0.016825 -0.053808 
0.015896 -0.060796 
0.017458 -0.039467 
0.017374 -0.046685 
0.020777 -0.061584 
0.019266 -0.054228 
0.021937 -0.054811 
0.023299 -0.041439 
0.022790 -0.048046 
0.020187 -0.040236 
0.030825 -0.110694 
0.031815 -0.105756 
0.033926 -0.104945 
0.027409 -0.106456 
0.029638 -0.106232 
0.026647 -0.111651 
0.035554 -0.094790 
0.032631 -0.100594 
0.033252 -0.095210 
0.018334 -0.105964 
0.020589 -0.106211 
0.017954 -0.111424 
0.025946 -0.095125 
0.023263 -0.100765 
0.023479 -0.094868 
0.022314 -0.111767 
0.022865 -0.106399 
0.025145 -0.106494 
0.035914 -0.072027 
0.033658 -0.077683 
0.033183 -0.071359 
0.033652 -0.089601 
0.033800 -0.083761 
0.036303 -0.083821 
0.028532 -0.083129 
0.031193 -0.083500 
0.028604 -0.089346 
0.028009 -0.101007 
0.028418 -0.095305 
0.030864 -0.095355 
0.003811 -0.104230 
0.001860 -0.109556 
0.007759 -0.092915 
0.005790 -0.098686 
0.005639 -0.109799 
0.005744 -0.104374 
0.007716 -0.104574 
0.014659 -0.067621 
0.013175 -0.074259 
0.013946 -0.087405 
0.013646 -0.080939 
0.015894 -0.081221 
0.011497 -0.080695 
0.009677 -0.086916 
0.013679 -0.110870 
0.013935 -0.105387 
0.016112 -0.105682 
0.009736 -0.104818 