# vtk DataFile Version 2.0
Unstructured Grid Example
ASCII
DATASET UNSTRUCTURED_GRID

POINTS 4225 float
0.008547 -0.152273 0.000000 
0.991453 -0.152273 0.000000 
1.000000 1.000000 0.000000 
0.000000 1.000000 0.000000 
0.500000 -0.100000 0.000000 
0.966688 0.390169 0.000000 
0.500000 1.000000 0.000000 
0.033312 0.390169 0.000000 
0.500000 0.389286 0.000000 
0.258180 -0.159080 0.000000 
0.500000 0.106368 0.000000 
0.261024 0.104216 0.000000 
0.741820 -0.159080 0.000000 
0.738976 0.104216 0.000000 
0.978724 0.109843 0.000000 
0.733774 0.388172 0.000000 
0.964296 0.684037 0.000000 
0.735934 0.689158 0.000000 
0.750000 1.000000 0.000000 
0.500000 0.689767 0.000000 
0.250000 1.000000 0.000000 
0.264066 0.689158 0.000000 
0.035704 0.684037 0.000000 
0.266226 0.388172 0.000000 
0.021276 0.109843 0.000000 
0.133340 -0.157048 0.000000 
0.258823 -0.030455 0.000000 
0.137026 -0.028767 0.000000 
0.500000 -0.025829 0.000000 
0.379526 -0.028921 0.000000 
0.384056 -0.157573 0.000000 
0.381777 0.244622 0.000000 
0.380240 0.105262 0.000000 
0.500000 0.245149 0.000000 
0.615944 -0.157573 0.000000 
0.620474 -0.028921 0.000000 
0.862974 -0.028767 0.000000 
0.741177 -0.030455 0.000000 
0.866660 -0.157048 0.000000 
0.619760 0.105262 0.000000 
0.618223 0.244622 0.000000 
0.985292 -0.024007 0.000000 
0.858576 0.105352 0.000000 
0.850037 0.387903 0.000000 
0.853892 0.244402 0.000000 
0.972197 0.248145 0.000000 
0.736046 0.243860 0.000000 
0.617138 0.388950 0.000000 
0.963434 0.535438 0.000000 
0.848466 0.535664 0.000000 
0.860133 0.843320 0.000000 
0.851045 0.687617 0.000000 
0.972316 0.836547 0.000000 
0.733374 0.536815 0.000000 
0.617105 0.537588 0.000000 
0.875000 1.000000 0.000000 
0.741916 0.844042 0.000000 
0.500000 0.844066 0.000000 
0.621346 0.844074 0.000000 
0.625000 1.000000 0.000000 
0.618513 0.689643 0.000000 
0.500000 0.537855 0.000000 
0.375000 1.000000 0.000000 
0.378654 0.844074 0.000000 
0.139867 0.843320 0.000000 
0.258084 0.844042 0.000000 
0.125000 1.000000 0.000000 
0.381487 0.689643 0.000000 
0.382895 0.537588 0.000000 
0.027684 0.836547 0.000000 
0.148955 0.687617 0.000000 
0.149963 0.387903 0.000000 
0.151534 0.535664 0.000000 
0.036566 0.535438 0.000000 
0.266626 0.536815 0.000000 
0.382862 0.388950 0.000000 
0.027803 0.248145 0.000000 
0.146108 0.244402 0.000000 
0.141424 0.105352 0.000000 
0.014708 -0.024007 0.000000 
0.263954 0.243860 0.000000 
0.070913 -0.154960 0.000000 
0.135112 -0.093707 0.000000 
0.073344 -0.091661 0.000000 
0.258388 -0.095644 0.000000 
0.196806 -0.095029 0.000000 
0.195759 -0.158421 0.000000 
0.199539 0.036564 0.000000 
0.198028 -0.029978 0.000000 
0.259736 0.036226 0.000000 
0.500000 -0.089603 0.000000 
0.441462 -0.090789 0.000000 
0.449627 -0.149694 0.000000 
0.439660 0.038754 0.000000 
0.439684 -0.026951 0.000000 
0.500000 0.039358 0.000000 
0.320765 -0.158961 0.000000 
0.380796 -0.094148 0.000000 
0.319786 -0.095491 0.000000 
0.441168 0.316508 0.000000 
0.440842 0.245002 0.000000 
0.500000 0.316617 0.000000 
0.320628 0.104547 0.000000 
0.381018 0.174293 0.000000 
0.321730 0.173750 0.000000 
0.500000 0.175019 0.000000 
0.440444 0.174807 0.000000 
0.440019 0.106027 0.000000 
0.319333 -0.030157 0.000000 
0.379616 0.037541 0.000000 
0.319727 0.036573 0.000000 
0.550373 -0.149694 0.000000 
0.558538 -0.090789 0.000000 
0.680214 -0.095491 0.000000 
0.619204 -0.094148 0.000000 
0.679235 -0.158961 0.000000 
0.560316 -0.026951 0.000000 
0.560340 0.038754 0.000000 
0.926656 -0.091661 0.000000 
0.864888 -0.093707 0.000000 
0.929087 -0.154960 0.000000 
0.740264 0.036226 0.000000 
0.801972 -0.029978 0.000000 
0.800461 0.036564 0.000000 
0.804241 -0.158421 0.000000 
0.803194 -0.095029 0.000000 
0.741612 -0.095644 0.000000 
0.559158 0.245002 0.000000 
0.558832 0.316508 0.000000 
0.559981 0.106027 0.000000 
0.559556 0.174807 0.000000 
0.678270 0.173750 0.000000 
0.618982 0.174293 0.000000 
0.679372 0.104547 0.000000 
0.680667 -0.030157 0.000000 
0.680273 0.036573 0.000000 
0.620384 0.037541 0.000000 
0.988442 -0.088910 0.000000 
0.924111 -0.026792 0.000000 
0.918609 0.107090 0.000000 
0.921420 0.039504 0.000000 
0.982044 0.042296 0.000000 
0.860862 0.037629 0.000000 
0.798694 0.104442 0.000000 
0.908258 0.388513 0.000000 
0.910432 0.316621 0.000000 
0.969236 0.318715 0.000000 
0.793245 0.315318 0.000000 
0.851779 0.315614 0.000000 
0.791914 0.387887 0.000000 
0.975405 0.178495 0.000000 
0.912984 0.245721 0.000000 
0.915758 0.175858 0.000000 
0.617582 0.316200 0.000000 
0.558610 0.389216 0.000000 
0.737508 0.173439 0.000000 
0.677170 0.244176 0.000000 
0.675529 0.388570 0.000000 
0.676217 0.315799 0.000000 
0.734751 0.315449 0.000000 
0.856208 0.174299 0.000000 
0.794928 0.243866 0.000000 
0.796798 0.173562 0.000000 
0.964665 0.462388 0.000000 
0.906651 0.461383 0.000000 
0.906060 0.610096 0.000000 
0.905833 0.535235 0.000000 
0.963211 0.609310 0.000000 
0.848863 0.461257 0.000000 
0.791120 0.461547 0.000000 
0.926371 0.920933 0.000000 
0.917076 0.841487 0.000000 
0.981277 0.915213 0.000000 
0.793843 0.688603 0.000000 
0.854639 0.765088 0.000000 
0.797053 0.765990 0.000000 
0.967108 0.759710 0.000000 
0.911107 0.763121 0.000000 
0.907663 0.686025 0.000000 
0.616959 0.462781 0.000000 
0.558525 0.463015 0.000000 
0.733268 0.461982 0.000000 
0.675220 0.462420 0.000000 
0.676109 0.612989 0.000000 
0.675386 0.537262 0.000000 
0.734228 0.612581 0.000000 
0.849097 0.611122 0.000000 
0.791888 0.611974 0.000000 
0.791045 0.536260 0.000000 
0.937500 1.000000 0.000000 
0.867318 0.921813 0.000000 
0.745857 0.921953 0.000000 
0.806860 0.921957 0.000000 
0.812500 1.000000 0.000000 
0.801501 0.843882 0.000000 
0.738527 0.766379 0.000000 
0.500000 0.921860 0.000000 
0.561585 0.921866 0.000000 
0.562500 1.000000 0.000000 
0.559946 0.766661 0.000000 
0.560716 0.844067 0.000000 
0.500000 0.766674 0.000000 
0.687500 1.000000 0.000000 
0.623125 0.921886 0.000000 
0.684573 0.921918 0.000000 
0.558608 0.537786 0.000000 
0.500000 0.463095 0.000000 
0.677436 0.689468 0.000000 
0.617617 0.613252 0.000000 
0.500000 0.613454 0.000000 
0.558872 0.613402 0.000000 
0.559322 0.689735 0.000000 
0.681791 0.844076 0.000000 
0.619776 0.766626 0.000000 
0.679358 0.766549 0.000000 
0.437500 1.000000 0.000000 
0.438415 0.921866 0.000000 
0.315427 0.921918 0.000000 
0.376875 0.921886 0.000000 
0.312500 1.000000 0.000000 
0.439284 0.844067 0.000000 
0.440054 0.766661 0.000000 
0.073629 0.920933 0.000000 
0.132682 0.921813 0.000000 
0.062500 1.000000 0.000000 
0.261473 0.766379 0.000000 
0.198499 0.843882 0.000000 
0.202947 0.765990 0.000000 
0.187500 1.000000 0.000000 
0.193140 0.921957 0.000000 
0.254143 0.921953 0.000000 
0.441392 0.537786 0.000000 
0.441475 0.463015 0.000000 
0.440678 0.689735 0.000000 
0.441128 0.613402 0.000000 
0.323891 0.612989 0.000000 
0.382383 0.613252 0.000000 
0.322564 0.689468 0.000000 
0.318209 0.844076 0.000000 
0.320642 0.766549 0.000000 
0.380224 0.766626 0.000000 
0.018723 0.915213 0.000000 
0.082924 0.841487 0.000000 
0.092337 0.686025 0.000000 
0.088893 0.763121 0.000000 
0.032892 0.759710 0.000000 
0.145361 0.765088 0.000000 
0.206157 0.688603 0.000000 
0.091742 0.388513 0.000000 
0.093349 0.461383 0.000000 
0.035335 0.462388 0.000000 
0.208880 0.461547 0.000000 
0.151137 0.461257 0.000000 
0.208086 0.387887 0.000000 
0.036789 0.609310 0.000000 
0.094167 0.535235 0.000000 
0.093940 0.610096 0.000000 
0.383041 0.462781 0.000000 
0.441390 0.389216 0.000000 
0.265772 0.612581 0.000000 
0.324614 0.537262 0.000000 
0.324471 0.388570 0.000000 
0.324780 0.462420 0.000000 
0.266732 0.461982 0.000000 
0.150903 0.611122 0.000000 
0.208955 0.536260 0.000000 
0.208112 0.611974 0.000000 
0.030764 0.318715 0.000000 
0.089568 0.316621 0.000000 
0.084242 0.175858 0.000000 
0.087016 0.245721 0.000000 
0.024595 0.178495 0.000000 
0.148221 0.315614 0.000000 
0.206755 0.315318 0.000000 
0.075889 -0.026792 0.000000 
0.011558 -0.088910 0.000000 
0.201306 0.104442 0.000000 
0.139138 0.037629 0.000000 
0.017956 0.042296 0.000000 
0.078580 0.039504 0.000000 
0.081391 0.107090 0.000000 
0.382418 0.316200 0.000000 
0.265249 0.315449 0.000000 
0.323783 0.315799 0.000000 
0.322830 0.244176 0.000000 
0.262492 0.173439 0.000000 
0.143792 0.174299 0.000000 
0.203202 0.173562 0.000000 
0.205072 0.243866 0.000000 
0.039719 -0.153666 0.000000 
0.072120 -0.123515 0.000000 
0.041067 -0.122224 0.000000 
0.134215 -0.125586 0.000000 
0.103171 -0.124640 0.000000 
0.102124 -0.156092 0.000000 
0.105332 -0.060516 0.000000 
0.104235 -0.092775 0.000000 
0.136046 -0.061428 0.000000 
0.258291 -0.127592 0.000000 
0.227285 -0.127354 0.000000 
0.226964 -0.158840 0.000000 
0.227993 -0.063067 0.000000 
0.227614 -0.095425 0.000000 
0.258550 -0.063253 0.000000 
0.164553 -0.157824 0.000000 
0.196272 -0.126941 0.000000 
0.165249 -0.126352 0.000000 
0.230394 0.070120 0.000000 
0.229665 0.036307 0.000000 
0.260345 0.070064 0.000000 
0.167548 -0.029465 0.000000 
0.198746 0.003118 0.000000 
0.168425 0.003593 0.000000 
0.259222 0.002713 0.000000 
0.229014 0.002825 0.000000 
0.228456 -0.030308 0.000000 
0.165971 -0.094457 0.000000 
0.197384 -0.062701 0.000000 
0.166733 -0.062155 0.000000 
0.500000 -0.087263 0.000000 
0.476056 -0.120201 0.000000 
0.471979 -0.118597 0.000000 
0.470272 -0.058324 0.000000 
0.471841 -0.090098 0.000000 
0.500000 -0.057745 0.000000 
0.416406 -0.155585 0.000000 
0.443895 -0.121202 0.000000 
0.413069 -0.124450 0.000000 
0.469887 0.072524 0.000000 
0.469801 0.039188 0.000000 
0.500000 0.072646 0.000000 
0.409577 -0.027956 0.000000 
0.439582 0.005703 0.000000 
0.409488 0.004934 0.000000 
0.500000 0.006528 0.000000 
0.469761 0.006282 0.000000 
0.469843 -0.026204 0.000000 
0.289432 -0.159129 0.000000 
0.320301 -0.127493 0.000000 
0.289295 -0.127648 0.000000 
0.382254 -0.126181 0.000000 
0.351302 -0.127061 0.000000 
0.352258 -0.158503 0.000000 
0.349737 -0.062526 0.000000 
0.350359 -0.095023 0.000000 
0.379919 -0.061698 0.000000 
0.440171 -0.059176 0.000000 
0.410030 -0.060509 0.000000 
0.411102 -0.092696 0.000000 
[...]
POINT_DATA 4225

SCALARS u_h float 2
LOOKUP_TABLE default
0.008547 -0.152273 
-0.008547 -0.152273 
0.000000 0.000000 
0.000000 0.000000 
0.000000 -0.100000 
-0.033312 -0.109831 
0.000000 0.000000 
0.033312 -0.109831 
0.000000 -0.110714 
0.008180 -0.159080 
0.000000 -0.143632 
0.011024 -0.145784 
-0.008180 -0.159080 
-0.011024 -0.145784 
-0.021276 -0.140157 
-0.016226 -0.111828 
-0.035704 -0.065963 
-0.014066 -0.060842 
0.000000 0.000000 
0.000000 -0.060233 
0.000000 0.000000 
0.014066 -0.060842 
0.035704 -0.065963 
0.016226 -0.111828 
0.021276 -0.140157 
0.008340 -0.157048 
0.008823 -0.155455 
0.012026 -0.153767 
0.000000 -0.150829 
0.004526 -0.153921 
0.009056 -0.157573 
0.006777 -0.130378 
0.005240 -0.144738 
0.000000 -0.129851 
-0.009056 -0.157573 
-0.004526 -0.153921 
-0.012026 -0.153767 
-0.008823 -0.155455 
-0.008340 -0.157048 
-0.005240 -0.144738 
-0.006777 -0.130378 
-0.014708 -0.149007 
-0.016424 -0.144648 
-0.024963 -0.112097 
-0.021108 -0.130598 
-0.027803 -0.126855 
-0.013954 -0.131140 
-0.007862 -0.111050 
-0.036566 -0.089562 
-0.026534 -0.089336 
-0.014867 -0.031680 
-0.023955 -0.062383 
-0.027684 -0.038453 
-0.016626 -0.088185 
-0.007895 -0.087412 
0.000000 0.000000 
-0.008084 -0.030958 
0.000000 -0.030934 
-0.003654 -0.030926 
0.000000 0.000000 
-0.006487 -0.060357 
0.000000 -0.087145 
0.000000 0.000000 
0.003654 -0.030926 
0.014867 -0.031680 
0.008084 -0.030958 
0.000000 0.000000 
0.006487 -0.060357 
0.007895 -0.087412 
0.027684 -0.038453 
0.023955 -0.062383 
0.024963 -0.112097 
0.026534 -0.089336 
0.036566 -0.089562 
0.016626 -0.088185 
0.007862 -0.111050 
0.027803 -0.126855 
0.021108 -0.130598 
0.016424 -0.144648 
0.014708 -0.149007 
0.013954 -0.131140 
0.008413 -0.154960 
0.010112 -0.156207 
0.010844 -0.154161 
0.008388 -0.158144 
0.009306 -0.157529 
0.008259 -0.158421 
0.012039 -0.150936 
0.010528 -0.154978 
0.009736 -0.151274 
-0.000000 -0.152103 
0.003962 -0.153289 
0.012127 -0.149694 
0.002160 -0.148746 
0.002184 -0.151951 
0.000000 -0.148142 
0.008265 -0.158961 
0.005796 -0.156648 
0.007286 -0.157991 
0.003668 -0.120992 
0.003342 -0.129998 
0.000000 -0.120883 
0.008128 -0.145453 
0.006018 -0.138207 
0.009230 -0.138750 
0.000000 -0.137481 
0.002944 -0.137693 
0.002519 -0.143973 
0.006833 -0.155157 
0.004616 -0.149959 
0.007227 -0.150927 
-0.012127 -0.149694 
-0.003962 -0.153289 
-0.007286 -0.157991 
-0.005796 -0.156648 
-0.008265 -0.158961 
-0.002184 -0.151951 
-0.002160 -0.148746 
-0.010844 -0.154161 
-0.010112 -0.156207 
-0.008413 -0.154960 
-0.009736 -0.151274 
-0.010528 -0.154978 
-0.012039 -0.150936 
-0.008259 -0.158421 
-0.009306 -0.157529 
-0.008388 -0.158144 
-0.003342 -0.129998 
-0.003668 -0.120992 
-0.002519 -0.143973 
-0.002944 -0.137693 
-0.009230 -0.138750 
-0.006018 -0.138207 
-0.008128 -0.145453 
-0.006833 -0.155157 
-0.007227 -0.150927 
-0.004616 -0.149959 
-0.011558 -0.151410 
-0.013389 -0.151792 
-0.018891 -0.142910 
-0.016080 -0.147996 
-0.017956 -0.145204 
-0.014138 -0.149871 
-0.013806 -0.145558 
-0.029242 -0.111487 
-0.027068 -0.120879 
-0.030764 -0.118785 
-0.019255 -0.122182 
-0.023221 -0.121886 
-0.020586 -0.112113 
-0.024595 -0.134005 
-0.024516 -0.129279 
-0.021742 -0.136642 
-0.007418 -0.121300 
-0.003890 -0.110784 
-0.012492 -0.139061 
-0.010330 -0.130824 
-0.011971 -0.111430 
-0.011283 -0.121701 
-0.015249 -0.122051 
-0.018792 -0.138201 
-0.017572 -0.131134 
-0.015702 -0.138938 
-0.035335 -0.100112 
-0.030849 -0.101117 
-0.031440 -0.077404 
-0.031667 -0.089765 
-0.036789 -0.078190 
-0.026137 -0.101243 
-0.021380 -0.100953 
-0.011129 -0.016567 
-0.020424 -0.033513 
-0.018723 -0.022287 
-0.018657 -0.061397 
-0.020361 -0.047412 
-0.015447 -0.046510 
-0.032892 -0.052790 
-0.026393 -0.049379 
-0.029837 -0.063975 
-0.008041 -0.099719 
-0.003975 -0.099485 
-0.016732 -0.100518 
-0.012280 -0.100080 
-0.011391 -0.074511 
-0.012114 -0.087738 
-0.015772 -0.074919 
-0.025903 -0.076378 
-0.020612 -0.075526 
-0.021455 -0.088740 
0.000000 0.000000 
-0.007682 -0.015687 
-0.004143 -0.015547 
-0.005640 -0.015543 
0.000000 0.000000 
-0.010999 -0.031118 
-0.011473 -0.046121 
0.000000 -0.015640 
-0.000915 -0.015634 
0.000000 0.000000 
-0.002554 -0.045839 
-0.001784 -0.030933 
0.000000 -0.045826 
0.000000 0.000000 
-0.001875 -0.015614 
-0.002927 -0.015582 
-0.003892 -0.087214 
0.000000 -0.099405 
-0.010064 -0.060532 
-0.007383 -0.074248 
0.000000 -0.074046 
-0.003628 -0.074098 
-0.003178 -0.060265 
-0.005709 -0.030924 
-0.005224 -0.045874 
-0.008142 -0.045951 
0.000000 0.000000 
0.000915 -0.015634 
0.002927 -0.015582 
0.001875 -0.015614 
0.000000 0.000000 
0.001784 -0.030933 
0.002554 -0.045839 
0.011129 -0.016567 
0.007682 -0.015687 
0.000000 0.000000 
0.011473 -0.046121 
0.010999 -0.031118 
0.015447 -0.046510 
0.000000 0.000000 
0.005640 -0.015543 
0.004143 -0.015547 
0.003892 -0.087214 
0.003975 -0.099485 
0.003178 -0.060265 
0.003628 -0.074098 
0.011391 -0.074511 
0.007383 -0.074248 
0.010064 -0.060532 
0.005709 -0.030924 
0.008142 -0.045951 
0.005224 -0.045874 
0.018723 -0.022287 
0.020424 -0.033513 
0.029837 -0.063975 
0.026393 -0.049379 
0.032892 -0.052790 
0.020361 -0.047412 
0.018657 -0.061397 
0.029242 -0.111487 
0.030849 -0.101117 
0.035335 -0.100112 
0.021380 -0.100953 
0.026137 -0.101243 
0.020586 -0.112113 
0.036789 -0.078190 
0.031667 -0.089765 
0.031440 -0.077404 
0.008041 -0.099719 
0.003890 -0.110784 
0.015772 -0.074919 
0.012114 -0.087738 
0.011971 -0.111430 
0.012280 -0.100080 
0.016732 -0.100518 
0.025903 -0.076378 
0.021455 -0.088740 
0.020612 -0.075526 
0.030764 -0.118785 
0.027068 -0.120879 
0.021742 -0.136642 
0.024516 -0.129279 
0.024595 -0.134005 
0.023221 -0.121886 
0.019255 -0.122182 
0.013389 -0.151792 
0.011558 -0.151410 
0.013806 -0.145558 
0.014138 -0.149871 
0.017956 -0.145204 
0.016080 -0.147996 
0.018891 -0.142910 
0.007418 -0.121300 
0.015249 -0.122051 
0.011283 -0.121701 
0.010330 -0.130824 
0.012492 -0.139061 
0.018792 -0.138201 
0.015702 -0.138938 
0.017572 -0.131134 
0.008469 -0.153666 
0.009620 -0.154765 
0.009817 -0.153474 
0.009215 -0.156836 
0.009421 -0.155890 
0.008374 -0.156092 
0.011582 -0.154266 
0.010485 -0.155275 
0.011046 -0.155178 
0.008291 -0.158842 
0.008535 -0.158604 
0.008214 -0.158840 
0.009243 -0.156817 
0.008864 -0.157925 
0.008550 -0.157003 
0.008303 -0.157824 
0.008772 -0.158191 
0.008999 -0.157602 
0.011644 -0.148630 
0.010915 -0.151193 
0.010345 -0.148686 
0.011298 -0.154465 
0.011246 -0.153132 
0.012175 -0.152657 
0.009222 -0.153537 
0.010264 -0.153425 
0.009706 -0.155308 
0.009721 -0.156957 
0.009884 -0.156451 
0.010483 -0.155905 
-0.000000 -0.118513 
0.007306 -0.151451 
0.003229 -0.118597 
0.001522 -0.152074 
0.003091 -0.152598 
0.000000 -0.151495 
0.010156 -0.155585 
0.006395 -0.152452 
0.006819 -0.155700 
0.001137 -0.146226 
0.001051 -0.148312 
0.000000 -0.146104 
0.003327 -0.152956 
0.002082 -0.150547 
0.003238 -0.151316 
0.000000 -0.149722 
0.001011 -0.149968 
0.001093 -0.151204 
0.008182 -0.159129 
0.007801 -0.158743 
0.008045 -0.158898 
0.007254 -0.157431 
0.007552 -0.158311 
0.008508 -0.158503 
0.005987 -0.156276 
0.006609 -0.157523 
0.004919 -0.155448 
0.002671 -0.152926 
0.003780 -0.154259 
0.004852 -0.155196 
0.001890 -0.115958 
0.001828 -0.120909 
0.000000 -0.115939 
0.005045 -0.130168 
0.003516 -0.125652 
0.005303 -0.125802 
0.000000 -0.125526 
0.001752 -0.125557 
0.001664 -0.129888 
0.009585 -0.145680 
0.008669 -0.142255 
0.010212 -0.142466 
0.005623 -0.141637 
0.007133 -0.141968 
0.006673 -0.145128 
0.008086 -0.134704 
0.007611 -0.138493 
0.006407 -0.134452 
0.000000 -0.140751 
0.001352 -0.140820 
0.001242 -0.143723 
0.001567 -0.133886 
0.001462 -0.137536 
0.000000 -0.133841 
0.003851 -0.144333 
0.002731 -0.141016 
0.004153 -0.141304 
0.004761 -0.134213 
0.004461 -0.137928 
0.003150 -0.134016 
0.007868 -0.158176 
0.005713 -0.154666 
0.006941 -0.156770 
0.007789 -0.156996 
0.007869 -0.155411 
0.002321 -0.146553 
0.004892 -0.147511 
0.003573 -0.147011 
0.003351 -0.149337 
0.004466 -0.152092 
0.009006 -0.148587 
0.008115 -0.153464 
0.008505 -0.151185 
0.007636 -0.148343 
0.006257 -0.147974 
0.005718 -0.152740 
0.005921 -0.150509 
0.006943 -0.153201 
-0.003229 -0.118597 
-0.007306 -0.151451 
-0.006819 -0.155700 
-0.006395 -0.152452 
-0.010156 -0.155585 
-0.003091 -0.152598 
-0.001522 -0.152074 
-0.008045 -0.158898 
-0.007801 -0.158743 
-0.008182 -0.159129 
-0.004919 -0.155448 
-0.006609 -0.157523 
-0.005987 -0.156276 
-0.008508 -0.158503 
-0.007552 -0.158311 
-0.007254 -0.157431 
-0.001051 -0.148312 
-0.001137 -0.146226 
-0.001093 -0.151204 
-0.001011 -0.149968 
-0.003238 -0.151316 
-0.002082 -0.150547 
-0.003327 -0.152956 
-0.004852 -0.155196 
-0.003780 -0.154259 
-0.002671 -0.152926 
-0.009817 -0.153474 
-0.009620 -0.154765 
-0.008469 -0.153666 
-0.011046 -0.155178 
-0.010485 -0.155275 
-0.011582 -0.154266 
-0.008374 -0.156092 
-0.009421 -0.155890 
-0.009215 -0.156836 
-0.010345 -0.148686 
-0.010915 -0.151193 
-0.011644 -0.148630 
-0.009706 -0.155308 
-0.010264 -0.153425 
-0.009222 -0.153537 
-0.012175 -0.152657 
-0.011246 -0.153132 
-0.011298 -0.154465 
-0.008214 -0.158840 
-0.008535 -0.158604 
-0.008291 -0.158842 
-0.008999 -0.157602 
-0.008772 -0.158191 
-0.008303 -0.157824 
-0.008550 -0.157003 
-0.008864 -0.157925 
-0.009243 -0.156817 
-0.010483 -0.155905 
-0.009884 -0.156451 
-0.009721 -0.156957 
-0.001828 -0.120909 
-0.001890 -0.115958 
-0.001664 -0.129888 
-0.001752 -0.125557 
-0.005303 -0.125802 
-0.003516 -0.125652 
-0.005045 -0.130168 
-0.001242 -0.143723 
-0.001352 -0.140820 
-0.004153 -0.141304 
-0.002731 -0.141016 
-0.003851 -0.144333 
-0.001462 -0.137536 
-0.001567 -0.133886 
-0.010212 -0.142466 
-0.008669 -0.142255 
-0.009585 -0.145680 
-0.006407 -0.134452 
-0.007611 -0.138493 
-0.008086 -0.134704 
-0.006673 -0.145128 
-0.007133 -0.141968 
-0.005623 -0.141637 
-0.003150 -0.134016 
-0.004461 -0.137928 
-0.004761 -0.134213 
-0.007868 -0.158176 
-0.007869 -0.155411 
-0.007789 -0.156996 
-0.006941 -0.156770 
-0.005713 -0.154666 
-0.009006 -0.148587 
-0.006257 -0.147974 
-0.007636 -0.148343 
-0.008505 -0.151185 
-0.008115 -0.153464 
-0.002321 -0.146553 
-0.004466 -0.152092 
-0.003351 -0.149337 
-0.003573 -0.147011 
-0.004892 -0.147511 
-0.006943 -0.153201 
-0.005921 -0.150509 
-0.005718 -0.152740 
-0.010021 -0.152041 
-0.011197 -0.152871 
-0.014047 -0.150503 
-0.012607 -0.151874 
-0.013121 -0.150394 
-0.012099 -0.153164 
-0.012720 -0.152878 
-0.020086 -0.141673 
-0.018544 -0.144348 
-0.019610 -0.142827 
-0.016385 -0.146624 
-0.017474 -0.145607 
-0.017674 -0.143893 
-0.016321 -0.147271 
-0.017018 -0.146722 
-0.015518 -0.148780 
-0.012897 -0.148407 
-0.012434 -0.145748 
-0.013057 -0.151992 
-0.013112 -0.150499 
-0.015136 -0.145197 
-0.014103 -0.148007 
-0.015264 -0.147418 
-0.014717 -0.150064 
-0.015124 -0.149041 
-0.013901 -0.151131 
-0.031309 -0.110829 
-0.030178 -0.115525 
-0.032102 -0.114419 
-0.026200 -0.116820 
-0.028212 -0.116305 
-0.027122 -0.111889 
-0.029324 -0.122932 
-0.028934 -0.119995 
-0.027592 -0.124231 
-0.017877 -0.117214 
-0.019975 -0.117286 
-0.018397 -0.111994 
-0.022200 -0.126378 
-0.021248 -0.122103 
-0.020336 -0.126664 
-0.022779 -0.112158 
-0.022070 -0.117267 
-0.024149 -0.117125 
-0.022941 -0.137212 
-0.023175 -0.135477 
-0.021635 -0.138712 
-0.026172 -0.128228 
-0.024694 -0.131979 
-0.026221 -0.130549 
-0.021574 -0.133934 
-0.023148 -0.133093 
-0.022830 -0.130054 
-0.025163 -0.121493 
-0.024033 -0.125906 
-0.025830 -0.125205 
-0.003794 -0.116032 
-0.001940 -0.110716 
-0.007118 -0.125991 
-0.005530 -0.121127 
-0.005862 -0.110898 
-0.005718 -0.116155 
-0.007669 -0.116316 
-0.011748 -0.142574 
-0.010861 -0.138948 
-0.012137 -0.131010 
-0.011510 -0.135129 
-0.013234 -0.135248 
-0.009790 -0.134939 
-0.008541 -0.130605 
-0.014082 -0.111634 
-0.013714 -0.116902 
-0.015786 -0.117078 
-0.009652 -0.116505 
-0.011667 -0.116705 
-0.009898 -0.111232 
-0.014632 -0.126739 
-0.013256 -0.121892 
-0.012725 -0.126596 
-0.008961 -0.126200 
-0.010833 -0.126409 
-0.009336 -0.121497 
-0.020318 -0.139918 
-0.019966 -0.134540 
-0.020284 -0.137539 
-0.018978 -0.140862 
-0.017606 -0.141573 
-0.017252 -0.122155 
-0.015769 -0.131189 
-0.016542 -0.126815 
-0.018447 -0.126800 
-0.019354 -0.130946 
-0.013263 -0.142558 
-0.016196 -0.142077 
-0.014747 -0.142399 
-0.014109 -0.139065 
-0.014951 -0.135274 
-0.018324 -0.134946 
-0.016650 -0.135181 
-0.017264 -0.138658 
-0.034415 -0.105079 
-0.032305 -0.105908 
-0.033758 -0.095387 
-0.033130 -0.100761 
-0.036061 -0.094939 
-0.030130 -0.106424 
-0.027900 -0.106701 
-0.033692 -0.071550 
-0.034170 -0.077874 
-0.036432 -0.072188 
-0.029110 -0.089593 
-0.031702 -0.083714 
-0.029036 -0.083371 
-0.036820 -0.083980 
-0.034313 -0.083948 
-0.034163 -0.089784 
-0.021061 -0.106667 
-0.018789 -0.106502 
-0.025633 -0.106802 
-0.023347 -0.106778 
-0.023971 -0.095216 
-0.023753 -0.101130 
-0.026447 -0.095421 
-0.031371 -0.095565 
-0.028924 -0.095554 
-0.028510 -0.101256 
-0.007207 -0.008888 
-0.014249 -0.018200 
-0.011762 -0.012699 
-0.017383 -0.032339 
-0.016219 -0.025126 
-0.013511 -0.024147 
-0.023816 -0.030686 
-0.019750 -0.027105 
-0.023971 -0.035487 
-0.016278 -0.061079 
-0.017213 -0.054035 
-0.014953 -0.053750 
-0.022384 -0.055011 
-0.019685 -0.054440 
-0.021216 -0.061822 
-0.015457 -0.039144 
-0.017767 -0.046868 
-0.017857 -0.039618 
-0.034547 -0.059504 
-0.031516 -0.058099 
-0.032828 -0.064965 
-0.027211 -0.043405 
-0.029678 -0.050924 
-0.030646 -0.045790 
-0.026848 -0.063100 
-0.028381 -0.056830 
-0.025300 -0.055797 
-0.020625 -0.040390 
-0.023247 -0.048222 
-0.023777 -0.041608 
-0.003952 -0.105263 
-0.001972 -0.105200 
-0.007989 -0.105514 
-0.005955 -0.105370 
-0.005964 -0.093554 
-0.005990 -0.099584 
-0.008012 -0.093681 
-0.016546 -0.106305 
-0.014341 -0.106095 
-0.014480 -0.094240 
-0.014479 -0.100293 
-0.016764 -0.094474 
-0.012179 -0.105885 
-0.010062 -0.105688 
-0.012858 -0.067767 
-0.013529 -0.074694 
-0.015030 -0.067973 
-0.009972 -0.087559 
-0.011826 -0.081227 
-0.009720 -0.081062 
-0.016300 -0.081662 
-0.014017 -0.081426 
-0.014330 -0.087947 
-0.010135 -0.099886 
-0.012262 -0.094027 
-0.010108 -0.093839 
-0.030835 -0.070828 
-0.025114 -0.069508 
-0.027950 -0.070128 
-0.028664 -0.076884 
-0.026364 -0.082988 
-0.017335 -0.068235 
-0.018682 -0.081938 
-0.018132 -0.075194 
-0.019785 -0.068568 
-0.022381 -0.068988 
-0.019035 -0.100742 
-0.023972 -0.089041 
-0.021519 -0.094976 
-0.019113 -0.094723 
-0.019002 -0.088452 
-0.023208 -0.075921 
-0.021161 -0.082254 
-0.023728 -0.082607 
0.000000 0.000000 
-0.005454 -0.008115 
-0.003798 -0.007792 
-0.004481 -0.007877 
0.000000 0.000000 
-0.009117 -0.015944 
-0.011436 -0.023673 
-0.002074 -0.007788 
-0.002422 -0.007774 
0.000000 0.000000 
-0.007211 -0.023288 
-0.004845 -0.015537 
-0.006162 -0.023274 
0.000000 0.000000 
-0.002811 -0.007764 
-0.003261 -0.007765 
-0.013362 -0.046275 
-0.012878 -0.053550 
-0.012776 -0.031316 
-0.013366 -0.038857 
-0.009866 -0.038582 
-0.011520 -0.038685 
-0.009454 -0.031012 
-0.006564 -0.015581 
-0.008398 -0.023335 
-0.009778 -0.023443 
0.000000 -0.007861 
-0.000229 -0.007860 
0.000000 0.000000 
-0.000676 -0.023332 
-0.000455 -0.015639 
0.000000 -0.023333 
0.000000 0.000000 
-0.000460 -0.007857 
-0.000697 -0.007851 
-0.001435 -0.053103 
-0.001270 -0.045830 
0.000000 -0.053096 
-0.002703 -0.030930 
-0.002185 -0.038440 
-0.003309 -0.038444 
0.000000 -0.038435 
-0.001086 -0.038437 
-0.000887 -0.030934 
0.000000 0.000000 
-0.001469 -0.007819 
-0.001759 -0.007804 
-0.000942 -0.007842 
-0.001198 -0.007832 
0.000000 0.000000 
-0.003543 -0.023298 
-0.002386 -0.015599 
-0.002784 -0.023310 
-0.001359 -0.023328 
-0.002059 -0.023321 
-0.001387 -0.015626 
-0.001982 -0.099425 
0.000000 -0.105183 
-0.005873 -0.087297 
-0.003955 -0.093463 
0.000000 -0.093387 
-0.001971 -0.093407 
-0.001939 -0.087163 
-0.012002 -0.060665 
-0.010804 -0.067607 
-0.006983 -0.067385 
-0.008852 -0.067481 
-0.008232 -0.060432 
-0.009348 -0.074364 
-0.007687 -0.080929 
0.000000 -0.067221 
-0.001705 -0.067233 
-0.001581 -0.060242 
-0.001884 -0.080709 
-0.001806 -0.074060 
0.000000 -0.080692 
-0.004808 -0.060303 
-0.003426 -0.067263 
-0.005180 -0.067313 
-0.005713 -0.080827 
-0.005482 -0.074160 
-0.003783 -0.080754 
-0.003509 -0.015564 
-0.004651 -0.030923 
-0.004350 -0.023286 
-0.005216 -0.023276 
-0.006846 -0.030933 
-0.002886 -0.053119 
-0.005898 -0.053182 
-0.004368 -0.053144 
-0.003867 -0.045853 
-0.004472 -0.038451 
-0.010961 -0.053408 
-0.008364 -0.038520 
-0.009743 -0.046019 
-0.009174 -0.053307 
-0.007494 -0.053234 
-0.005690 -0.038463 
-0.006643 -0.045906 
-0.006981 -0.038484 
0.000000 0.000000 
0.000229 -0.007860 
0.000697 -0.007851 
0.000460 -0.007857 
0.000000 0.000000 
0.000455 -0.015639 
0.000676 -0.023332 
0.001759 -0.007804 
0.001469 -0.007819 
0.000000 0.000000 
0.002784 -0.023310 
0.002386 -0.015599 
0.003543 -0.023298 
0.000000 0.000000 
0.001198 -0.007832 
0.000942 -0.007842 
0.001270 -0.045830 
0.001435 -0.053103 
0.000887 -0.030934 
0.001086 -0.038437 
0.003309 -0.038444 
0.002185 -0.038440 
0.002703 -0.030930 
0.001387 -0.015626 
0.002059 -0.023321 
0.001359 -0.023328 
0.007207 -0.008888 
0.005454 -0.008115 
0.000000 0.000000 
0.011436 -0.023673 
0.009117 -0.015944 
0.013511 -0.024147 
0.000000 0.000000 
0.004481 -0.007877 
0.003798 -0.007792 
0.012878 -0.053550 
0.013362 -0.046275 
0.014953 -0.053750 
0.009454 -0.031012 
0.011520 -0.038685 
0.009866 -0.038582 
0.015457 -0.039144 
0.013366 -0.038857 
0.012776 -0.031316 
0.000000 0.000000 
0.002422 -0.007774 
0.002074 -0.007788 
0.003261 -0.007765 
0.002811 -0.007764 
0.000000 0.000000 
0.006162 -0.023274 
0.004845 -0.015537 
0.007211 -0.023288 
0.009778 -0.023443 
0.008398 -0.023335 
0.006564 -0.015581 
0.001982 -0.099425 
0.001972 -0.105200 
0.001939 -0.087163 
0.001972 -0.093407 
0.005964 -0.093554 
0.003955 -0.093463 
0.005873 -0.087297 
0.001581 -0.060242 
0.001705 -0.067233 
0.005180 -0.067313 
0.003426 -0.067263 
0.004808 -0.060303 
0.001806 -0.074060 
0.001884 -0.080709 
0.012858 -0.067767 
0.010804 -0.067607 
0.012002 -0.060665 
0.007687 -0.080929 
0.009348 -0.074364 
0.009720 -0.081062 
0.008232 -0.060432 
0.008852 -0.067481 
0.006983 -0.067385 
0.003783 -0.080754 
0.005482 -0.074160 
0.005713 -0.080827 
0.003509 -0.015564 
0.006846 -0.030933 
0.005216 -0.023276 
0.004350 -0.023286 
0.004651 -0.030923 
0.010961 -0.053408 
0.007494 -0.053234 
0.009174 -0.053307 
0.009743 -0.046019 
0.008364 -0.038520 
0.002886 -0.053119 
0.004472 -0.038451 
0.003867 -0.045853 
0.004368 -0.053144 
0.005898 -0.053182 
0.006981 -0.038484 
0.006643 -0.045906 
0.005690 -0.038463 
0.011762 -0.012699 
0.014249 -0.018200 
0.023971 -0.035487 
0.019750 -0.027105 
0.023816 -0.030686 
0.016219 -0.025126 
0.017383 -0.032339 
0.032828 -0.064965 
0.031516 -0.058099 
0.034547 -0.059504 
0.025300 -0.055797 
0.028381 -0.056830 
0.026848 -0.063100 
0.030646 -0.045790 
0.029678 -0.050924 
0.027211 -0.043405 
0.017213 -0.054035 
0.016278 -0.061079 
0.017857 -0.039618 
0.017767 -0.046868 
0.021216 -0.061822 
0.019685 -0.054440 
0.022384 -0.055011 
0.023777 -0.041608 
0.023247 -0.048222 
0.020625 -0.040390 
0.031309 -0.110829 
0.032305 -0.105908 
0.034415 -0.105079 
0.027900 -0.106701 
0.030130 -0.106424 
0.027122 -0.111889 
0.036061 -0.094939 
0.033130 -0.100761 
0.033758 -0.095387 
0.018789 -0.106502 
0.021061 -0.106667 
0.018397 -0.111994 
0.026447 -0.095421 
0.023753 -0.101130 
0.023971 -0.095216 
0.022779 -0.112158 
0.023347 -0.106778 
0.025633 -0.106802 
0.036432 -0.072188 
0.034170 -0.077874 
0.033692 -0.071550 
0.034163 -0.089784 
0.034313 -0.083948 
0.036820 -0.083980 
0.029036 -0.083371 
0.031702 -0.083714 
0.029110 -0.089593 
0.028510 -0.101256 
0.028924 -0.095554 
0.031371 -0.095565 
0.003952 -0.105263 
0.001940 -0.110716 
0.008012 -0.093681 
0.005990 -0.099584 
0.005862 -0.110898 
0.005955 -0.105370 
0.007989 -0.105514 
0.015030 -0.067973 
0.013529 -0.074694 
0.014330 -0.087947 
0.014017 -0.081426 
0.016300 -0.081662 
0.011826 -0.081227 
0.009972 -0.087559 
0.014082 -0.111634 
0.014341 -0.106095 
0.016546 -0.106305 
0.010062 -0.105688 
0.012179 -0.105885 
0.009898 -0.111232 