# vtk DataFile Version 2.0
Unstructured Grid Example
ASCII
DATASET UNSTRUCTURED_GRID

POINTS 81 float
0.011238 -0.149556 0.000000 
0.988762 -0.149556 0.000000 
1.000000 1.000000 0.000000 
0.000000 1.000000 0.000000 
0.500000 -0.100000 0.000000 
0.971944 0.396084 0.000000 
0.500000 1.000000 0.000000 
0.028056 0.396084 0.000000 
0.500000 0.396791 0.000000 
0.257928 -0.146341 0.000000 
0.500000 0.124110 0.000000 
0.257344 0.114610 0.000000 
0.742072 -0.146341 0.000000 
0.742656 0.114610 0.000000 
0.982905 0.115251 0.000000 
0.736941 0.394703 0.000000 
0.968675 0.687548 0.000000 
0.738159 0.692216 0.000000 
0.750000 1.000000 0.000000 
0.500000 0.693261 0.000000 
0.250000 1.000000 0.000000 
0.261841 0.692216 0.000000 
0.031325 0.687548 0.000000 
0.263059 0.394703 0.000000 
0.017095 0.115251 0.000000 
0.134791 -0.149260 0.000000 
0.255894 -0.018283 0.000000 
0.134360 -0.020683 0.000000 
0.500000 0.000933 0.000000 
0.377075 -0.011620 0.000000 
0.379905 -0.137422 0.000000 
0.379423 0.254961 0.000000 
0.377840 0.118918 0.000000 
0.500000 0.257042 0.000000 
0.620095 -0.137422 0.000000 
0.622925 -0.011620 0.000000 
0.865640 -0.020683 0.000000 
0.744106 -0.018283 0.000000 
0.865209 -0.149260 0.000000 
0.622160 0.118918 0.000000 
0.620577 0.254961 0.000000 
0.987547 -0.019663 0.000000 
0.862837 0.113019 0.000000 
0.854250 0.393774 0.000000 
0.858523 0.251315 0.000000 
0.977030 0.254004 0.000000 
0.739813 0.252313 0.000000 
0.618999 0.396445 0.000000 
0.968204 0.539856 0.000000 
0.852296 0.540143 0.000000 
0.862714 0.845072 0.000000 
0.854402 0.690653 0.000000 
0.976092 0.839963 0.000000 
0.736119 0.541556 0.000000 
0.618493 0.542768 0.000000 
0.875000 1.000000 0.000000 
0.743147 0.845454 0.000000 
0.500000 0.845715 0.000000 
0.621895 0.845546 0.000000 
0.625000 1.000000 0.000000 
0.619560 0.692856 0.000000 
0.500000 0.543312 0.000000 
0.375000 1.000000 0.000000 
0.378105 0.845546 0.000000 
0.137286 0.845072 0.000000 
0.256853 0.845454 0.000000 
0.125000 1.000000 0.000000 
0.380440 0.692856 0.000000 
0.381507 0.542768 0.000000 
0.023908 0.839963 0.000000 
0.145598 0.690653 0.000000 
0.145750 0.393774 0.000000 
0.147704 0.540143 0.000000 
0.031796 0.539856 0.000000 
0.263881 0.541556 0.000000 
0.381001 0.396445 0.000000 
0.022970 0.254004 0.000000 
0.141477 0.251315 0.000000 
0.137163 0.113019 0.000000 
0.012453 -0.019663 0.000000 
0.260187 0.252313 0.000000 

CELLS 128 512
3  0 25 27 
3  9 26 25 
3  11 27 26 
3  25 26 27 
3  4 28 30 
3  10 29 28 
3  9 30 29 
3  28 29 30 
3  8 31 33 
3  11 32 31 
3  10 33 32 
3  31 32 33 
3  9 29 26 
3  10 32 29 
3  11 26 32 
3  29 32 26 
3  4 34 28 
3  12 35 34 
3  10 28 35 
3  34 35 28 
3  1 36 38 
3  13 37 36 
3  12 38 37 
3  36 37 38 
3  8 33 40 
3  10 39 33 
3  13 40 39 
3  33 39 40 
3  12 37 35 
3  13 39 37 
3  10 35 39 
3  37 39 35 
3  1 41 36 
3  14 42 41 
3  13 36 42 
3  41 42 36 
3  5 43 45 
3  15 44 43 
3  14 45 44 
3  43 44 45 
3  8 40 47 
3  13 46 40 
3  15 47 46 
3  40 46 47 
3  14 44 42 
3  15 46 44 
3  13 42 46 
3  44 46 42 
3  5 48 43 
3  16 49 48 
3  15 43 49 
3  48 49 43 
3  2 50 52 
3  17 51 50 
3  16 52 51 
3  50 51 52 
3  8 47 54 
3  15 53 47 
3  17 54 53 
3  47 53 54 
3  16 51 49 
3  17 53 51 
3  15 49 53 
3  51 53 49 
3  2 55 50 
3  18 56 55 
3  17 50 56 
3  55 56 50 
3  6 57 59 
3  19 58 57 
3  18 59 58 
3  57 58 59 
3  8 54 61 
3  17 60 54 
3  19 61 60 
3  54 60 61 
3  18 58 56 
3  19 60 58 
3  17 56 60 
3  58 60 56 
3  6 62 57 
3  20 63 62 
3  19 57 63 
3  62 63 57 
3  3 64 66 
3  21 65 64 
3  20 66 65 
3  64 65 66 
3  8 61 68 
3  19 67 61 
3  21 68 67 
3  61 67 68 
3  20 65 63 
3  21 67 65 
3  19 63 67 
3  65 67 63 
3  3 69 64 
3  22 70 69 
3  21 64 70 
3  69 70 64 
3  7 71 73 
3  23 72 71 
3  22 73 72 
3  71 72 73 
3  8 68 75 
3  21 74 68 
3  23 75 74 
3  68 74 75 
3  22 72 70 
3  23 74 72 
3  21 70 74 
3  72 74 70 
3  7 76 71 
3  24 77 76 
3  23 71 77 
3  76 77 71 
3  0 27 79 
3  11 78 27 
3  24 79 78 
3  27 78 79 
3  8 75 31 
3  23 80 75 
3  11 31 80 
3  75 80 31 
3  24 78 77 
3  11 80 78 
3  23 77 80 
3  78 80 77 

CELL_TYPES 128
5
5
5
5
5
5
5
5
5
5
5
5
5
5
5
5
5
5
5
5
5
5
5
5
5
5
5
5
5
5
5
5
5
5
5
5
5
5
5
5
5
5
5
5
5
5
5
5
5
5
5
5
5
5
5
5
5
5
5
5
5
5
5
5
5
5
5
5
5
5
5
5
5
5
5
5
5
5
5
5
5
5
5
5
5
5
5
5
5
5
5
5
5
5
5
5
5
5
5
5
5
5
5
5
5
5
5
5
5
5
5
5
5
5
5
5
5
5
5
5
5
5
5
5
5
5
5
5

POINT_DATA 81

SCALARS u_h float 2
LOOKUP_TABLE default
0.011238 -0.149556 
-0.011238 -0.149556 
0.000000 0.000000 
0.000000 0.000000 
-0.000000 -0.100000 
-0.028056 -0.103916 
0.000000 0.000000 
0.028056 -0.103916 
-0.000000 -0.103209 
0.007928 -0.146341 
-0.000000 -0.125890 
0.007344 -0.135390 
-0.007928 -0.146341 
-0.007344 -0.135390 
-0.017095 -0.134749 
-0.013059 -0.105297 
-0.031325 -0.062452 
-0.011841 -0.057784 
0.000000 0.000000 
-0.000000 -0.056739 
0.000000 0.000000 
0.011841 -0.057784 
0.031325 -0.062452 
0.013059 -0.105297 
0.017095 -0.134749 
0.009791 -0.149260 
0.005894 -0.143283 
0.009360 -0.145683 
-0.000000 -0.124067 
0.002075 -0.136620 
0.004905 -0.137422 
0.004423 -0.120039 
0.002840 -0.131082 
-0.000000 -0.117958 
-0.004905 -0.137422 
-0.002075 -0.136620 
-0.009360 -0.145683 
-0.005894 -0.143283 
-0.009791 -0.149260 
-0.002840 -0.131082 
-0.004423 -0.120039 
-0.012453 -0.144663 
-0.012163 -0.136981 
-0.020750 -0.106226 
-0.016477 -0.123685 
-0.022970 -0.120996 
-0.010187 -0.122687 
-0.006001 -0.103555 
-0.031796 -0.085144 
-0.022704 -0.084857 
-0.012286 -0.029928 
-0.020598 -0.059347 
-0.023908 -0.035037 
-0.013881 -0.083444 
-0.006507 -0.082232 
0.000000 0.000000 
-0.006853 -0.029546 
-0.000000 -0.029285 
-0.003105 -0.029454 
0.000000 0.000000 
-0.005440 -0.057144 
-0.000000 -0.081688 
0.000000 0.000000 
0.003105 -0.029454 
0.012286 -0.029928 
0.006853 -0.029546 
0.000000 0.000000 
0.005440 -0.057144 
0.006507 -0.082232 
0.023908 -0.035037 
0.020598 -0.059347 
0.020750 -0.106226 
0.022704 -0.084857 
0.031796 -0.085144 
0.013881 -0.083444 
0.006001 -0.103555 
0.022970 -0.120996 
0.016477 -0.123685 
0.012163 -0.136981 
0.012453 -0.144663 
0.010187 -0.122687 

CELL_DATA 128

SCALARS epsilon float 4
LOOKUP_TABLE default
-0.011625 0.028216 0.000000 -0.000593
-0.014512 0.024806 0.000000 0.003141
-0.028269 0.061118 0.000000 0.014968
-0.028045 0.028456 0.000000 0.007554
-0.040012 -0.135556 0.000000 0.185070
-0.016740 -0.009321 0.000000 0.050942
-0.022564 0.010665 0.000000 0.023829
-0.014185 0.013810 0.000000 0.038372
-0.036007 0.111232 0.000000 0.007436
-0.037019 0.084593 0.000000 0.022333
-0.022978 0.062246 0.000000 0.019519
-0.036135 0.084393 0.000000 0.014158
-0.030006 0.026472 0.000000 0.017602
-0.023209 0.043905 0.000000 0.023002
-0.037002 0.061337 0.000000 0.022179
-0.031316 0.044390 0.000000 0.028644
-0.040012 -0.135556 0.000000 -0.185070
-0.022564 0.010665 0.000000 -0.023829
-0.016740 -0.009321 0.000000 -0.050942
-0.014185 0.013810 0.000000 -0.038372
-0.011625 0.028216 0.000000 0.000593
-0.028269 0.061118 0.000000 -0.014968
-0.014512 0.024806 0.000000 -0.003141
-0.028045 0.028456 0.000000 -0.007554
-0.036007 0.111232 0.000000 -0.007436
-0.022978 0.062246 0.000000 -0.019519
-0.037019 0.084593 0.000000 -0.022333
-0.036135 0.084393 0.000000 -0.014158
-0.030006 0.026472 0.000000 -0.017602
-0.037002 0.061337 0.000000 -0.022179
-0.023209 0.043905 0.000000 -0.023002
-0.031316 0.044390 0.000000 -0.028644
-0.024923 0.038490 0.000000 -0.001051
-0.038958 0.076965 0.000000 -0.010970
-0.039336 0.067009 0.000000 -0.017551
-0.024641 0.067414 0.000000 -0.007632
-0.058735 0.128280 0.000000 -0.013192
-0.063134 0.129853 0.000000 -0.021187
-0.051340 0.105190 0.000000 -0.014877
-0.052115 0.130931 0.000000 -0.008343
-0.049124 0.123267 0.000000 -0.007764
-0.047399 0.096247 0.000000 -0.021416
-0.058119 0.129382 0.000000 -0.018088
-0.047355 0.123243 0.000000 -0.015866
-0.039132 0.101474 0.000000 -0.009742
-0.051524 0.129451 0.000000 -0.015410
-0.039339 0.096300 0.000000 -0.017497
-0.051303 0.100528 0.000000 -0.021601
-0.059267 0.139737 0.000000 -0.007610
-0.075351 0.165457 0.000000 0.001019
-0.063413 0.156570 0.000000 -0.011314
-0.075294 0.156621 0.000000 -0.009225
-0.077225 0.249889 0.000000 0.084319
-0.070104 0.209417 0.000000 0.029414
-0.086741 0.197574 0.000000 0.021289
-0.093101 0.211657 0.000000 0.018920
-0.049163 0.156337 0.000000 -0.003263
-0.058116 0.159880 0.000000 -0.009317
-0.060483 0.184993 0.000000 0.004417
-0.060754 0.156348 0.000000 -0.006229
-0.088970 0.184481 0.000000 -0.001278
-0.072209 0.185060 0.000000 0.003363
-0.073105 0.159869 0.000000 -0.008246
-0.072773 0.184074 0.000000 0.004133
0.003144 0.211832 0.000000 0.047310
0.000983 0.209451 0.000000 0.026412
-0.043721 0.201359 0.000000 0.018902
-0.040715 0.212080 0.000000 0.048224
0.000000 0.207828 0.000000 0.000000
-0.025149 0.196290 0.000000 -0.000554
0.000202 0.208882 0.000000 0.011969
-0.024909 0.208910 0.000000 0.011727
-0.053410 0.157670 0.000000 -0.001850
-0.052450 0.181176 0.000000 0.002249
-0.044464 0.180235 0.000000 -0.001348
-0.053350 0.181168 0.000000 0.002573
-0.029358 0.209484 0.000000 0.026933
-0.044284 0.197842 0.000000 0.008118
-0.051753 0.201434 0.000000 0.018230
-0.030300 0.197799 0.000000 0.009012
0.000000 0.207828 0.000000 0.000000
0.000202 0.208882 0.000000 -0.011969
-0.025149 0.196290 0.000000 0.000554
-0.024909 0.208910 0.000000 -0.011727
0.003144 0.211832 0.000000 -0.047310
-0.043721 0.201359 0.000000 -0.018902
0.000983 0.209451 0.000000 -0.026412
-0.040715 0.212080 0.000000 -0.048224
-0.053410 0.157670 0.000000 0.001850
-0.044464 0.180235 0.000000 0.001348
-0.052450 0.181176 0.000000 -0.002249
-0.053350 0.181168 0.000000 -0.002573
-0.029358 0.209484 0.000000 -0.026933
-0.051753 0.201434 0.000000 -0.018230
-0.044284 0.197842 0.000000 -0.008118
-0.030300 0.197799 0.000000 -0.009012
-0.077225 0.249889 0.000000 -0.084319
-0.086741 0.197574 0.000000 -0.021289
-0.070104 0.209417 0.000000 -0.029414
-0.093101 0.211657 0.000000 -0.018920
-0.059267 0.139737 0.000000 0.007610
-0.063413 0.156570 0.000000 0.011314
-0.075351 0.165457 0.000000 -0.001019
-0.075294 0.156621 0.000000 0.009225
-0.049163 0.156337 0.000000 0.003263
-0.060483 0.184993 0.000000 -0.004417
-0.058116 0.159880 0.000000 0.009317
-0.060754 0.156348 0.000000 0.006229
-0.088970 0.184481 0.000000 0.001278
-0.073105 0.159869 0.000000 0.008246
-0.072209 0.185060 0.000000 -0.003363
-0.072773 0.184074 0.000000 -0.004133
-0.058735 0.128280 0.000000 0.013192
-0.051340 0.105190 0.000000 0.014877
-0.063134 0.129853 0.000000 0.021187
-0.052115 0.130931 0.000000 0.008343
-0.024923 0.038490 0.000000 0.001051
-0.039336 0.067009 0.000000 0.017551
-0.038958 0.076965 0.000000 0.010970
-0.024641 0.067414 0.000000 0.007632
-0.049124 0.123267 0.000000 0.007764
-0.058119 0.129382 0.000000 0.018088
-0.047399 0.096247 0.000000 0.021416
-0.047355 0.123243 0.000000 0.015866
-0.039132 0.101474 0.000000 0.009742
-0.039339 0.096300 0.000000 0.017497
-0.051524 0.129451 0.000000 0.015410
-0.051303 0.100528 0.000000 0.021601

SCALARS sigma float 4
LOOKUP_TABLE default
-0.024469 0.646183 0.165912 -0.008157
-0.131876 0.521282 0.102938 0.062551
-0.126686 1.412355 0.328487 0.263144
-0.440479 0.483484 0.004109 0.129407
-1.142091 -3.030081 -1.755679 1.375741
-0.439525 -0.407354 -0.260608 0.778500
-0.449388 0.047369 -0.118987 0.385834
-0.169235 0.210298 -0.003750 0.642701
0.157682 2.848370 0.752246 0.157243
-0.114361 2.018013 0.475745 0.413634
0.028261 1.497845 0.392676 0.369171
-0.102288 2.020599 0.482581 0.253233
-0.495818 0.403937 -0.035341 0.301225
-0.154234 0.968358 0.206955 0.406101
-0.337507 1.327148 0.243355 0.392015
-0.345911 0.897737 0.130739 0.500035
-1.142091 -3.030081 -1.755679 -1.375741
-0.449388 0.047369 -0.118987 -0.385834
-0.439525 -0.407354 -0.260608 -0.778500
-0.169235 0.210298 -0.003750 -0.642701
-0.024469 0.646183 0.165912 0.008157
-0.126686 1.412355 0.328487 -0.263144
-0.131876 0.521282 0.102938 -0.062551
-0.440479 0.483484 0.004109 -0.129407
0.157682 2.848370 0.752246 -0.157243
0.028261 1.497845 0.392676 -0.369171
-0.114361 2.018013 0.475745 -0.413634
-0.102288 2.020599 0.482581 -0.253233
-0.495818 0.403937 -0.035341 -0.301225
-0.337507 1.327148 0.243355 -0.392015
-0.154234 0.968358 0.206955 -0.406101
-0.345911 0.897737 0.130739 -0.500035
-0.266309 0.796019 0.135668 -0.010621
-0.251472 1.770402 0.380074 -0.144370
-0.349934 1.471139 0.276731 -0.293241
0.022032 1.636059 0.427725 -0.110011
-0.255123 3.145679 0.695442 -0.154775
-0.341560 3.150066 0.667192 -0.344047
-0.292138 2.500835 0.538502 -0.184635
-0.065648 3.301263 0.788163 -0.071010
-0.060630 3.086326 0.741430 -0.128015
-0.267672 2.264352 0.488484 -0.375760
-0.222210 3.186274 0.712627 -0.315546
-0.011762 3.106416 0.758887 -0.302116
-0.020283 2.513894 0.623419 -0.114900
-0.060369 3.261671 0.779270 -0.260714
-0.069040 2.352793 0.569614 -0.301199
-0.327827 2.357854 0.492250 -0.351655
-0.159113 3.505498 0.804702 -0.064304
-0.308489 4.169997 0.901059 0.007823
-0.100015 4.012533 0.931577 -0.197046
-0.388162 3.877655 0.813263 -0.146568
0.368033 7.356721 1.726643 1.047626
0.220030 5.778012 1.393131 0.393905
-0.292939 5.154004 1.108337 0.220081
-0.318521 5.571379 1.185554 0.109845
0.252206 4.165652 1.071742 -0.059853
0.062597 4.181938 1.017641 -0.189396
0.236725 5.009316 1.245102 0.031342
-0.036998 4.033277 0.955937 -0.126724
-0.456419 4.656228 0.955114 -0.108810
-0.052146 4.874053 1.128513 0.004566
-0.304712 4.009359 0.867633 -0.161108
-0.075063 4.833739 1.113006 0.020893
2.201334 6.771720 2.149766 0.775892
2.120471 6.617550 2.104345 0.433155
0.819600 5.788658 1.576383 0.283214
0.996623 6.261276 1.713643 0.741750
2.078276 6.528087 2.078276 0.000000
1.265881 5.818449 1.711410 -0.014449
2.094156 6.572449 2.090842 0.196289
1.394857 6.274452 1.840006 0.181527
0.157636 4.161321 1.042600 -0.042883
0.403874 4.970817 1.287260 0.015759
0.599966 5.031279 1.357707 -0.033292
0.380955 4.960082 1.278183 0.023634
1.278775 6.258280 1.801261 0.424876
0.772162 5.649371 1.535574 0.113831
0.611880 5.695865 1.496810 0.261762
1.141574 5.813289 1.674991 0.140206
2.078276 6.528087 2.078276 0.000000
2.094156 6.572449 2.090842 -0.196289
1.265881 5.818449 1.711410 0.014449
1.394857 6.274452 1.840006 -0.181527
2.201334 6.771720 2.149766 -0.775892
0.819600 5.788658 1.576383 -0.283214
2.120471 6.617550 2.104345 -0.433155
0.996623 6.261276 1.713643 -0.741750
0.157636 4.161321 1.042600 0.042883
0.599966 5.031279 1.357707 0.033292
0.403874 4.970817 1.287260 -0.015759
0.380955 4.960082 1.278183 -0.023634
1.278775 6.258280 1.801261 -0.424876
0.611880 5.695865 1.496810 -0.261762
0.772162 5.649371 1.535574 -0.113831
1.141574 5.813289 1.674991 -0.140206
0.368033 7.356721 1.726643 -1.047626
-0.292939 5.154004 1.108337 -0.220081
0.220030 5.778012 1.393131 -0.393905
-0.318521 5.571379 1.185554 -0.109845
-0.159113 3.505498 0.804702 0.064304
-0.100015 4.012533 0.931577 0.197046
-0.308489 4.169997 0.901059 -0.007823
-0.388162 3.877655 0.813263 0.146568
0.252206 4.165652 1.071742 0.059853
0.236725 5.009316 1.245102 -0.031342
0.062597 4.181938 1.017641 0.189396
-0.036998 4.033277 0.955937 0.126724
-0.456419 4.656228 0.955114 0.108810
-0.304712 4.009359 0.867633 0.161108
-0.052146 4.874053 1.128513 -0.004566
-0.075063 4.833739 1.113006 -0.020893
-0.255123 3.145679 0.695442 0.154775
-0.292138 2.500835 0.538502 0.184635
-0.341560 3.150066 0.667192 0.344047
-0.065648 3.301263 0.788163 0.071010
-0.266309 0.796019 0.135668 0.010621
-0.349934 1.471139 0.276731 0.293241
-0.251472 1.770402 0.380074 0.144370
0.022032 1.636059 0.427725 0.110011
-0.060630 3.086326 0.741430 0.128015
-0.222210 3.186274 0.712627 0.315546
-0.267672 2.264352 0.488484 0.375760
-0.011762 3.106416 0.758887 0.302116
-0.020283 2.513894 0.623419 0.114900
-0.069040 2.352793 0.569614 0.301199
-0.060369 3.261671 0.779270 0.260714
-0.327827 2.357854 0.492250 0.351655

