# vtk DataFile Version 2.0
Unstructured Grid Example
ASCII
DATASET UNSTRUCTURED_GRID

POINTS 128 float
0.000000 0.000000 0.000000 
0.015625 0.000000 0.000000 
0.015625 0.000000 0.000000 
0.031250 0.000000 0.000000 
0.031250 0.000000 0.000000 
0.046875 0.000000 0.000000 
0.046875 0.000000 0.000000 
0.062500 0.000000 0.000000 
0.093750 0.000000 0.000000 
0.109375 0.000000 0.000000 
0.109375 0.000000 0.000000 
0.125000 0.000000 0.000000 
0.062500 0.000000 0.000000 
0.078125 0.000000 0.000000 
0.078125 0.000000 0.000000 
0.093750 0.000000 0.000000 
0.218750 0.000000 0.000000 
0.234375 0.000000 0.000000 
0.234375 0.000000 0.000000 
0.250000 0.000000 0.000000 
0.187500 0.000000 0.000000 
0.203125 0.000000 0.000000 
0.203125 0.000000 0.000000 
0.218750 0.000000 0.000000 
0.125000 0.000000 0.000000 
0.140625 0.000000 0.000000 
0.140625 0.000000 0.000000 
0.156250 0.000000 0.000000 
0.156250 0.000000 0.000000 
0.171875 0.000000 0.000000 
0.171875 0.000000 0.000000 
0.187500 0.000000 0.000000 
0.468750 -10.730741 0.000000 
0.484375 -10.592515 0.000000 
0.484375 -10.683799 0.000000 
0.500000 -10.548173 0.000000 
0.437500 -11.038472 0.000000 
0.453125 -10.640469 0.000000 
0.453125 -10.861607 0.000000 
0.468750 -10.596196 0.000000 
0.375000 -12.487358 0.000000 
0.390625 -11.233037 0.000000 
0.390625 -11.970196 0.000000 
0.406250 -11.013040 0.000000 
0.406250 -11.575421 0.000000 
0.421875 -10.845435 0.000000 
0.421875 -11.271722 0.000000 
0.437500 -10.722845 0.000000 
0.250000 33.401702 0.000000 
0.265625 -66.803403 0.000000 
0.265625 -42.914981 0.000000 
0.281250 -14.375143 0.000000 
0.281250 -29.250909 0.000000 
0.296875 -13.163448 0.000000 
0.296875 -21.080036 0.000000 
0.312500 -13.417734 0.000000 
0.343750 -14.119838 0.000000 
0.359375 -11.874302 0.000000 
0.359375 -13.176377 0.000000 
0.375000 -11.515688 0.000000 
0.312500 -17.524475 0.000000 
0.328125 -12.866554 0.000000 
0.328125 -15.467063 0.000000 
0.343750 -12.323458 0.000000 
0.500000 -10.548173 0.000000 
0.515625 -10.683799 0.000000 
0.515625 -10.592515 0.000000 
0.531250 -10.730741 0.000000 
0.531250 -10.596196 0.000000 
0.546875 -10.861607 0.000000 
0.546875 -10.640469 0.000000 
0.562500 -11.038472 0.000000 
0.593750 -11.013040 0.000000 
0.609375 -11.970196 0.000000 
0.609375 -11.233037 0.000000 
0.625000 -12.487358 0.000000 
0.562500 -10.722845 0.000000 
0.578125 -11.271722 0.000000 
0.578125 -10.845435 0.000000 
0.593750 -11.575421 0.000000 
0.718750 -14.375143 0.000000 
0.734375 -42.914981 0.000000 
0.734375 -66.803403 0.000000 
0.750000 33.401702 0.000000 
0.687500 -13.417734 0.000000 
0.703125 -21.080036 0.000000 
0.703125 -13.163448 0.000000 
0.718750 -29.250909 0.000000 
0.625000 -11.515688 0.000000 
0.640625 -13.176377 0.000000 
0.640625 -11.874302 0.000000 
0.656250 -14.119838 0.000000 
0.656250 -12.323458 0.000000 
0.671875 -15.467063 0.000000 
0.671875 -12.866554 0.000000 
0.687500 -17.524475 0.000000 
0.968750 0.000000 0.000000 
0.984375 0.000000 0.000000 
0.984375 0.000000 0.000000 
1.000000 0.000000 0.000000 
0.937500 0.000000 0.000000 
0.953125 0.000000 0.000000 
0.953125 0.000000 0.000000 
0.968750 0.000000 0.000000 
0.875000 0.000000 0.000000 
0.890625 0.000000 0.000000 
0.890625 0.000000 0.000000 
0.906250 0.000000 0.000000 
0.906250 0.000000 0.000000 
0.921875 0.000000 0.000000 
0.921875 0.000000 0.000000 
0.937500 0.000000 0.000000 
0.750000 0.000000 0.000000 
0.765625 0.000000 0.000000 
0.765625 0.000000 0.000000 
0.781250 0.000000 0.000000 
0.781250 0.000000 0.000000 
0.796875 0.000000 0.000000 
0.796875 0.000000 0.000000 
0.812500 0.000000 0.000000 
0.843750 0.000000 0.000000 
0.859375 0.000000 0.000000 
0.859375 0.000000 0.000000 
0.875000 0.000000 0.000000 
0.812500 0.000000 0.000000 
0.828125 0.000000 0.000000 
0.828125 0.000000 0.000000 
0.843750 0.000000 0.000000 

CELLS 64 192
2  0 1 
2  2 3 
2  4 5 
2  6 7 
2  8 9 
2  10 11 
2  12 13 
2  14 15 
2  16 17 
2  18 19 
2  20 21 
2  22 23 
2  24 25 
2  26 27 
2  28 29 
2  30 31 
2  32 33 
2  34 35 
2  36 37 
2  38 39 
2  40 41 
2  42 43 
2  44 45 
2  46 47 
2  48 49 
2  50 51 
2  52 53 
2  54 55 
2  56 57 
2  58 59 
2  60 61 
2  62 63 
2  64 65 
2  66 67 
2  68 69 
2  70 71 
2  72 73 
2  74 75 
2  76 77 
2  78 79 
2  80 81 
2  82 83 
2  84 85 
2  86 87 
2  88 89 
2  90 91 
2  92 93 
2  94 95 
2  96 97 
2  98 99 
2  100 101 
2  102 103 
2  104 105 
2  106 107 
2  108 109 
2  110 111 
2  112 113 
2  114 115 
2  116 117 
2  118 119 
2  120 121 
2  122 123 
2  124 125 
2  126 127 

CELL_TYPES 64
3
3
3
3
3
3
3
3
3
3
3
3
3
3
3
3
3
3
3
3
3
3
3
3
3
3
3
3
3
3
3
3
3
3
3
3
3
3
3
3
3
3
3
3
3
3
3
3
3
3
3
3
3
3
3
3
3
3
3
3
3
3
3
3

POINT_DATA 128

SCALARS lambda_h float 1
LOOKUP_TABLE default
0.000000 
0.000000 
0.000000 
0.000000 
0.000000 
0.000000 
0.000000 
0.000000 
0.000000 
0.000000 
0.000000 
0.000000 
0.000000 
0.000000 
0.000000 
0.000000 
0.000000 
0.000000 
0.000000 
0.000000 
0.000000 
0.000000 
0.000000 
0.000000 
0.000000 
0.000000 
0.000000 
0.000000 
0.000000 
0.000000 
0.000000 
0.000000 
-10.730741 
-10.592515 
-10.683799 
-10.548173 
-11.038472 
-10.640469 
-10.861607 
-10.596196 
-12.487358 
-11.233037 
-11.970196 
-11.013040 
-11.575421 
-10.845435 
-11.271722 
-10.722845 
33.401702 
-66.803403 
-42.914981 
-14.375143 
-29.250909 
-13.163448 
-21.080036 
-13.417734 
-14.119838 
-11.874302 
-13.176377 
-11.515688 
-17.524475 
-12.866554 
-15.467063 
-12.323458 
-10.548173 
-10.683799 
-10.592515 
-10.730741 
-10.596196 
-10.861607 
-10.640469 
-11.038472 
-11.013040 
-11.970196 
-11.233037 
-12.487358 
-10.722845 
-11.271722 
-10.845435 
-11.575421 
-14.375143 
-42.914981 
-66.803403 
33.401702 
-13.417734 
-21.080036 
-13.163448 
-29.250909 
-11.515688 
-13.176377 
-11.874302 
-14.119838 
-12.323458 
-15.467063 
-12.866554 
-17.524475 
0.000000 
0.000000 
0.000000 
0.000000 
0.000000 
0.000000 
0.000000 
0.000000 
0.000000 
0.000000 
0.000000 
0.000000 
0.000000 
0.000000 
0.000000 
0.000000 
0.000000 
0.000000 
0.000000 
0.000000 
0.000000 
0.000000 
0.000000 
0.000000 
0.000000 
0.000000 
0.000000 
0.000000 
0.000000 
0.000000 
0.000000 
0.000000 

