# vtk DataFile Version 2.0
Unstructured Grid Example
ASCII
DATASET UNSTRUCTURED_GRID

POINTS 256 float
0.000000 0.000000 0.000000 
0.007812 0.000000 0.000000 
0.007812 0.000000 0.000000 
0.015625 0.000000 0.000000 
0.015625 0.000000 0.000000 
0.023438 0.000000 0.000000 
0.023438 0.000000 0.000000 
0.031250 0.000000 0.000000 
0.046875 0.000000 0.000000 
0.054688 0.000000 0.000000 
0.054688 0.000000 0.000000 
0.062500 0.000000 0.000000 
0.031250 0.000000 0.000000 
0.039062 0.000000 0.000000 
0.039062 0.000000 0.000000 
0.046875 0.000000 0.000000 
0.109375 0.000000 0.000000 
0.117188 0.000000 0.000000 
0.117188 0.000000 0.000000 
0.125000 0.000000 0.000000 
0.093750 0.000000 0.000000 
0.101562 0.000000 0.000000 
0.101562 0.000000 0.000000 
0.109375 0.000000 0.000000 
0.062500 0.000000 0.000000 
0.070312 0.000000 0.000000 
0.070312 0.000000 0.000000 
0.078125 0.000000 0.000000 
0.078125 0.000000 0.000000 
0.085938 0.000000 0.000000 
0.085938 0.000000 0.000000 
0.093750 0.000000 0.000000 
0.234375 0.000000 0.000000 
0.242188 0.000000 0.000000 
0.242188 0.000000 0.000000 
0.250000 0.000000 0.000000 
0.218750 0.000000 0.000000 
0.226562 0.000000 0.000000 
0.226562 0.000000 0.000000 
0.234375 0.000000 0.000000 
0.187500 0.000000 0.000000 
0.195312 0.000000 0.000000 
0.195312 0.000000 0.000000 
0.203125 0.000000 0.000000 
0.203125 0.000000 0.000000 
0.210938 0.000000 0.000000 
0.210938 0.000000 0.000000 
0.218750 0.000000 0.000000 
0.125000 0.000000 0.000000 
0.132812 0.000000 0.000000 
0.132812 0.000000 0.000000 
0.140625 0.000000 0.000000 
0.140625 0.000000 0.000000 
0.148438 0.000000 0.000000 
0.148438 0.000000 0.000000 
0.156250 0.000000 0.000000 
0.171875 0.000000 0.000000 
0.179688 0.000000 0.000000 
0.179688 0.000000 0.000000 
0.187500 0.000000 0.000000 
0.156250 0.000000 0.000000 
0.164062 0.000000 0.000000 
0.164062 0.000000 0.000000 
0.171875 0.000000 0.000000 
0.484375 -10.622454 0.000000 
0.492188 -10.589975 0.000000 
0.492188 -10.625123 0.000000 
0.500000 -10.552160 0.000000 
0.468750 -10.692264 0.000000 
0.476562 -10.602198 0.000000 
0.476562 -10.652811 0.000000 
0.484375 -10.591036 0.000000 
0.437500 -10.954281 0.000000 
0.445312 -10.740166 0.000000 
0.445312 -10.871647 0.000000 
0.453125 -10.691319 0.000000 
0.453125 -10.801007 0.000000 
0.460938 -10.652271 0.000000 
0.460938 -10.741457 0.000000 
0.468750 -10.622634 0.000000 
0.375000 -12.247624 0.000000 
0.382812 -11.588577 0.000000 
0.382812 -11.999843 0.000000 
0.390625 -11.425090 0.000000 
0.390625 -11.784098 0.000000 
0.398438 -11.281828 0.000000 
0.398438 -11.595666 0.000000 
0.406250 -11.156423 0.000000 
0.421875 -11.160188 0.000000 
0.429688 -10.869597 0.000000 
0.429688 -11.050012 0.000000 
0.437500 -10.799358 0.000000 
0.406250 -11.430789 0.000000 
0.414062 -11.046934 0.000000 
0.414062 -11.286447 0.000000 
0.421875 -10.951763 0.000000 
0.250000 5.925329 0.000000 
0.257812 -11.850657 0.000000 
0.257812 34.410263 0.000000 
0.265625 -86.596511 0.000000 
0.265625 -63.051030 0.000000 
0.273438 -12.680699 0.000000 
0.273438 -35.203951 0.000000 
0.281250 -18.004525 0.000000 
0.296875 -19.960700 0.000000 
0.304688 -15.538297 0.000000 
0.304688 -18.118886 0.000000 
0.312500 -14.799524 0.000000 
0.281250 -26.914742 0.000000 
0.289062 -17.383518 0.000000 
0.289062 -22.634619 0.000000 
0.296875 -16.412539 0.000000 
0.359375 -12.865087 0.000000 
0.367188 -11.988499 0.000000 
0.367188 -12.533449 0.000000 
0.375000 -11.775187 0.000000 
0.343750 -13.710198 0.000000 
0.351562 -12.514138 0.000000 
0.351562 -13.252758 0.000000 
0.359375 -12.232958 0.000000 
0.312500 -16.768835 0.000000 
0.320312 -14.180262 0.000000 
0.320312 -15.735214 0.000000 
0.328125 -13.658933 0.000000 
0.328125 -14.918123 0.000000 
0.335938 -13.216832 0.000000 
0.335938 -14.256348 0.000000 
0.343750 -12.839093 0.000000 
0.500000 -10.552160 0.000000 
0.507812 -10.625123 0.000000 
0.507812 -10.589975 0.000000 
0.515625 -10.622454 0.000000 
0.515625 -10.591036 0.000000 
0.523438 -10.652811 0.000000 
0.523438 -10.602198 0.000000 
0.531250 -10.692264 0.000000 
0.546875 -10.691319 0.000000 
0.554688 -10.871647 0.000000 
0.554688 -10.740166 0.000000 
0.562500 -10.954281 0.000000 
0.531250 -10.622634 0.000000 
0.539062 -10.741457 0.000000 
0.539062 -10.652271 0.000000 
0.546875 -10.801007 0.000000 
0.609375 -11.425090 0.000000 
0.617188 -11.999843 0.000000 
0.617188 -11.588577 0.000000 
0.625000 -12.247624 0.000000 
0.593750 -11.156423 0.000000 
0.601562 -11.595666 0.000000 
0.601562 -11.281828 0.000000 
0.609375 -11.784098 0.000000 
0.562500 -10.799358 0.000000 
0.570312 -11.050012 0.000000 
0.570312 -10.869597 0.000000 
0.578125 -11.160188 0.000000 
0.578125 -10.951763 0.000000 
0.585938 -11.286447 0.000000 
0.585938 -11.046934 0.000000 
0.593750 -11.430789 0.000000 
0.734375 -86.596511 0.000000 
0.742188 34.410263 0.000000 
0.742188 -11.850657 0.000000 
0.750000 5.925329 0.000000 
0.718750 -18.004525 0.000000 
0.726562 -35.203951 0.000000 
0.726562 -12.680699 0.000000 
0.734375 -63.051030 0.000000 
0.687500 -14.799524 0.000000 
0.695312 -18.118886 0.000000 
0.695312 -15.538297 0.000000 
0.703125 -19.960700 0.000000 
0.703125 -16.412539 0.000000 
0.710938 -22.634619 0.000000 
0.710938 -17.383518 0.000000 
0.718750 -26.914742 0.000000 
0.625000 -11.775187 0.000000 
0.632812 -12.533449 0.000000 
0.632812 -11.988499 0.000000 
0.640625 -12.865087 0.000000 
0.640625 -12.232958 0.000000 
0.648438 -13.252758 0.000000 
0.648438 -12.514138 0.000000 
0.656250 -13.710198 0.000000 
0.671875 -13.658933 0.000000 
0.679688 -15.735214 0.000000 
0.679688 -14.180262 0.000000 
0.687500 -16.768835 0.000000 
0.656250 -12.839093 0.000000 
0.664062 -14.256348 0.000000 
0.664062 -13.216832 0.000000 
0.671875 -14.918123 0.000000 
0.984375 0.000000 0.000000 
0.992188 0.000000 0.000000 
0.992188 0.000000 0.000000 
1.000000 0.000000 0.000000 
0.968750 0.000000 0.000000 
0.976562 0.000000 0.000000 
0.976562 0.000000 0.000000 
0.984375 0.000000 0.000000 
0.937500 0.000000 0.000000 
0.945312 0.000000 0.000000 
0.945312 0.000000 0.000000 
0.953125 0.000000 0.000000 
0.953125 0.000000 0.000000 
0.960938 0.000000 0.000000 
0.960938 0.000000 0.000000 
0.968750 0.000000 0.000000 
0.875000 0.000000 0.000000 
0.882812 0.000000 0.000000 
0.882812 0.000000 0.000000 
0.890625 0.000000 0.000000 
0.890625 0.000000 0.000000 
0.898438 0.000000 0.000000 
0.898438 0.000000 0.000000 
0.906250 0.000000 0.000000 
0.921875 0.000000 0.000000 
0.929688 0.000000 0.000000 
0.929688 0.000000 0.000000 
0.937500 0.000000 0.000000 
0.906250 0.000000 0.000000 
0.914062 0.000000 0.000000 
0.914062 0.000000 0.000000 
0.921875 0.000000 0.000000 
0.750000 0.000000 0.000000 
0.757812 0.000000 0.000000 
0.757812 0.000000 0.000000 
0.765625 0.000000 0.000000 
0.765625 0.000000 0.000000 
0.773438 0.000000 0.000000 
0.773438 0.000000 0.000000 
0.781250 0.000000 0.000000 
0.796875 0.000000 0.000000 
0.804688 0.000000 0.000000 
0.804688 0.000000 0.000000 
0.812500 0.000000 0.000000 
0.781250 0.000000 0.000000 
0.789062 0.000000 0.000000 
0.789062 0.000000 0.000000 
0.796875 0.000000 0.000000 
0.859375 0.000000 0.000000 
0.867188 0.000000 0.000000 
0.867188 0.000000 0.000000 
0.875000 0.000000 0.000000 
0.843750 0.000000 0.000000 
0.851562 0.000000 0.000000 
0.851562 0.000000 0.000000 
0.859375 0.000000 0.000000 
0.812500 0.000000 0.000000 
0.820312 0.000000 0.000000 
0.820312 0.000000 0.000000 
0.828125 0.000000 0.000000 
0.828125 0.000000 0.000000 
0.835938 0.000000 0.000000 
0.835938 0.000000 0.000000 
0.843750 0.000000 0.000000 

CELLS 128 384
2  0 1 
2  2 3 
2  4 5 
2  6 7 
2  8 9 
2  10 11 
2  12 13 
2  14 15 
2  16 17 
2  18 19 
2  20 21 
2  22 23 
2  24 25 
2  26 27 
2  28 29 
2  30 31 
2  32 33 
2  34 35 
2  36 37 
2  38 39 
2  40 41 
2  42 43 
2  44 45 
2  46 47 
2  48 49 
2  50 51 
2  52 53 
2  54 55 
2  56 57 
2  58 59 
2  60 61 
2  62 63 
2  64 65 
2  66 67 
2  68 69 
2  70 71 
2  72 73 
2  74 75 
2  76 77 
2  78 79 
2  80 81 
2  82 83 
2  84 85 
2  86 87 
2  88 89 
2  90 91 
2  92 93 
2  94 95 
2  96 97 
2  98 99 
2  100 101 
2  102 103 
2  104 105 
2  106 107 
2  108 109 
2  110 111 
2  112 113 
2  114 115 
2  116 117 
2  118 119 
2  120 121 
2  122 123 
2  124 125 
2  126 127 
2  128 129 
2  130 131 
2  132 133 
2  134 135 
2  136 137 
2  138 139 
2  140 141 
2  142 143 
2  144 145 
2  146 147 
2  148 149 
2  150 151 
2  152 153 
2  154 155 
2  156 157 
2  158 159 
2  160 161 
2  162 163 
2  164 165 
2  166 167 
2  168 169 
2  170 171 
2  172 173 
2  174 175 
2  176 177 
2  178 179 
2  180 181 
2  182 183 
2  184 185 
2  186 187 
2  188 189 
2  190 191 
2  192 193 
2  194 195 
2  196 197 
2  198 199 
2  200 201 
2  202 203 
2  204 205 
2  206 207 
2  208 209 
2  210 211 
2  212 213 
2  214 215 
2  216 217 
2  218 219 
2  220 221 
2  222 223 
2  224 225 
2  226 227 
2  228 229 
2  230 231 
2  232 233 
2  234 235 
2  236 237 
2  238 239 
2  240 241 
2  242 243 
2  244 245 
2  246 247 
2  248 249 
2  250 251 
2  252 253 
2  254 255 

CELL_TYPES 128
3
3
3
3
3
3
3
3
3
3
3
3
3
3
3
3
3
3
3
3
3
3
3
3
3
3
3
3
3
3
3
3
3
3
3
3
3
3
3
3
3
3
3
3
3
3
3
3
3
3
3
3
3
3
3
3
3
3
3
3
3
3
3
3
3
3
3
3
3
3
3
3
3
3
3
3
3
3
3
3
3
3
3
3
3
3
3
3
3
3
3
3
3
3
3
3
3
3
3
3
3
3
3
3
3
3
3
3
3
3
3
3
3
3
3
3
3
3
3
3
3
3
3
3
3
3
3
3

POINT_DATA 256

SCALARS lambda_h float 1
LOOKUP_TABLE default
0.000000 
0.000000 
0.000000 
0.000000 
0.000000 
0.000000 
0.000000 
0.000000 
0.000000 
0.000000 
0.000000 
0.000000 
0.000000 
0.000000 
0.000000 
0.000000 
0.000000 
0.000000 
0.000000 
0.000000 
0.000000 
0.000000 
0.000000 
0.000000 
0.000000 
0.000000 
0.000000 
0.000000 
0.000000 
0.000000 
0.000000 
0.000000 
0.000000 
0.000000 
0.000000 
0.000000 
0.000000 
0.000000 
0.000000 
0.000000 
0.000000 
0.000000 
0.000000 
0.000000 
0.000000 
0.000000 
0.000000 
0.000000 
0.000000 
0.000000 
0.000000 
0.000000 
0.000000 
0.000000 
0.000000 
0.000000 
0.000000 
0.000000 
0.000000 
0.000000 
0.000000 
0.000000 
0.000000 
0.000000 
-10.622454 
-10.589975 
-10.625123 
-10.552160 
-10.692264 
-10.602198 
-10.652811 
-10.591036 
-10.954281 
-10.740166 
-10.871647 
-10.691319 
-10.801007 
-10.652271 
-10.741457 
-10.622634 
-12.247624 
-11.588577 
-11.999843 
-11.425090 
-11.784098 
-11.281828 
-11.595666 
-11.156423 
-11.160188 
-10.869597 
-11.050012 
-10.799358 
-11.430789 
-11.046934 
-11.286447 
-10.951763 
5.925329 
-11.850657 
34.410263 
-86.596511 
-63.051030 
-12.680699 
-35.203951 
-18.004525 
-19.960700 
-15.538297 
-18.118886 
-14.799524 
-26.914742 
-17.383518 
-22.634619 
-16.412539 
-12.865087 
-11.988499 
-12.533449 
-11.775187 
-13.710198 
-12.514138 
-13.252758 
-12.232958 
-16.768835 
-14.180262 
-15.735214 
-13.658933 
-14.918123 
-13.216832 
-14.256348 
-12.839093 
-10.552160 
-10.625123 
-10.589975 
-10.622454 
-10.591036 
-10.652811 
-10.602198 
-10.692264 
-10.691319 
-10.871647 
-10.740166 
-10.954281 
-10.622634 
-10.741457 
-10.652271 
-10.801007 
-11.425090 
-11.999843 
-11.588577 
-12.247624 
-11.156423 
-11.595666 
-11.281828 
-11.784098 
-10.799358 
-11.050012 
-10.869597 
-11.160188 
-10.951763 
-11.286447 
-11.046934 
-11.430789 
-86.596511 
34.410263 
-11.850657 
5.925329 
-18.004525 
-35.203951 
-12.680699 
-63.051030 
-14.799524 
-18.118886 
-15.538297 
-19.960700 
-16.412539 
-22.634619 
-17.383518 
-26.914742 
-11.775187 
-12.533449 
-11.988499 
-12.865087 
-12.232958 
-13.252758 
-12.514138 
-13.710198 
-13.658933 
-15.735214 
-14.180262 
-16.768835 
-12.839093 
-14.256348 
-13.216832 
-14.918123 
0.000000 
0.000000 
0.000000 
0.000000 
0.000000 
0.000000 
0.000000 
0.000000 
0.000000 
0.000000 
0.000000 
0.000000 
0.000000 
0.000000 
0.000000 
0.000000 
0.000000 
0.000000 
0.000000 
0.000000 
0.000000 
0.000000 
0.000000 
0.000000 
0.000000 
0.000000 
0.000000 
0.000000 
0.000000 
0.000000 
0.000000 
0.000000 
0.000000 
0.000000 
0.000000 
0.000000 
0.000000 
0.000000 
0.000000 
0.000000 
0.000000 
0.000000 
0.000000 
0.000000 
0.000000 
0.000000 
0.000000 
0.000000 
0.000000 
0.000000 
0.000000 
0.000000 
0.000000 
0.000000 
0.000000 
0.000000 
0.000000 
0.000000 
0.000000 
0.000000 
0.000000 
0.000000 
0.000000 
0.000000 

