# vtk DataFile Version 2.0
Unstructured Grid Example
ASCII
DATASET UNSTRUCTURED_GRID

POINTS 16 float
0.000000 0.000000 0.000000 
0.125000 0.000000 0.000000 
0.125000 0.000000 0.000000 
0.250000 0.000000 0.000000 
0.250000 18.910803 0.000000 
0.375000 -37.821606 0.000000 
0.375000 -24.680845 0.000000 
0.500000 -7.370719 0.000000 
0.500000 -7.370719 0.000000 
0.625000 -24.680845 0.000000 
0.625000 -37.821606 0.000000 
0.750000 18.910803 0.000000 
0.750000 0.000000 0.000000 
0.875000 0.000000 0.000000 
0.875000 0.000000 0.000000 
1.000000 0.000000 0.000000 

CELLS 8 24
2  0 1 
2  2 3 
2  4 5 
2  6 7 
2  8 9 
2  10 11 
2  12 13 
2  14 15 

CELL_TYPES 8
3
3
3
3
3
3
3
3

POINT_DATA 16

SCALARS lambda_h float 1
LOOKUP_TABLE default
0.000000 
0.000000 
0.000000 
0.000000 
18.910803 
-37.821606 
-24.680845 
-7.370719 
-7.370719 
-24.680845 
-37.821606 
18.910803 
0.000000 
0.000000 
0.000000 
0.000000 

