# vtk DataFile Version 2.0
Unstructured Grid Example
ASCII
DATASET UNSTRUCTURED_GRID

POINTS 64 float
0.000000 0.000000 0.000000 
0.031250 0.000000 0.000000 
0.031250 0.000000 0.000000 
0.062500 0.000000 0.000000 
0.062500 0.000000 0.000000 
0.093750 0.000000 0.000000 
0.093750 0.000000 0.000000 
0.125000 0.000000 0.000000 
0.187500 0.000000 0.000000 
0.218750 0.000000 0.000000 
0.218750 0.000000 0.000000 
0.250000 0.000000 0.000000 
0.125000 0.000000 0.000000 
0.156250 0.000000 0.000000 
0.156250 0.000000 0.000000 
0.187500 0.000000 0.000000 
0.437500 -11.428180 0.000000 
0.468750 -10.699937 0.000000 
0.468750 -11.027512 0.000000 
0.500000 -10.773030 0.000000 
0.375000 -13.407228 0.000000 
0.406250 -10.814260 0.000000 
0.406250 -12.171733 0.000000 
0.437500 -10.692282 0.000000 
0.250000 27.950699 0.000000 
0.281250 -55.901398 0.000000 
0.281250 -38.226384 0.000000 
0.312500 -7.399329 0.000000 
0.312500 -21.229329 0.000000 
0.343750 -10.566384 0.000000 
0.343750 -15.698493 0.000000 
0.375000 -10.965112 0.000000 
0.500000 -10.773030 0.000000 
0.531250 -11.027512 0.000000 
0.531250 -10.699937 0.000000 
0.562500 -11.428180 0.000000 
0.562500 -10.692282 0.000000 
0.593750 -12.171733 0.000000 
0.593750 -10.814260 0.000000 
0.625000 -13.407228 0.000000 
0.687500 -7.399329 0.000000 
0.718750 -38.226384 0.000000 
0.718750 -55.901398 0.000000 
0.750000 27.950699 0.000000 
0.625000 -10.965112 0.000000 
0.656250 -15.698493 0.000000 
0.656250 -10.566384 0.000000 
0.687500 -21.229329 0.000000 
0.937500 0.000000 0.000000 
0.968750 0.000000 0.000000 
0.968750 0.000000 0.000000 
1.000000 0.000000 0.000000 
0.875000 0.000000 0.000000 
0.906250 0.000000 0.000000 
0.906250 0.000000 0.000000 
0.937500 0.000000 0.000000 
0.750000 0.000000 0.000000 
0.781250 0.000000 0.000000 
0.781250 0.000000 0.000000 
0.812500 0.000000 0.000000 
0.812500 0.000000 0.000000 
0.843750 0.000000 0.000000 
0.843750 0.000000 0.000000 
0.875000 0.000000 0.000000 

CELLS 32 96
2  0 1 
2  2 3 
2  4 5 
2  6 7 
2  8 9 
2  10 11 
2  12 13 
2  14 15 
2  16 17 
2  18 19 
2  20 21 
2  22 23 
2  24 25 
2  26 27 
2  28 29 
2  30 31 
2  32 33 
2  34 35 
2  36 37 
2  38 39 
2  40 41 
2  42 43 
2  44 45 
2  46 47 
2  48 49 
2  50 51 
2  52 53 
2  54 55 
2  56 57 
2  58 59 
2  60 61 
2  62 63 

CELL_TYPES 32
3
3
3
3
3
3
3
3
3
3
3
3
3
3
3
3
3
3
3
3
3
3
3
3
3
3
3
3
3
3
3
3

POINT_DATA 64

SCALARS lambda_h float 1
LOOKUP_TABLE default
0.000000 
0.000000 
0.000000 
0.000000 
0.000000 
0.000000 
0.000000 
0.000000 
0.000000 
0.000000 
0.000000 
0.000000 
0.000000 
0.000000 
0.000000 
0.000000 
-11.428180 
-10.699937 
-11.027512 
-10.773030 
-13.407228 
-10.814260 
-12.171733 
-10.692282 
27.950699 
-55.901398 
-38.226384 
-7.399329 
-21.229329 
-10.566384 
-15.698493 
-10.965112 
-10.773030 
-11.027512 
-10.699937 
-11.428180 
-10.692282 
-12.171733 
-10.814260 
-13.407228 
-7.399329 
-38.226384 
-55.901398 
27.950699 
-10.965112 
-15.698493 
-10.566384 
-21.229329 
0.000000 
0.000000 
0.000000 
0.000000 
0.000000 
0.000000 
0.000000 
0.000000 
0.000000 
0.000000 
0.000000 
0.000000 
0.000000 
0.000000 
0.000000 
0.000000 

