# vtk DataFile Version 2.0
Unstructured Grid Example
ASCII
DATASET UNSTRUCTURED_GRID

POINTS 9 float
-0.022274 -0.214591 0.000000 
1.022274 -0.214591 0.000000 
1.000000 1.000000 0.000000 
0.000000 1.000000 0.000000 
0.500000 0.009808 0.000000 
0.970438 0.334327 0.000000 
0.500000 1.000000 0.000000 
0.029562 0.334327 0.000000 
0.500000 0.368918 0.000000 

CELLS 8 32
3  0 4 8 
3  4 1 8 
3  1 5 8 
3  5 2 8 
3  2 6 8 
3  6 3 8 
3  3 7 8 
3  7 0 8 

CELL_TYPES 8
5
5
5
5
5
5
5
5

POINT_DATA 9

SCALARS u_h float 2
LOOKUP_TABLE default
-0.022274 -0.214591 
0.022274 -0.214591 
0.000000 0.000000 
0.000000 0.000000 
-0.000000 0.009808 
-0.029562 -0.165673 
0.000000 0.000000 
0.029562 -0.165673 
-0.000000 -0.131082 

CELL_DATA 8

SCALARS epsilon float 4
LOOKUP_TABLE default
0.043558 -0.136432 0.000000 0.311868
0.043558 -0.136432 0.000000 -0.311868
-0.062695 0.088446 0.000000 -0.086069
-0.056511 0.284423 0.000000 0.003544
0.000000 0.229281 0.000000 0.000000
0.000000 0.229281 0.000000 0.000000
-0.056511 0.284423 0.000000 -0.003544
-0.062695 0.088446 0.000000 0.086069

SCALARS sigma float 4
LOOKUP_TABLE default
-2.185286 -13.436278 -2.992829 4.905429
-2.185286 -13.436278 -2.992829 -4.905429
-1.257808 1.252135 -0.001549 -1.382110
1.090980 5.283040 1.957414 -0.202440
2.292810 5.011982 2.292810 0.000000
2.292810 5.011982 2.292810 0.000000
1.090980 5.283040 1.957414 0.202440
-1.257808 1.252135 -0.001549 1.382110

