# vtk DataFile Version 2.0
Unstructured Grid Example
ASCII
DATASET UNSTRUCTURED_GRID

POINTS 81 float
0.079288 -0.331465 0.000000 
0.920712 -0.331465 0.000000 
1.000000 1.000000 0.000000 
0.000000 1.000000 0.000000 
0.500000 -0.100000 0.000000 
0.973495 0.262678 0.000000 
0.500000 1.000000 0.000000 
0.026505 0.262678 0.000000 
0.500000 0.292846 0.000000 
0.309118 -0.207268 0.000000 
0.500000 0.071655 0.000000 
0.239865 0.005883 0.000000 
0.690882 -0.207268 0.000000 
0.760135 0.005883 0.000000 
0.993092 -0.057946 0.000000 
0.747537 0.273019 0.000000 
0.935595 0.597105 0.000000 
0.723259 0.604086 0.000000 
0.750000 1.000000 0.000000 
0.500000 0.614150 0.000000 
0.250000 1.000000 0.000000 
0.276741 0.604086 0.000000 
0.064405 0.597105 0.000000 
0.252463 0.273019 0.000000 
0.006908 -0.057946 0.000000 
0.196533 -0.281408 0.000000 
0.258720 -0.108849 0.000000 
0.146330 -0.165714 0.000000 
0.500000 -0.016345 0.000000 
0.371876 -0.037481 0.000000 
0.405099 -0.100000 0.000000 
0.365838 0.162749 0.000000 
0.363605 0.053650 0.000000 
0.500000 0.173610 0.000000 
0.594901 -0.100000 0.000000 
0.628124 -0.037481 0.000000 
0.853670 -0.165714 0.000000 
0.741280 -0.108849 0.000000 
0.803467 -0.281408 0.000000 
0.636395 0.053650 0.000000 
0.634162 0.162749 0.000000 
0.968653 -0.204275 0.000000 
0.877776 -0.035226 0.000000 
0.862925 0.258534 0.000000 
0.878312 0.106517 0.000000 
0.991966 0.099480 0.000000 
0.759535 0.132703 0.000000 
0.626656 0.290353 0.000000 
0.954218 0.426138 0.000000 
0.844505 0.420484 0.000000 
0.834610 0.795740 0.000000 
0.829510 0.597136 0.000000 
0.932518 0.781545 0.000000 
0.732746 0.428712 0.000000 
0.617230 0.438537 0.000000 
0.875000 1.000000 0.000000 
0.726567 0.798441 0.000000 
0.500000 0.803466 0.000000 
0.614286 0.800450 0.000000 
0.625000 1.000000 0.000000 
0.612734 0.610086 0.000000 
0.500000 0.442594 0.000000 
0.375000 1.000000 0.000000 
0.385714 0.800450 0.000000 
0.165390 0.795740 0.000000 
0.273433 0.798441 0.000000 
0.125000 1.000000 0.000000 
0.387266 0.610086 0.000000 
0.382770 0.438537 0.000000 
0.067482 0.781545 0.000000 
0.170490 0.597136 0.000000 
0.137075 0.258534 0.000000 
0.155495 0.420484 0.000000 
0.045782 0.426138 0.000000 
0.267254 0.428712 0.000000 
0.373344 0.290353 0.000000 
0.008034 0.099480 0.000000 
0.121688 0.106517 0.000000 
0.122224 -0.035226 0.000000 
0.031347 -0.204275 0.000000 
0.240465 0.132703 0.000000 

CELLS 128 512
3  0 25 27 
3  9 26 25 
3  11 27 26 
3  25 26 27 
3  4 28 30 
3  10 29 28 
3  9 30 29 
3  28 29 30 
3  8 31 33 
3  11 32 31 
3  10 33 32 
3  31 32 33 
3  9 29 26 
3  10 32 29 
3  11 26 32 
3  29 32 26 
3  4 34 28 
3  12 35 34 
3  10 28 35 
3  34 35 28 
3  1 36 38 
3  13 37 36 
3  12 38 37 
3  36 37 38 
3  8 33 40 
3  10 39 33 
3  13 40 39 
3  33 39 40 
3  12 37 35 
3  13 39 37 
3  10 35 39 
3  37 39 35 
3  1 41 36 
3  14 42 41 
3  13 36 42 
3  41 42 36 
3  5 43 45 
3  15 44 43 
3  14 45 44 
3  43 44 45 
3  8 40 47 
3  13 46 40 
3  15 47 46 
3  40 46 47 
3  14 44 42 
3  15 46 44 
3  13 42 46 
3  44 46 42 
3  5 48 43 
3  16 49 48 
3  15 43 49 
3  48 49 43 
3  2 50 52 
3  17 51 50 
3  16 52 51 
3  50 51 52 
3  8 47 54 
3  15 53 47 
3  17 54 53 
3  47 53 54 
3  16 51 49 
3  17 53 51 
3  15 49 53 
3  51 53 49 
3  2 55 50 
3  18 56 55 
3  17 50 56 
3  55 56 50 
3  6 57 59 
3  19 58 57 
3  18 59 58 
3  57 58 59 
3  8 54 61 
3  17 60 54 
3  19 61 60 
3  54 60 61 
3  18 58 56 
3  19 60 58 
3  17 56 60 
3  58 60 56 
3  6 62 57 
3  20 63 62 
3  19 57 63 
3  62 63 57 
3  3 64 66 
3  21 65 64 
3  20 66 65 
3  64 65 66 
3  8 61 68 
3  19 67 61 
3  21 68 67 
3  61 67 68 
3  20 65 63 
3  21 67 65 
3  19 63 67 
3  65 67 63 
3  3 69 64 
3  22 70 69 
3  21 64 70 
3  69 70 64 
3  7 71 73 
3  23 72 71 
3  22 73 72 
3  71 72 73 
3  8 68 75 
3  21 74 68 
3  23 75 74 
3  68 74 75 
3  22 72 70 
3  23 74 72 
3  21 70 74 
3  72 74 70 
3  7 76 71 
3  24 77 76 
3  23 71 77 
3  76 77 71 
3  0 27 79 
3  11 78 27 
3  24 79 78 
3  27 78 79 
3  8 75 31 
3  23 80 75 
3  11 31 80 
3  75 80 31 
3  24 78 77 
3  11 80 78 
3  23 77 80 
3  78 80 77 

CELL_TYPES 128
5
5
5
5
5
5
5
5
5
5
5
5
5
5
5
5
5
5
5
5
5
5
5
5
5
5
5
5
5
5
5
5
5
5
5
5
5
5
5
5
5
5
5
5
5
5
5
5
5
5
5
5
5
5
5
5
5
5
5
5
5
5
5
5
5
5
5
5
5
5
5
5
5
5
5
5
5
5
5
5
5
5
5
5
5
5
5
5
5
5
5
5
5
5
5
5
5
5
5
5
5
5
5
5
5
5
5
5
5
5
5
5
5
5
5
5
5
5
5
5
5
5
5
5
5
5
5
5

POINT_DATA 81

SCALARS u_h float 2
LOOKUP_TABLE default
0.079288 -0.331465 
-0.079288 -0.331465 
0.000000 0.000000 
0.000000 0.000000 
0.000000 -0.100000 
-0.026505 -0.237322 
0.000000 0.000000 
0.026505 -0.237322 
0.000000 -0.207154 
0.059118 -0.207268 
0.000000 -0.178345 
-0.010135 -0.244117 
-0.059118 -0.207268 
0.010135 -0.244117 
-0.006908 -0.307946 
-0.002463 -0.226981 
-0.064405 -0.152895 
-0.026741 -0.145914 
0.000000 0.000000 
0.000000 -0.135850 
0.000000 0.000000 
0.026741 -0.145914 
0.064405 -0.152895 
0.002463 -0.226981 
0.006908 -0.307946 
0.071533 -0.281408 
0.008720 -0.233849 
0.021330 -0.290714 
0.000000 -0.141345 
-0.003124 -0.162481 
0.030099 -0.100000 
-0.009162 -0.212251 
-0.011395 -0.196350 
0.000000 -0.201390 
-0.030099 -0.100000 
0.003124 -0.162481 
-0.021330 -0.290714 
-0.008720 -0.233849 
-0.071533 -0.281408 
0.011395 -0.196350 
0.009162 -0.212251 
-0.031347 -0.329275 
0.002776 -0.285226 
-0.012075 -0.241466 
0.003312 -0.268483 
-0.008034 -0.275520 
0.009535 -0.242297 
0.001656 -0.209647 
-0.045782 -0.198862 
-0.030495 -0.204516 
-0.040390 -0.079260 
-0.045490 -0.152864 
-0.067482 -0.093455 
-0.017254 -0.196288 
-0.007770 -0.186463 
0.000000 0.000000 
-0.023433 -0.076559 
0.000000 -0.071534 
-0.010714 -0.074550 
0.000000 0.000000 
-0.012266 -0.139914 
0.000000 -0.182406 
0.000000 0.000000 
0.010714 -0.074550 
0.040390 -0.079260 
0.023433 -0.076559 
0.000000 0.000000 
0.012266 -0.139914 
0.007770 -0.186463 
0.067482 -0.093455 
0.045490 -0.152864 
0.012075 -0.241466 
0.030495 -0.204516 
0.045782 -0.198862 
0.017254 -0.196288 
-0.001656 -0.209647 
0.008034 -0.275520 
-0.003312 -0.268483 
-0.002776 -0.285226 
0.031347 -0.329275 
-0.009535 -0.242297 

CELL_DATA 128

SCALARS epsilon float 4
LOOKUP_TABLE default
0.181718 0.168089 0.000000 0.001733
0.274492 0.247061 0.000000 0.142551
-0.012223 0.123657 0.000000 0.163755
0.170195 0.221033 0.000000 0.023414
-0.266871 -0.372101 0.000000 -0.000000
0.024676 -0.304608 0.000000 0.120016
0.293918 0.760629 0.000000 0.667306
0.221919 -0.440940 0.000000 0.128684
0.070626 -0.043572 0.000000 0.045330
-0.017852 -0.043499 0.000000 0.227646
0.087037 -0.187389 0.000000 0.087686
0.069157 -0.132426 0.000000 0.057693
0.270029 0.224088 0.000000 0.130371
0.102233 -0.276253 0.000000 0.071418
0.063512 0.054004 0.000000 0.131501
-0.039348 0.081620 0.000000 0.357470
-0.266871 -0.372101 0.000000 0.000000
0.293918 0.760629 0.000000 -0.667306
0.024676 -0.304608 0.000000 -0.120016
0.221919 -0.440940 0.000000 -0.128684
0.181718 0.168089 0.000000 -0.001733
-0.012223 0.123657 0.000000 -0.163755
0.274492 0.247061 0.000000 -0.142551
0.170195 0.221033 0.000000 -0.023414
0.070626 -0.043572 0.000000 -0.045330
0.087037 -0.187389 0.000000 -0.087686
-0.017852 -0.043499 0.000000 -0.227646
0.069157 -0.132426 0.000000 -0.057693
0.270029 0.224088 0.000000 -0.130371
0.063512 0.054004 0.000000 -0.131501
0.102233 -0.276253 0.000000 -0.071418
-0.039348 0.081620 0.000000 -0.357470
0.101654 0.178448 0.000000 0.053674
-0.032866 0.201210 0.000000 0.025352
0.018888 0.154598 0.000000 -0.056089
-0.005529 0.148498 0.000000 -0.043855
-0.109709 0.265855 0.000000 -0.066331
-0.086348 0.186575 0.000000 -0.112004
-0.095246 0.227976 0.000000 -0.026866
-0.094784 0.188735 0.000000 -0.088556
0.013690 0.019637 0.000000 -0.039391
0.001856 0.041283 0.000000 -0.120852
-0.041805 0.111273 0.000000 -0.110781
-0.009450 0.034765 0.000000 -0.147656
-0.079709 0.140904 0.000000 -0.077303
-0.065776 0.116311 0.000000 -0.142898
-0.062226 0.072311 0.000000 -0.163952
-0.050188 0.144787 0.000000 -0.089903
-0.108843 0.267536 0.000000 -0.069730
-0.116519 0.310898 0.000000 -0.062306
-0.086281 0.245349 0.000000 -0.120344
-0.115593 0.260502 0.000000 -0.062256
-0.126093 0.557779 0.000000 0.243218
-0.158814 0.441572 0.000000 0.003721
-0.162210 0.374200 0.000000 -0.013078
-0.234447 0.446616 0.000000 -0.010671
0.013883 0.167608 0.000000 -0.044725
-0.042228 0.210169 0.000000 -0.114597
-0.081579 0.326107 0.000000 -0.065549
-0.081721 0.165999 0.000000 -0.072751
-0.157420 0.335118 0.000000 -0.064720
-0.162287 0.326328 0.000000 -0.060192
-0.112649 0.211588 0.000000 -0.089750
-0.113072 0.330774 0.000000 -0.084447
0.019551 0.463320 0.000000 0.137235
0.006758 0.451970 0.000000 0.080210
-0.144025 0.421019 0.000000 0.006577
-0.113907 0.467619 0.000000 0.151875
0.000000 0.430218 0.000000 -0.000000
-0.089357 0.397588 0.000000 -0.007896
0.001441 0.443377 0.000000 0.036876
-0.086233 0.444731 0.000000 0.032809
-0.064085 0.179338 0.000000 -0.013488
-0.123347 0.307627 0.000000 -0.036033
-0.102887 0.308540 0.000000 -0.011703
-0.064598 0.307639 0.000000 -0.029543
-0.096468 0.453808 0.000000 0.084272
-0.102556 0.402850 0.000000 -0.004478
-0.121296 0.421932 0.000000 -0.002123
-0.106675 0.402508 0.000000 0.000887
0.000000 0.430218 0.000000 -0.000000
0.001441 0.443377 0.000000 -0.036876
-0.089357 0.397588 0.000000 0.007896
-0.086233 0.444731 0.000000 -0.032809
0.019551 0.463320 0.000000 -0.137235
-0.144025 0.421019 0.000000 -0.006577
0.006758 0.451970 0.000000 -0.080210
-0.113907 0.467619 0.000000 -0.151875
-0.064085 0.179338 0.000000 0.013488
-0.102887 0.308540 0.000000 0.011703
-0.123347 0.307627 0.000000 0.036033
-0.064598 0.307639 0.000000 0.029543
-0.096468 0.453808 0.000000 -0.084272
-0.121296 0.421932 0.000000 0.002123
-0.102556 0.402850 0.000000 0.004478
-0.106675 0.402508 0.000000 -0.000887
-0.126093 0.557779 0.000000 -0.243218
-0.162210 0.374200 0.000000 0.013078
-0.158814 0.441572 0.000000 -0.003721
-0.234447 0.446616 0.000000 0.010671
-0.108843 0.267536 0.000000 0.069730
-0.086281 0.245349 0.000000 0.120344
-0.116519 0.310898 0.000000 0.062306
-0.115593 0.260502 0.000000 0.062256
0.013883 0.167608 0.000000 0.044725
-0.081579 0.326107 0.000000 0.065549
-0.042228 0.210169 0.000000 0.114597
-0.081721 0.165999 0.000000 0.072751
-0.157420 0.335118 0.000000 0.064720
-0.112649 0.211588 0.000000 0.089750
-0.162287 0.326328 0.000000 0.060192
-0.113072 0.330774 0.000000 0.084447
-0.109709 0.265855 0.000000 0.066331
-0.095246 0.227976 0.000000 0.026866
-0.086348 0.186575 0.000000 0.112004
-0.094784 0.188735 0.000000 0.088556
0.101654 0.178448 0.000000 -0.053674
0.018888 0.154598 0.000000 0.056089
-0.032866 0.201210 0.000000 -0.025352
-0.005529 0.148498 0.000000 0.043855
0.013690 0.019637 0.000000 0.039391
-0.041805 0.111273 0.000000 0.110781
0.001856 0.041283 0.000000 0.120852
-0.009450 0.034765 0.000000 0.147656
-0.079709 0.140904 0.000000 0.077303
-0.062226 0.072311 0.000000 0.163952
-0.065776 0.116311 0.000000 0.142898
-0.050188 0.144787 0.000000 0.089903

SCALARS sigma float 4
LOOKUP_TABLE default
5.724950 5.589596 4.108905 2.008291
8.161771 7.019081 6.165448 4.549940
0.758042 1.082208 0.547798 2.947251
6.078444 6.358507 4.653689 2.665598
-12.858729 -20.772717 -4.403660 -0.000000
-2.765612 -14.983174 -3.237722 1.921419
8.655003 4.456007 6.110764 10.887097
2.694524 -41.973366 -4.478458 -16.225359
1.241373 -0.636528 0.167889 0.695892
-2.080061 -4.838153 -1.634434 3.905445
-0.051761 -6.164958 -1.483494 1.327166
0.216559 -3.687099 -0.882417 0.952980
7.863780 6.635434 5.811454 4.270560
-0.520100 -10.834216 -2.407050 0.256453
2.052000 0.939128 0.897905 2.193400
-1.924889 -7.502688 -2.197210 5.392818
-12.858729 -20.772717 -4.403660 0.000000
8.655003 4.456007 6.110764 -10.887097
-2.765612 -14.983174 -3.237722 -1.921419
2.694524 -41.973366 -4.478458 16.225359
5.724950 5.589596 4.108905 -2.008291
0.758042 1.082208 0.547798 -2.947251
8.161771 7.019081 6.165448 -4.549940
6.078444 6.358507 4.653689 -2.665598
1.241373 -0.636528 0.167889 -0.695892
-0.051761 -6.164958 -1.483494 -1.327166
-2.080061 -4.838153 -1.634434 -3.905445
0.216559 -3.687099 -0.882417 -0.952980
7.863780 6.635434 5.811454 -4.270560
2.052000 0.939128 0.897905 -2.193400
-0.520100 -10.834216 -2.407050 -0.256453
-1.924889 -7.502688 -2.197210 -5.392818
3.975371 5.105503 3.106198 -0.944068
0.961333 4.080932 1.538329 -0.315095
2.080707 3.434365 1.730348 -1.550217
1.369101 3.101753 1.374801 -1.337517
-1.164066 4.257668 0.890126 -0.623752
-1.301213 2.838351 0.429161 -1.685555
-0.763114 3.811260 0.878589 -0.456406
-1.427727 2.947266 0.424888 -1.256281
0.489994 0.606326 0.307616 -0.603571
0.161922 0.345826 0.140824 -1.976690
-0.506613 1.781448 0.356205 -1.738901
-0.500289 -0.204162 -0.189469 -2.461476
-1.127875 2.088829 0.267811 -1.392102
-1.462409 1.254943 -0.056060 -2.402923
-1.670913 -0.328644 -0.526742 -2.875367
-0.188420 2.421728 0.639006 -1.564649
-1.139897 4.289840 0.907290 -0.656590
-0.997324 4.916397 1.141644 -0.478746
-0.830691 3.894209 0.877652 -1.650228
-1.415014 4.108192 0.769335 -0.566964
-1.724806 7.567334 1.727108 1.455370
-1.429223 6.313586 1.424758 -0.156741
-2.143042 5.323683 0.902498 -0.133669
-5.225319 5.321559 0.025247 -0.479134
1.987481 3.948641 1.821440 -0.479609
0.412921 3.795704 1.239260 -1.577651
0.483609 5.549702 1.827274 -0.820076
-1.042540 2.698578 0.465614 -1.103445
-2.465401 4.746226 0.638117 -0.713991
-2.694887 4.530772 0.508772 -0.851629
-1.874988 3.142513 0.351586 -1.299877
-0.770455 5.169202 1.286364 -1.018962
4.633197 8.812203 4.633197 0.508130
4.519700 8.647426 4.519700 0.310089
-0.956704 6.234337 1.556329 -0.017599
-0.311546 6.970056 2.010497 1.065130
4.302183 8.326939 4.302183 -0.000000
0.998714 6.634545 2.370530 -0.142891
4.433771 8.521569 4.433771 0.147219
1.496157 7.342415 2.796441 0.118396
-0.141336 3.306830 0.919031 -0.236908
-1.129567 4.788218 1.057932 -0.517415
-0.301220 5.091580 1.418899 -0.215370
1.014209 5.549665 2.015506 -0.353023
0.948790 7.243263 2.555809 0.502258
0.554942 6.534509 2.176250 -0.148602
-0.006958 6.553464 1.982702 -0.184859
0.394599 6.475913 2.099565 -0.049844
4.302183 8.326939 4.302183 -0.000000
4.433771 8.521569 4.433771 -0.147219
0.998714 6.634545 2.370530 0.142891
1.496157 7.342415 2.796441 -0.118396
4.633197 8.812203 4.633197 -0.508130
-0.956704 6.234337 1.556329 0.017599
4.519700 8.647426 4.519700 -0.310089
-0.311546 6.970056 2.010497 -1.065130
-0.141336 3.306830 0.919031 0.236908
-0.301220 5.091580 1.418899 0.215370
-1.129567 4.788218 1.057932 0.517415
1.014209 5.549665 2.015506 0.353023
0.948790 7.243263 2.555809 -0.502258
-0.006958 6.553464 1.982702 0.184859
0.554942 6.534509 2.176250 0.148602
0.394599 6.475913 2.099565 0.049844
-1.724806 7.567334 1.727108 -1.455370
-2.143042 5.323683 0.902498 0.133669
-1.429223 6.313586 1.424758 0.156741
-5.225319 5.321559 0.025247 0.479134
-1.139897 4.289840 0.907290 0.656590
-0.830691 3.894209 0.877652 1.650228
-0.997324 4.916397 1.141644 0.478746
-1.415014 4.108192 0.769335 0.566964
1.987481 3.948641 1.821440 0.479609
0.483609 5.549702 1.827274 0.820076
0.412921 3.795704 1.239260 1.577651
-1.042540 2.698578 0.465614 1.103445
-2.465401 4.746226 0.638117 0.713991
-1.874988 3.142513 0.351586 1.299877
-2.694887 4.530772 0.508772 0.851629
-0.770455 5.169202 1.286364 1.018962
-1.164066 4.257668 0.890126 0.623752
-0.763114 3.811260 0.878589 0.456406
-1.301213 2.838351 0.429161 1.685555
-1.427727 2.947266 0.424888 1.256281
3.975371 5.105503 3.106198 0.944068
2.080707 3.434365 1.730348 1.550217
0.961333 4.080932 1.538329 0.315095
1.369101 3.101753 1.374801 1.337517
0.489994 0.606326 0.307616 0.603571
-0.506613 1.781448 0.356205 1.738901
0.161922 0.345826 0.140824 1.976690
-0.500289 -0.204162 -0.189469 2.461476
-1.127875 2.088829 0.267811 1.392102
-1.670913 -0.328644 -0.526742 2.875367
-1.462409 1.254943 -0.056060 2.402923
-0.188420 2.421728 0.639006 1.564649

