# vtk DataFile Version 2.0
Unstructured Grid Example
ASCII
DATASET UNSTRUCTURED_GRID

POINTS 25 float
0.015886 -0.317682 0.000000 
0.984114 -0.317682 0.000000 
1.000000 1.000000 0.000000 
0.000000 1.000000 0.000000 
0.500000 -0.100000 0.000000 
0.960503 0.261287 0.000000 
0.500000 1.000000 0.000000 
0.039497 0.261287 0.000000 
0.500000 0.285174 0.000000 
0.263197 -0.250000 0.000000 
0.500000 0.060663 0.000000 
0.243207 -0.018035 0.000000 
0.736803 -0.250000 0.000000 
0.756793 -0.018035 0.000000 
0.995804 -0.047705 0.000000 
0.734566 0.261728 0.000000 
0.932874 0.589220 0.000000 
0.722795 0.604402 0.000000 
0.750000 1.000000 0.000000 
0.500000 0.618812 0.000000 
0.250000 1.000000 0.000000 
0.277205 0.604402 0.000000 
0.067126 0.589220 0.000000 
0.265434 0.261728 0.000000 
0.004196 -0.047705 0.000000 

CELLS 32 128
3  0 9 11 
3  4 10 9 
3  8 11 10 
3  9 10 11 
3  4 12 10 
3  1 13 12 
3  8 10 13 
3  12 13 10 
3  1 14 13 
3  5 15 14 
3  8 13 15 
3  14 15 13 
3  5 16 15 
3  2 17 16 
3  8 15 17 
3  16 17 15 
3  2 18 17 
3  6 19 18 
3  8 17 19 
3  18 19 17 
3  6 20 19 
3  3 21 20 
3  8 19 21 
3  20 21 19 
3  3 22 21 
3  7 23 22 
3  8 21 23 
3  22 23 21 
3  7 24 23 
3  0 11 24 
3  8 23 11 
3  24 11 23 

CELL_TYPES 32
5
5
5
5
5
5
5
5
5
5
5
5
5
5
5
5
5
5
5
5
5
5
5
5
5
5
5
5
5
5
5
5

POINT_DATA 25

SCALARS u_h float 2
LOOKUP_TABLE default
0.015886 -0.317682 
-0.015886 -0.317682 
0.000000 0.000000 
0.000000 0.000000 
-0.000000 -0.100000 
-0.039497 -0.238713 
0.000000 0.000000 
0.039497 -0.238713 
-0.000000 -0.214826 
0.013197 -0.250000 
-0.000000 -0.189337 
-0.006793 -0.268035 
-0.013197 -0.250000 
0.006793 -0.268035 
-0.004196 -0.297705 
-0.015434 -0.238272 
-0.067126 -0.160780 
-0.027205 -0.145598 
0.000000 0.000000 
-0.000000 -0.131188 
0.000000 0.000000 
0.027205 -0.145598 
0.067126 -0.160780 
0.015434 -0.238272 
0.004196 -0.297705 

CELL_DATA 32

SCALARS epsilon float 4
LOOKUP_TABLE default
0.016119 -0.010001 0.000000 0.105563
-0.054179 0.084311 0.000000 0.465365
0.026804 -0.048860 0.000000 0.175145
0.056172 0.003009 0.000000 0.130359
-0.054179 0.084311 0.000000 -0.465365
0.016119 -0.010001 0.000000 -0.105563
0.026804 -0.048860 0.000000 -0.175145
0.056172 0.003009 0.000000 -0.130359
-0.038553 0.088599 0.000000 -0.030555
-0.093061 0.208929 0.000000 -0.075987
-0.067923 0.108213 0.000000 -0.088582
-0.051282 0.108516 0.000000 -0.098913
-0.096651 0.265734 0.000000 -0.058357
-0.142157 0.478851 0.000000 0.116486
-0.066381 0.306499 0.000000 -0.057334
-0.173527 0.306104 0.000000 -0.047321
0.002365 0.435774 0.000000 0.047039
0.000000 0.403378 0.000000 0.000000
-0.114652 0.283281 0.000000 -0.021273
-0.107326 0.440434 0.000000 0.034694
0.000000 0.403378 0.000000 0.000000
0.002365 0.435774 0.000000 -0.047039
-0.114652 0.283281 0.000000 0.021273
-0.107326 0.440434 0.000000 -0.034694
-0.142157 0.478851 0.000000 -0.116486
-0.096651 0.265734 0.000000 0.058357
-0.066381 0.306499 0.000000 0.057334
-0.173527 0.306104 0.000000 0.047321
-0.093061 0.208929 0.000000 0.075987
-0.038553 0.088599 0.000000 0.030555
-0.067923 0.108213 0.000000 0.088582
-0.051282 0.108516 0.000000 0.098913

SCALARS sigma float 4
LOOKUP_TABLE default
0.245600 -0.845955 -0.164919 1.638887
-5.305540 -24.113326 -4.121317 8.082428
-0.409849 -2.951678 -0.860275 2.798353
1.260664 -0.358557 0.255324 2.005297
-5.305540 -24.113326 -4.121317 -8.082428
0.245600 -0.845955 -0.164919 -1.638887
-0.409849 -2.951678 -0.860275 -2.798353
1.260664 -0.358557 0.255324 -2.005297
-0.205182 1.666301 0.413472 -0.600413
-1.124435 3.425884 0.654331 -0.910167
-1.227612 1.587949 0.098957 -1.422980
-0.748332 1.703336 0.265361 -1.567620
-0.613669 4.417036 1.109054 -0.610335
-1.036091 6.877592 1.734125 0.714371
0.875296 5.439490 1.928525 -0.795726
-3.293488 4.098073 0.218646 -0.753545
4.357742 8.409399 4.357742 0.193142
4.033783 7.922580 4.033783 0.000000
-0.971216 4.520891 1.027666 -0.397398
0.643465 6.992909 2.361599 0.035979
4.033783 7.922580 4.033783 0.000000
4.357742 8.409399 4.357742 -0.193142
-0.971216 4.520891 1.027666 0.397398
0.643465 6.992909 2.361599 -0.035979
-1.036091 6.877592 1.734125 -0.714371
-0.613669 4.417036 1.109054 0.610335
0.875296 5.439490 1.928525 0.795726
-3.293488 4.098073 0.218646 0.753545
-1.124435 3.425884 0.654331 0.910167
-0.205182 1.666301 0.413472 0.600413
-1.227612 1.587949 0.098957 1.422980
-0.748332 1.703336 0.265361 1.567620

