# vtk DataFile Version 2.0
Unstructured Grid Example
ASCII
DATASET UNSTRUCTURED_GRID

POINTS 4225 float
0.118986 -0.305158 0.000000 
0.881014 -0.305158 0.000000 
1.000000 1.000000 0.000000 
0.000000 1.000000 0.000000 
0.500000 -0.100000 0.000000 
0.986651 0.285593 0.000000 
0.500000 1.000000 0.000000 
0.013349 0.285593 0.000000 
0.500000 0.310336 0.000000 
0.298700 -0.111651 0.000000 
0.500000 0.084116 0.000000 
0.235466 0.045286 0.000000 
0.701300 -0.111651 0.000000 
0.764534 0.045286 0.000000 
1.000586 -0.037559 0.000000 
0.752826 0.291497 0.000000 
0.939303 0.611941 0.000000 
0.724838 0.610164 0.000000 
0.750000 1.000000 0.000000 
0.500000 0.617330 0.000000 
0.250000 1.000000 0.000000 
0.275162 0.610164 0.000000 
0.060697 0.611941 0.000000 
0.247174 0.291497 0.000000 
-0.000586 -0.037559 0.000000 
0.223659 -0.228864 0.000000 
0.251310 -0.052179 0.000000 
0.147115 -0.125490 0.000000 
0.500000 -0.010785 0.000000 
0.377115 -0.016040 0.000000 
0.386783 -0.100000 0.000000 
0.366991 0.181726 0.000000 
0.367722 0.075672 0.000000 
0.500000 0.189270 0.000000 
0.613217 -0.100000 0.000000 
0.622885 -0.016040 0.000000 
0.852885 -0.125490 0.000000 
0.748690 -0.052179 0.000000 
0.776341 -0.228864 0.000000 
0.632278 0.075672 0.000000 
0.633009 0.181726 0.000000 
0.954121 -0.189205 0.000000 
0.887243 -0.001273 0.000000 
0.873281 0.279009 0.000000 
0.889275 0.134099 0.000000 
1.005287 0.125250 0.000000 
0.764219 0.160276 0.000000 
0.627520 0.305104 0.000000 
0.961203 0.445991 0.000000 
0.851079 0.435059 0.000000 
0.831861 0.796684 0.000000 
0.832653 0.606075 0.000000 
0.933415 0.787990 0.000000 
0.737123 0.440625 0.000000 
0.619621 0.448897 0.000000 
0.875000 1.000000 0.000000 
0.725763 0.800057 0.000000 
0.500000 0.802779 0.000000 
0.614290 0.801980 0.000000 
0.625000 1.000000 0.000000 
0.613645 0.615203 0.000000 
0.500000 0.452410 0.000000 
0.375000 1.000000 0.000000 
0.385710 0.801980 0.000000 
0.168139 0.796684 0.000000 
0.274237 0.800057 0.000000 
0.125000 1.000000 0.000000 
0.386355 0.615203 0.000000 
0.380379 0.448897 0.000000 
0.066585 0.787990 0.000000 
0.167347 0.606075 0.000000 
0.126719 0.279009 0.000000 
0.148921 0.435059 0.000000 
0.038797 0.445991 0.000000 
0.262877 0.440625 0.000000 
0.372480 0.305104 0.000000 
-0.005287 0.125250 0.000000 
0.110725 0.134099 0.000000 
0.112757 -0.001273 0.000000 
0.045879 -0.189205 0.000000 
0.235781 0.160276 0.000000 
0.170432 -0.268969 0.000000 
0.180688 -0.181122 0.000000 
0.131697 -0.216617 0.000000 
0.267099 -0.091475 0.000000 
0.225219 -0.139332 0.000000 
0.272760 -0.177720 0.000000 
0.181090 -0.035071 0.000000 
0.197259 -0.089333 0.000000 
0.241146 -0.005940 0.000000 
0.500000 -0.056068 0.000000 
0.441829 -0.056519 0.000000 
0.443046 -0.100000 0.000000 
0.436082 0.034084 0.000000 
0.438982 -0.011876 0.000000 
0.500000 0.035766 0.000000 
0.332539 -0.100000 0.000000 
0.383593 -0.058376 0.000000 
0.324456 -0.064503 0.000000 
0.434482 0.245889 0.000000 
0.433446 0.187373 0.000000 
0.500000 0.247525 0.000000 
0.301083 0.063625 0.000000 
0.366363 0.126715 0.000000 
0.299632 0.115901 0.000000 
0.500000 0.135030 0.000000 
0.433239 0.132982 0.000000 
0.434085 0.082111 0.000000 
0.313607 -0.026985 0.000000 
0.371351 0.028262 0.000000 
0.305680 0.015832 0.000000 
0.556954 -0.100000 0.000000 
0.558171 -0.056519 0.000000 
0.675544 -0.064503 0.000000 
0.616407 -0.058376 0.000000 
0.667461 -0.100000 0.000000 
0.561018 -0.011876 0.000000 
0.563918 0.034084 0.000000 
0.868303 -0.216617 0.000000 
0.819312 -0.181122 0.000000 
0.829568 -0.268969 0.000000 
0.758854 -0.005940 0.000000 
0.802741 -0.089333 0.000000 
0.818910 -0.035071 0.000000 
0.727240 -0.177720 0.000000 
0.774781 -0.139332 0.000000 
0.732901 -0.091475 0.000000 
0.566554 0.187373 0.000000 
0.565518 0.245889 0.000000 
0.565915 0.082111 0.000000 
0.566761 0.132982 0.000000 
0.700368 0.115901 0.000000 
0.633637 0.126715 0.000000 
0.698917 0.063625 0.000000 
0.686393 -0.026985 0.000000 
0.694320 0.015832 0.000000 
0.628649 0.028262 0.000000 
0.918006 -0.251544 0.000000 
0.903606 -0.157671 0.000000 
0.944893 -0.022086 0.000000 
0.929650 -0.092264 0.000000 
0.982980 -0.116698 0.000000 
0.875041 -0.065039 0.000000 
0.827408 0.022351 0.000000 
0.930941 0.278458 0.000000 
0.941349 0.201502 0.000000 
0.997698 0.205710 0.000000 
0.822008 0.213700 0.000000 
0.882723 0.205322 0.000000 
0.813824 0.284196 0.000000 
1.007181 0.043924 0.000000 
0.948503 0.125694 0.000000 
0.950446 0.050991 0.000000 
0.630814 0.241058 0.000000 
0.563891 0.309099 0.000000 
0.766139 0.100776 0.000000 
0.699081 0.172473 0.000000 
0.690608 0.298937 0.000000 
0.695613 0.233410 0.000000 
0.759501 0.223793 0.000000 
0.891367 0.065206 0.000000 
0.827773 0.146668 0.000000 
0.829961 0.082915 0.000000 
0.974129 0.365393 0.000000 
0.918943 0.356902 0.000000 
0.895116 0.520437 0.000000 
0.906595 0.437354 0.000000 
0.949166 0.527985 0.000000 
0.862327 0.355443 0.000000 
0.804315 0.358434 0.000000 
0.897969 0.895598 0.000000 
0.882572 0.793137 0.000000 
0.944783 0.882372 0.000000 
0.779115 0.607620 0.000000 
0.828734 0.698707 0.000000 
0.776335 0.700731 0.000000 
0.933228 0.698390 0.000000 
0.880662 0.697347 0.000000 
0.885862 0.606827 0.000000 
0.623601 0.374265 0.000000 
0.561928 0.377501 0.000000 
0.745048 0.363661 0.000000 
0.684729 0.369366 0.000000 
0.673445 0.526178 0.000000 
0.678752 0.445028 0.000000 
0.730018 0.522721 0.000000 
0.840727 0.518401 0.000000 
0.785757 0.519720 0.000000 
0.794589 0.436796 0.000000 
0.937500 1.000000 0.000000 
0.846308 0.898912 0.000000 
0.734717 0.900017 0.000000 
0.791381 0.899711 0.000000 
0.812500 1.000000 0.000000 
0.779625 0.798694 0.000000 
0.722912 0.702854 0.000000 
0.500000 0.900645 0.000000 
0.559319 0.900555 0.000000 
0.562500 1.000000 0.000000 
0.556605 0.707491 0.000000 
0.557325 0.802540 0.000000 
0.500000 0.707897 0.000000 
0.687500 1.000000 0.000000 
0.618379 0.900417 0.000000 
0.676935 0.900233 0.000000 
0.559948 0.451495 0.000000 
0.500000 0.378610 0.000000 
0.669663 0.612878 0.000000 
0.616110 0.529221 0.000000 
0.500000 0.532009 0.000000 
0.558205 0.531274 0.000000 
0.556991 0.616760 0.000000 
0.670546 0.801137 0.000000 
0.612841 0.706429 0.000000 
0.668367 0.704824 0.000000 
0.437500 1.000000 0.000000 
0.440681 0.900555 0.000000 
0.323065 0.900233 0.000000 
0.381621 0.900417 0.000000 
0.312500 1.000000 0.000000 
0.442675 0.802540 0.000000 
0.443395 0.707491 0.000000 
0.102031 0.895598 0.000000 
0.153692 0.898912 0.000000 
0.062500 1.000000 0.000000 
0.277088 0.702854 0.000000 
0.220375 0.798694 0.000000 
0.223665 0.700731 0.000000 
0.187500 1.000000 0.000000 
0.208619 0.899711 0.000000 
0.265283 0.900017 0.000000 
0.440052 0.451495 0.000000 
0.438072 0.377501 0.000000 
0.443009 0.616760 0.000000 
0.441795 0.531274 0.000000 
0.326555 0.526178 0.000000 
0.383890 0.529221 0.000000 
0.330337 0.612878 0.000000 
0.329454 0.801137 0.000000 
0.331633 0.704824 0.000000 
0.387159 0.706429 0.000000 
0.055217 0.882372 0.000000 
0.117428 0.793137 0.000000 
0.114138 0.606827 0.000000 
0.119338 0.697347 0.000000 
0.066772 0.698390 0.000000 
0.171266 0.698707 0.000000 
0.220885 0.607620 0.000000 
0.069059 0.278458 0.000000 
0.081057 0.356902 0.000000 
0.025871 0.365393 0.000000 
0.195685 0.358434 0.000000 
0.137673 0.355443 0.000000 
0.186176 0.284196 0.000000 
0.050834 0.527985 0.000000 
0.093405 0.437354 0.000000 
0.104884 0.520437 0.000000 
0.376399 0.374265 0.000000 
0.436109 0.309099 0.000000 
0.269982 0.522721 0.000000 
0.321248 0.445028 0.000000 
0.309392 0.298937 0.000000 
0.315271 0.369366 0.000000 
0.254952 0.363661 0.000000 
0.159273 0.518401 0.000000 
0.205411 0.436796 0.000000 
0.214243 0.519720 0.000000 
0.002302 0.205710 0.000000 
0.058651 0.201502 0.000000 
0.049554 0.050991 0.000000 
0.051497 0.125694 0.000000 
-0.007181 0.043924 0.000000 
0.117277 0.205322 0.000000 
0.177992 0.213700 0.000000 
0.096394 -0.157671 0.000000 
0.081994 -0.251544 0.000000 
0.172592 0.022351 0.000000 
0.124959 -0.065039 0.000000 
0.017020 -0.116698 0.000000 
0.070350 -0.092264 0.000000 
0.055107 -0.022086 0.000000 
0.369186 0.241058 0.000000 
0.240499 0.223793 0.000000 
0.304387 0.233410 0.000000 
0.300919 0.172473 0.000000 
0.233861 0.100776 0.000000 
0.108633 0.065206 0.000000 
0.170039 0.082915 0.000000 
0.172227 0.146668 0.000000 
0.144373 -0.287049 0.000000 
0.151198 -0.243499 0.000000 
0.125762 -0.261071 0.000000 
0.201450 -0.206182 0.000000 
0.176614 -0.225492 0.000000 
0.197047 -0.249882 0.000000 
0.138046 -0.171455 0.000000 
0.156531 -0.199359 0.000000 
0.162447 -0.154070 0.000000 
0.279249 -0.106233 0.000000 
0.264072 -0.134062 0.000000 
0.291362 -0.146078 0.000000 
0.232786 -0.093667 0.000000 
0.245615 -0.115446 0.000000 
0.258311 -0.072928 0.000000 
0.249363 -0.205072 0.000000 
0.246172 -0.160892 0.000000 
0.224959 -0.184841 0.000000 
0.206386 0.006618 0.000000 
0.210478 -0.019993 0.000000 
0.237771 0.019110 0.000000 
0.172125 -0.107949 0.000000 
0.188051 -0.062611 0.000000 
0.161124 -0.079524 0.000000 
0.245638 -0.029759 0.000000 
0.216036 -0.045631 0.000000 
0.223302 -0.070238 0.000000 
0.203689 -0.161259 0.000000 
0.209321 -0.115076 0.000000 
0.186152 -0.135351 0.000000 
0.500000 -0.078238 0.000000 
0.471337 -0.078277 0.000000 
0.471480 -0.100000 0.000000 
0.470281 -0.033747 0.000000 
0.470913 -0.056166 0.000000 
0.500000 -0.033572 0.000000 
0.414776 -0.100000 0.000000 
0.442733 -0.078437 0.000000 
0.414244 -0.078746 0.000000 
0.467519 0.059203 0.000000 
0.468097 0.035353 0.000000 
0.500000 0.059670 0.000000 
0.408216 -0.013436 0.000000 
0.437459 0.010897 0.000000 
0.405899 0.008935 0.000000 
0.500000 0.012309 0.000000 
0.468788 0.011966 0.000000 
0.469541 -0.011045 0.000000 
0.308043 -0.100000 0.000000 
0.329889 -0.082042 0.000000 
0.301635 -0.087201 0.000000 
0.385926 -0.079277 0.000000 
0.357825 -0.080206 0.000000 
0.359245 -0.100000 0.000000 
0.349878 -0.040618 0.000000 
0.354261 -0.060462 0.000000 
0.380449 -0.037352 0.000000 
0.440506 -0.034329 0.000000 
0.410600 -0.035441 0.000000 
0.412738 -0.057197 0.000000 
[...]
POINT_DATA 4225

SCALARS u_h float 2
LOOKUP_TABLE default
0.118986 -0.305158 
-0.118986 -0.305158 
0.000000 0.000000 
0.000000 0.000000 
-0.000000 -0.100000 
-0.013349 -0.214407 
0.000000 0.000000 
0.013349 -0.214407 
-0.000000 -0.189664 
0.048700 -0.111651 
-0.000000 -0.165884 
-0.014534 -0.204714 
-0.048700 -0.111651 
0.014534 -0.204714 
0.000586 -0.287559 
0.002826 -0.208503 
-0.060697 -0.138059 
-0.025162 -0.139836 
0.000000 0.000000 
-0.000000 -0.132670 
0.000000 0.000000 
0.025162 -0.139836 
0.060697 -0.138059 
-0.002826 -0.208503 
-0.000586 -0.287559 
0.098659 -0.228864 
0.001310 -0.177179 
0.022115 -0.250490 
-0.000000 -0.135785 
0.002115 -0.141040 
0.011783 -0.100000 
-0.008009 -0.193274 
-0.007278 -0.174328 
-0.000000 -0.185730 
-0.011783 -0.100000 
-0.002115 -0.141040 
-0.022115 -0.250490 
-0.001310 -0.177179 
-0.098659 -0.228864 
0.007278 -0.174328 
0.008009 -0.193274 
-0.045879 -0.314205 
0.012243 -0.251273 
-0.001719 -0.220991 
0.014275 -0.240901 
0.005287 -0.249750 
0.014219 -0.214724 
0.002520 -0.194896 
-0.038797 -0.179009 
-0.023921 -0.189941 
-0.043139 -0.078316 
-0.042347 -0.143925 
-0.066585 -0.087010 
-0.012877 -0.184375 
-0.005379 -0.176103 
0.000000 0.000000 
-0.024237 -0.074943 
-0.000000 -0.072221 
-0.010710 -0.073020 
0.000000 0.000000 
-0.011355 -0.134797 
-0.000000 -0.172590 
0.000000 0.000000 
0.010710 -0.073020 
0.043139 -0.078316 
0.024237 -0.074943 
0.000000 0.000000 
0.011355 -0.134797 
0.005379 -0.176103 
0.066585 -0.087010 
0.042347 -0.143925 
0.001719 -0.220991 
0.023921 -0.189941 
0.038797 -0.179009 
0.012877 -0.184375 
-0.002520 -0.194896 
-0.005287 -0.249750 
-0.014275 -0.240901 
-0.012243 -0.251273 
0.045879 -0.314205 
-0.014219 -0.214724 
0.107932 -0.268969 
0.055688 -0.243622 
0.069197 -0.279117 
0.017099 -0.153975 
0.037719 -0.201832 
0.085260 -0.177720 
-0.006410 -0.222571 
0.009759 -0.214333 
-0.008854 -0.193440 
-0.000000 -0.118568 
0.004329 -0.119019 
0.005546 -0.100000 
-0.001418 -0.153416 
0.001482 -0.136876 
-0.000000 -0.151734 
0.020039 -0.100000 
0.008593 -0.120876 
0.011956 -0.127003 
-0.003018 -0.191611 
-0.004054 -0.187627 
-0.000000 -0.189975 
-0.011417 -0.186375 
-0.008637 -0.185785 
-0.012868 -0.196599 
-0.000000 -0.177470 
-0.004261 -0.179518 
-0.003415 -0.167889 
0.001107 -0.151985 
-0.003649 -0.159238 
-0.006820 -0.171668 
-0.005546 -0.100000 
-0.004329 -0.119019 
-0.011956 -0.127003 
-0.008593 -0.120876 
-0.020039 -0.100000 
-0.001482 -0.136876 
0.001418 -0.153416 
-0.069197 -0.279117 
-0.055688 -0.243622 
-0.107932 -0.268969 
0.008854 -0.193440 
-0.009759 -0.214333 
0.006410 -0.222571 
-0.085260 -0.177720 
-0.037719 -0.201832 
-0.017099 -0.153975 
0.004054 -0.187627 
0.003018 -0.191611 
0.003415 -0.167889 
0.004261 -0.179518 
0.012868 -0.196599 
0.008637 -0.185785 
0.011417 -0.186375 
-0.001107 -0.151985 
0.006820 -0.171668 
0.003649 -0.159238 
-0.081994 -0.314044 
-0.033894 -0.282671 
0.007393 -0.272086 
-0.007850 -0.279764 
-0.017020 -0.304198 
0.000041 -0.252539 
0.014908 -0.227649 
-0.006559 -0.221542 
0.003849 -0.235998 
-0.002302 -0.231790 
0.009508 -0.223800 
0.007723 -0.232178 
0.001324 -0.215804 
0.007181 -0.268576 
0.011003 -0.249306 
0.012946 -0.261509 
0.005814 -0.196442 
0.001391 -0.190901 
0.016139 -0.211724 
0.011581 -0.202527 
0.003108 -0.201063 
0.008113 -0.204090 
0.009501 -0.213707 
0.016367 -0.247294 
0.015273 -0.228332 
0.017461 -0.229585 
-0.025871 -0.197107 
-0.018557 -0.205598 
-0.042384 -0.167063 
-0.030905 -0.187646 
-0.050834 -0.159515 
-0.012673 -0.207057 
-0.008185 -0.204066 
-0.039531 -0.041902 
-0.054928 -0.081863 
-0.055217 -0.055128 
-0.033385 -0.142380 
-0.046266 -0.113793 
-0.036165 -0.111769 
-0.066772 -0.114110 
-0.056838 -0.115153 
-0.051638 -0.143173 
-0.001399 -0.188235 
-0.000572 -0.184999 
-0.004952 -0.198839 
-0.002771 -0.193134 
-0.014055 -0.161322 
-0.008748 -0.179972 
-0.019982 -0.164779 
-0.034273 -0.169099 
-0.026743 -0.167780 
-0.017911 -0.188204 
0.000000 0.000000 
-0.028692 -0.038588 
-0.015283 -0.037483 
-0.021119 -0.037789 
0.000000 0.000000 
-0.032875 -0.076306 
-0.027088 -0.109646 
-0.000000 -0.036855 
-0.003181 -0.036945 
0.000000 0.000000 
-0.005895 -0.105009 
-0.005175 -0.072460 
-0.000000 -0.104603 
0.000000 0.000000 
-0.006621 -0.037083 
-0.010565 -0.037267 
-0.002552 -0.173505 
-0.000000 -0.183890 
-0.017837 -0.137122 
-0.008890 -0.158279 
-0.000000 -0.155491 
-0.004295 -0.156226 
-0.005509 -0.133240 
-0.016954 -0.073863 
-0.012159 -0.106071 
-0.019133 -0.107676 
0.000000 0.000000 
0.003181 -0.036945 
0.010565 -0.037267 
0.006621 -0.037083 
0.000000 0.000000 
0.005175 -0.072460 
0.005895 -0.105009 
0.039531 -0.041902 
0.028692 -0.038588 
0.000000 0.000000 
0.027088 -0.109646 
0.032875 -0.076306 
0.036165 -0.111769 
0.000000 0.000000 
0.021119 -0.037789 
0.015283 -0.037483 
0.002552 -0.173505 
0.000572 -0.184999 
0.005509 -0.133240 
0.004295 -0.156226 
0.014055 -0.161322 
0.008890 -0.158279 
0.017837 -0.137122 
0.016954 -0.073863 
0.019133 -0.107676 
0.012159 -0.106071 
0.055217 -0.055128 
0.054928 -0.081863 
0.051638 -0.143173 
0.056838 -0.115153 
0.066772 -0.114110 
0.046266 -0.113793 
0.033385 -0.142380 
0.006559 -0.221542 
0.018557 -0.205598 
0.025871 -0.197107 
0.008185 -0.204066 
0.012673 -0.207057 
-0.001324 -0.215804 
0.050834 -0.159515 
0.030905 -0.187646 
0.042384 -0.167063 
0.001399 -0.188235 
-0.001391 -0.190901 
0.019982 -0.164779 
0.008748 -0.179972 
-0.003108 -0.201063 
0.002771 -0.193134 
0.004952 -0.198839 
0.034273 -0.169099 
0.017911 -0.188204 
0.026743 -0.167780 
0.002302 -0.231790 
-0.003849 -0.235998 
-0.012946 -0.261509 
-0.011003 -0.249306 
-0.007181 -0.268576 
-0.007723 -0.232178 
-0.009508 -0.223800 
0.033894 -0.282671 
0.081994 -0.314044 
-0.014908 -0.227649 
-0.000041 -0.252539 
0.017020 -0.304198 
0.007850 -0.279764 
-0.007393 -0.272086 
-0.005814 -0.196442 
-0.009501 -0.213707 
-0.008113 -0.204090 
-0.011581 -0.202527 
-0.016139 -0.211724 
-0.016367 -0.247294 
-0.017461 -0.229585 
-0.015273 -0.228332 
0.113123 -0.287049 
0.088698 -0.274749 
0.094512 -0.292321 
0.076450 -0.237432 
0.082864 -0.256742 
0.103297 -0.249882 
0.044296 -0.265205 
0.062781 -0.261859 
0.037447 -0.247820 
0.029249 -0.137483 
0.045322 -0.165312 
0.072612 -0.146078 
0.014036 -0.187417 
0.026865 -0.177946 
0.008311 -0.166678 
0.093113 -0.205072 
0.058672 -0.192142 
0.068709 -0.216091 
-0.012364 -0.212132 
-0.008272 -0.207493 
-0.012229 -0.199640 
0.015875 -0.232949 
0.000551 -0.218861 
0.004874 -0.235774 
-0.004362 -0.186009 
-0.002714 -0.201881 
0.004552 -0.195238 
0.047439 -0.223759 
0.021821 -0.208826 
0.029902 -0.229101 
-0.000000 -0.109488 
0.002587 -0.109527 
0.002730 -0.100000 
0.001531 -0.127497 
0.002163 -0.118666 
-0.000000 -0.127322 
0.008526 -0.100000 
0.005233 -0.109687 
0.007994 -0.109996 
-0.001231 -0.159547 
-0.000653 -0.152147 
-0.000000 -0.159080 
0.001966 -0.138436 
-0.000041 -0.145353 
-0.000351 -0.147315 
-0.000000 -0.143941 
0.000038 -0.144284 
0.000791 -0.136045 
0.026793 -0.100000 
0.017389 -0.113292 
0.020385 -0.118451 
0.010926 -0.110527 
0.014075 -0.111456 
0.015495 -0.100000 
0.006128 -0.134368 
0.010511 -0.122962 
0.005449 -0.131102 
0.003006 -0.128079 
0.004350 -0.129191 
0.006488 -0.119697 
-0.001156 -0.190762 
-0.001525 -0.190385 
-0.000000 -0.190408 
-0.006055 -0.189983 
-0.003624 -0.190171 
-0.005386 -0.192371 
-0.000000 -0.188393 
-0.001822 -0.188843 
-0.002031 -0.186210 
-0.013224 -0.194790 
-0.012515 -0.192029 
-0.014377 -0.199778 
-0.008229 -0.180532 
-0.010413 -0.185610 
-0.009366 -0.179574 
-0.010610 -0.194576 
-0.010810 -0.190615 
-0.008547 -0.190046 
-0.000000 -0.172047 
-0.001967 -0.172563 
-0.001673 -0.166385 
-0.002135 -0.182564 
-0.002118 -0.177987 
-0.000000 -0.182061 
-0.005279 -0.170489 
-0.003980 -0.174103 
-0.006068 -0.176729 
-0.006421 -0.186539 
-0.006438 -0.182100 
-0.004276 -0.184051 
0.012915 -0.135792 
0.001816 -0.145253 
0.006255 -0.140113 
0.006267 -0.150264 
0.000511 -0.162390 
-0.002557 -0.160962 
-0.005755 -0.167213 
-0.004053 -0.163450 
-0.002394 -0.155692 
-0.000992 -0.150476 
-0.011183 -0.188669 
-0.004324 -0.172639 
-0.008222 -0.181330 
-0.009530 -0.179606 
-0.007629 -0.172510 
-0.002009 -0.155318 
-0.005176 -0.164421 
-0.003271 -0.162488 
-0.002730 -0.100000 
-0.002587 -0.109527 
-0.007994 -0.109996 
-0.005233 -0.109687 
-0.008526 -0.100000 
-0.002163 -0.118666 
-0.001531 -0.127497 
-0.020385 -0.118451 
-0.017389 -0.113292 
-0.026793 -0.100000 
-0.005449 -0.131102 
-0.010511 -0.122962 
-0.006128 -0.134368 
-0.015495 -0.100000 
-0.014075 -0.111456 
-0.010926 -0.110527 
0.000653 -0.152147 
0.001231 -0.159547 
-0.000791 -0.136045 
-0.000038 -0.144284 
0.000351 -0.147315 
0.000041 -0.145353 
-0.001966 -0.138436 
-0.006488 -0.119697 
-0.004350 -0.129191 
-0.003006 -0.128079 
-0.094512 -0.292321 
-0.088698 -0.274749 
-0.113123 -0.287049 
-0.037447 -0.247820 
-0.062781 -0.261859 
-0.044296 -0.265205 
-0.103297 -0.249882 
-0.082864 -0.256742 
-0.076450 -0.237432 
0.012229 -0.199640 
0.008272 -0.207493 
0.012364 -0.212132 
-0.004552 -0.195238 
0.002714 -0.201881 
0.004362 -0.186009 
-0.004874 -0.235774 
-0.000551 -0.218861 
-0.015875 -0.232949 
-0.072612 -0.146078 
-0.045322 -0.165312 
-0.029249 -0.137483 
-0.068709 -0.216091 
-0.058672 -0.192142 
-0.093113 -0.205072 
-0.008311 -0.166678 
-0.026865 -0.177946 
-0.014036 -0.187417 
-0.029902 -0.229101 
-0.021821 -0.208826 
-0.047439 -0.223759 
0.001525 -0.190385 
0.001156 -0.190762 
0.002031 -0.186210 
0.001822 -0.188843 
0.005386 -0.192371 
0.003624 -0.190171 
0.006055 -0.189983 
0.001673 -0.166385 
0.001967 -0.172563 
0.006068 -0.176729 
0.003980 -0.174103 
0.005279 -0.170489 
0.002118 -0.177987 
0.002135 -0.182564 
0.014377 -0.199778 
0.012515 -0.192029 
0.013224 -0.194790 
0.008547 -0.190046 
0.010810 -0.190615 
0.010610 -0.194576 
0.009366 -0.179574 
0.010413 -0.185610 
0.008229 -0.180532 
0.004276 -0.184051 
0.006438 -0.182100 
0.006421 -0.186539 
-0.012915 -0.135792 
-0.000511 -0.162390 
-0.006267 -0.150264 
-0.006255 -0.140113 
-0.001816 -0.145253 
0.011183 -0.188669 
0.007629 -0.172510 
0.009530 -0.179606 
0.008222 -0.181330 
0.004324 -0.172639 
0.002557 -0.160962 
0.000992 -0.150476 
0.002394 -0.155692 
0.004053 -0.163450 
0.005755 -0.167213 
0.003271 -0.162488 
0.005176 -0.164421 
0.002009 -0.155318 
-0.100673 -0.310368 
-0.075439 -0.296193 
-0.039659 -0.298178 
-0.056847 -0.298213 
-0.063439 -0.315459 
-0.050638 -0.281769 
-0.028126 -0.266954 
0.004274 -0.280657 
-0.002553 -0.286985 
-0.006742 -0.296411 
0.004360 -0.264784 
0.001093 -0.276396 
0.010046 -0.262196 
-0.030185 -0.310321 
-0.012174 -0.292269 
-0.024610 -0.296118 
0.011486 -0.225500 
0.015129 -0.215830 
-0.009678 -0.251988 
0.003542 -0.237786 
0.013906 -0.239627 
0.009714 -0.239061 
0.007270 -0.252273 
-0.019535 -0.281937 
-0.003798 -0.266549 
-0.014601 -0.267332 
-0.009706 -0.219150 
-0.004010 -0.227211 
-0.007502 -0.223065 
0.001366 -0.228690 
-0.001056 -0.228932 
-0.003902 -0.222024 
0.002048 -0.240665 
0.001065 -0.235140 
0.005305 -0.242992 
0.006188 -0.216046 
0.005647 -0.220251 
0.002249 -0.212281 
0.011454 -0.236834 
0.008861 -0.228367 
0.012369 -0.232008 
0.000013 -0.218807 
0.004689 -0.223977 
0.003272 -0.226908 
0.005126 -0.278154 
0.010376 -0.266203 
0.008490 -0.273636 
0.008462 -0.250797 
0.010256 -0.258551 
0.007113 -0.259066 
0.014667 -0.250676 
0.012763 -0.255562 
0.012933 -0.245842 
0.006061 -0.234859 
0.009988 -0.240570 
0.007946 -0.242782 
0.002264 -0.191876 
0.000713 -0.189894 
0.007079 -0.195422 
0.004457 -0.193641 
0.002004 -0.192588 
0.003314 -0.193733 
0.004274 -0.196283 
0.015816 -0.208729 
0.014690 -0.203684 
0.013058 -0.208330 
0.014226 -0.206533 
0.015578 -0.213721 
0.012535 -0.200100 
0.009872 -0.197474 
0.003098 -0.204699 
0.006194 -0.207284 
0.006353 -0.211644 
0.005104 -0.199460 
0.005760 -0.203169 
0.002901 -0.197754 
0.012159 -0.214725 
0.008950 -0.208729 
0.011270 -0.209069 
0.008662 -0.199278 
0.010081 -0.203865 
0.007049 -0.199954 
0.011254 -0.267062 
0.015985 -0.244389 
0.014938 -0.255051 
0.013487 -0.258916 
0.015197 -0.249599 
0.009705 -0.218815 
0.014980 -0.221486 
0.012677 -0.220619 
0.012764 -0.226485 
0.015048 -0.234929 
0.016672 -0.218605 
0.016341 -0.239494 
0.016850 -0.229012 
0.017091 -0.220471 
0.016490 -0.221433 
0.016724 -0.237145 
0.016887 -0.229361 
0.017216 -0.238665 
-0.019464 -0.205823 
-0.015748 -0.210904 
-0.028423 -0.193551 
-0.022039 -0.202400 
-0.032369 -0.188195 
-0.012439 -0.213783 
-0.009554 -0.214825 
-0.051773 -0.153103 
-0.046582 -0.164130 
-0.056126 -0.149065 
-0.027294 -0.189434 
-0.036832 -0.177724 
-0.032972 -0.179470 
-0.045003 -0.169474 
-0.040850 -0.174494 
-0.034745 -0.184274 
-0.003337 -0.210424 
-0.002003 -0.207484 
-0.007087 -0.214392 
-0.005022 -0.212821 
-0.015565 -0.198197 
-0.010262 -0.205969 
-0.018333 -0.198929 
-0.024763 -0.196911 
-0.021398 -0.198599 
-0.015435 -0.207039 
-0.029727 -0.023415 
-0.047001 -0.046656 
-0.041295 -0.035002 
-0.048890 -0.079832 
-0.049558 -0.062771 
-0.043256 -0.060279 
-0.062814 -0.071885 
-0.056308 -0.066663 
-0.060975 -0.084386 
-0.029166 -0.141173 
-0.035383 -0.127725 
-0.030882 -0.126577 
-0.044975 -0.129515 
-0.040098 -0.128738 
-0.037794 -0.143344 
-0.040476 -0.095595 
-0.041109 -0.112815 
-0.045821 -0.096717 
-0.064333 -0.126430 
-0.059726 -0.128704 
-0.056231 -0.141326 
-0.062570 -0.100421 
-0.061968 -0.115120 
-0.067676 -0.101011 
-0.046985 -0.143944 
-0.054893 -0.129741 
-0.049939 -0.129916 
-0.051394 -0.097955 
-0.051551 -0.114623 
-0.057051 -0.099256 
0.000426 -0.188628 
0.000221 -0.187714 
0.000601 -0.192229 
0.000564 -0.190151 
-0.002443 -0.181202 
-0.000935 -0.186371 
-0.003414 -0.182871 
-0.000988 -0.204249 
-0.000257 -0.200937 
-0.007263 -0.189712 
-0.003744 -0.195956 
-0.008954 -0.192229 
0.000227 -0.197733 
0.000500 -0.194789 
-0.019436 -0.151433 
-0.016916 -0.163045 
-0.022890 -0.152980 
-0.006981 -0.177917 
-0.011537 -0.171343 
-0.009299 -0.169520 
-0.016597 -0.175236 
-0.013964 -0.173287 
-0.010707 -0.182167 
-0.002000 -0.190521 
-0.005794 -0.187226 
-0.004520 -0.184909 
-0.047386 -0.155578 
-0.038695 -0.157094 
-0.043011 -0.156814 
-0.038271 -0.168625 
-0.029288 -0.180022 
-0.026558 -0.154450 
-0.019446 -0.177057 
-0.023259 -0.166404 
-0.030431 -0.155724 
-0.034488 -0.156662 
-0.006424 -0.201611 
-0.020793 -0.189445 
-0.013088 -0.196677 
-0.010890 -0.194615 
-0.015275 -0.186446 
-0.030421 -0.168743 
-0.022514 -0.178590 
-0.025797 -0.179649 
0.000000 0.000000 
-0.023100 -0.020006 
-0.016051 -0.018634 
-0.019026 -0.018977 
0.000000 0.000000 
-0.033538 -0.039643 
-0.037623 -0.058777 
-0.008375 -0.018557 
-0.009915 -0.018536 
0.000000 0.000000 
-0.024182 -0.056777 
-0.018033 -0.037614 
-0.020576 -0.056403 
0.000000 0.000000 
-0.011659 -0.018520 
-0.013668 -0.018533 
-0.031485 -0.110702 
-0.026624 -0.125371 
-0.037793 -0.077186 
-0.035436 -0.094578 
-0.026355 -0.092776 
-0.030729 -0.093644 
-0.028368 -0.075578 
-0.024627 -0.038069 
-0.028176 -0.057234 
-0.032628 -0.057852 
-0.000000 -0.018526 
-0.000847 -0.018547 
0.000000 0.000000 
-0.002149 -0.054877 
-0.001573 -0.036896 
-0.000000 -0.054817 
0.000000 0.000000 
-0.001718 -0.018559 
-0.002627 -0.018568 
-0.002890 -0.119380 
-0.002925 -0.104720 
-0.000000 -0.119245 
-0.007875 -0.072701 
-0.005688 -0.089198 
-0.008648 -0.089545 
-0.000000 -0.088876 
-0.002821 -0.088974 
-0.002565 -0.072299 
0.000000 0.000000 
-0.005757 -0.018579 
-0.006998 -0.018572 
-0.003591 -0.018575 
-0.004628 -0.018580 
0.000000 0.000000 
-0.011557 -0.055530 
-0.008514 -0.037170 
-0.009004 -0.055306 
-0.004340 -0.054977 
-0.006612 -0.055120 
-0.004853 -0.037007 
-0.000273 -0.184165 
-0.000000 -0.187433 
-0.003914 -0.174612 
-0.001575 -0.179968 
-0.000000 -0.178957 
-0.000772 -0.179212 
-0.001259 -0.172823 
-0.021386 -0.138460 
-0.016195 -0.149907 
-0.010291 -0.147230 
-0.013153 -0.148484 
-0.014501 -0.135883 
-0.011387 -0.159706 
-0.007228 -0.167907 
-0.000000 -0.144776 
-0.002474 -0.144949 
-0.002734 -0.132824 
-0.001718 -0.164981 
-0.002129 -0.155682 
-0.000000 -0.164769 
-0.008370 -0.133905 
-0.004987 -0.145428 
-0.007580 -0.146198 
-0.005296 -0.166580 
-0.006536 -0.157103 
-0.003471 -0.165592 
-0.012809 -0.037371 
-0.013723 -0.073410 
-0.014309 -0.055788 
-0.017301 -0.056079 
-0.020446 -0.074375 
-0.005825 -0.119733 
-0.012004 -0.121045 
-0.008848 -0.120294 
-0.008958 -0.105463 
-0.011748 -0.090007 
-0.022618 -0.124166 
-0.022299 -0.091971 
-0.022975 -0.108628 
-0.018859 -0.123015 
-0.015330 -0.121963 
-0.015030 -0.090575 
-0.015538 -0.106816 
-0.018535 -0.091233 
0.000000 0.000000 
0.000847 -0.018547 
0.002627 -0.018568 
0.001718 -0.018559 
0.000000 0.000000 
0.001573 -0.036896 
0.002149 -0.054877 
0.006998 -0.018572 
0.005757 -0.018579 
0.000000 0.000000 
0.009004 -0.055306 
0.008514 -0.037170 
0.011557 -0.055530 
0.000000 0.000000 
0.004628 -0.018580 
0.003591 -0.018575 
0.002925 -0.104720 
0.002890 -0.119380 
0.002565 -0.072299 
0.002821 -0.088974 
0.008648 -0.089545 
0.005688 -0.089198 
0.007875 -0.072701 
0.004853 -0.037007 
0.006612 -0.055120 
0.004340 -0.054977 
0.029727 -0.023415 
0.023100 -0.020006 
0.000000 0.000000 
0.037623 -0.058777 
0.033538 -0.039643 
0.043256 -0.060279 
0.000000 0.000000 
0.019026 -0.018977 
0.016051 -0.018634 
0.026624 -0.125371 
0.031485 -0.110702 
0.030882 -0.126577 
0.028368 -0.075578 
0.030729 -0.093644 
0.026355 -0.092776 
0.040476 -0.095595 
0.035436 -0.094578 
0.037793 -0.077186 
0.000000 0.000000 
0.009915 -0.018536 
0.008375 -0.018557 
0.013668 -0.018533 
0.011659 -0.018520 
0.000000 0.000000 
0.020576 -0.056403 
0.018033 -0.037614 
0.024182 -0.056777 
0.032628 -0.057852 
0.028176 -0.057234 
0.024627 -0.038069 
0.000273 -0.184165 
-0.000221 -0.187714 
0.001259 -0.172823 
0.000772 -0.179212 
0.002443 -0.181202 
0.001575 -0.179968 
0.003914 -0.174612 
0.002734 -0.132824 
0.002474 -0.144949 
0.007580 -0.146198 
0.004987 -0.145428 
0.008370 -0.133905 
0.002129 -0.155682 
0.001718 -0.164981 
0.019436 -0.151433 
0.016195 -0.149907 
0.021386 -0.138460 
0.007228 -0.167907 
0.011387 -0.159706 
0.009299 -0.169520 
0.014501 -0.135883 
0.013153 -0.148484 
0.010291 -0.147230 
0.003471 -0.165592 
0.006536 -0.157103 
0.005296 -0.166580 
0.012809 -0.037371 
0.020446 -0.074375 
0.017301 -0.056079 
0.014309 -0.055788 
0.013723 -0.073410 
0.022618 -0.124166 
0.015330 -0.121963 
0.018859 -0.123015 
0.022975 -0.108628 
0.022299 -0.091971 
0.005825 -0.119733 
0.011748 -0.090007 
0.008958 -0.105463 
0.008848 -0.120294 
0.012004 -0.121045 
0.018535 -0.091233 
0.015538 -0.106816 
0.015030 -0.090575 
0.041295 -0.035002 
0.047001 -0.046656 
0.060975 -0.084386 
0.056308 -0.066663 
0.062814 -0.071885 
0.049558 -0.062771 
0.048890 -0.079832 
0.056231 -0.141326 
0.059726 -0.128704 
0.064333 -0.126430 
0.049939 -0.129916 
0.054893 -0.129741 
0.046985 -0.143944 
0.067676 -0.101011 
0.061968 -0.115120 
0.062570 -0.100421 
0.035383 -0.127725 
0.029166 -0.141173 
0.045821 -0.096717 
0.041109 -0.112815 
0.037794 -0.143344 
0.040098 -0.128738 
0.044975 -0.129515 
0.057051 -0.099256 
0.051551 -0.114623 
0.051394 -0.097955 
0.009706 -0.219150 
0.015748 -0.210904 
0.019464 -0.205823 
0.009554 -0.214825 
0.012439 -0.213783 
0.003902 -0.222024 
0.032369 -0.188195 
0.022039 -0.202400 
0.028423 -0.193551 
0.002003 -0.207484 
0.003337 -0.210424 
-0.002249 -0.212281 
0.018333 -0.198929 
0.010262 -0.205969 
0.015565 -0.198197 
-0.000013 -0.218807 
0.005022 -0.212821 
0.007087 -0.214392 
0.056126 -0.149065 
0.046582 -0.164130 
0.051773 -0.153103 
0.034745 -0.184274 
0.040850 -0.174494 
0.045003 -0.169474 
0.032972 -0.179470 
0.036832 -0.177724 
0.027294 -0.189434 
0.015435 -0.207039 
0.021398 -0.198599 
0.024763 -0.196911 
-0.000426 -0.188628 
-0.000713 -0.189894 
0.003414 -0.182871 
0.000935 -0.186371 
-0.002004 -0.192588 
-0.000564 -0.190151 
-0.000601 -0.192229 
0.022890 -0.152980 
0.016916 -0.163045 
0.010707 -0.182167 
0.013964 -0.173287 
0.016597 -0.175236 
0.011537 -0.171343 
0.006981 -0.177917 
-0.003098 -0.204699 
0.000257 -0.200937 
0.000988 -0.204249 
-0.000500 -0.194789 
-0.000227 -0.197733 
-0.002901 -0.197754 
0.008954 -0.192229 
0.003744 -0.195956 