# vtk DataFile Version 2.0
Unstructured Grid Example
ASCII
DATASET UNSTRUCTURED_GRID

POINTS 1089 float
0.116658 -0.311919 0.000000 
0.883342 -0.311919 0.000000 
1.000000 1.000000 0.000000 
0.000000 1.000000 0.000000 
0.500000 -0.100000 0.000000 
0.985358 0.281314 0.000000 
0.500000 1.000000 0.000000 
0.014642 0.281314 0.000000 
0.500000 0.307713 0.000000 
0.308380 -0.129762 0.000000 
0.500000 0.082455 0.000000 
0.235650 0.039549 0.000000 
0.691620 -0.129762 0.000000 
0.764350 0.039549 0.000000 
0.998559 -0.043067 0.000000 
0.752669 0.288338 0.000000 
0.938573 0.609774 0.000000 
0.724592 0.608696 0.000000 
0.750000 1.000000 0.000000 
0.500000 0.616228 0.000000 
0.250000 1.000000 0.000000 
0.275408 0.608696 0.000000 
0.061427 0.609774 0.000000 
0.247331 0.288338 0.000000 
0.001441 -0.043067 0.000000 
0.222186 -0.238521 0.000000 
0.252766 -0.060771 0.000000 
0.149042 -0.133199 0.000000 
0.500000 -0.011528 0.000000 
0.376966 -0.017984 0.000000 
0.388755 -0.100000 0.000000 
0.366687 0.178843 0.000000 
0.367184 0.072769 0.000000 
0.500000 0.187036 0.000000 
0.611245 -0.100000 0.000000 
0.623034 -0.017984 0.000000 
0.850958 -0.133199 0.000000 
0.747234 -0.060771 0.000000 
0.777814 -0.238521 0.000000 
0.632816 0.072769 0.000000 
0.633313 0.178843 0.000000 
0.954324 -0.193980 0.000000 
0.885419 -0.007775 0.000000 
0.872575 0.275208 0.000000 
0.888200 0.129023 0.000000 
1.003645 0.119663 0.000000 
0.764112 0.156063 0.000000 
0.627613 0.302573 0.000000 
0.960391 0.442788 0.000000 
0.850514 0.432314 0.000000 
0.831730 0.796081 0.000000 
0.832174 0.604336 0.000000 
0.932952 0.787006 0.000000 
0.736825 0.438309 0.000000 
0.619494 0.446904 0.000000 
0.875000 1.000000 0.000000 
0.725677 0.799439 0.000000 
0.500000 0.802388 0.000000 
0.614241 0.801385 0.000000 
0.625000 1.000000 0.000000 
0.613539 0.613911 0.000000 
0.500000 0.450535 0.000000 
0.375000 1.000000 0.000000 
0.385759 0.801385 0.000000 
0.168270 0.796081 0.000000 
0.274323 0.799439 0.000000 
0.125000 1.000000 0.000000 
0.386461 0.613911 0.000000 
0.380506 0.446904 0.000000 
0.067048 0.787006 0.000000 
0.167826 0.604336 0.000000 
0.127425 0.275208 0.000000 
0.149486 0.432314 0.000000 
0.039609 0.442788 0.000000 
0.263175 0.438309 0.000000 
0.372387 0.302573 0.000000 
-0.003645 0.119663 0.000000 
0.111800 0.129023 0.000000 
0.114581 -0.007775 0.000000 
0.045676 -0.193980 0.000000 
0.235888 0.156063 0.000000 
0.168499 -0.276713 0.000000 
0.181396 -0.189377 0.000000 
0.131051 -0.223547 0.000000 
0.271640 -0.102541 0.000000 
0.228253 -0.149384 0.000000 
0.272563 -0.190783 0.000000 
0.182867 -0.042845 0.000000 
0.199955 -0.098317 0.000000 
0.241623 -0.012834 0.000000 
0.500000 -0.056413 0.000000 
0.442351 -0.056902 0.000000 
0.443841 -0.100000 0.000000 
0.435842 0.032516 0.000000 
0.439023 -0.012843 0.000000 
0.500000 0.034548 0.000000 
0.337404 -0.100000 0.000000 
0.384516 -0.059185 0.000000 
0.325133 -0.067752 0.000000 
0.434319 0.243426 0.000000 
0.433232 0.184942 0.000000 
0.500000 0.245119 0.000000 
0.300622 0.059374 0.000000 
0.365934 0.123762 0.000000 
0.299299 0.112014 0.000000 
0.500000 0.133028 0.000000 
0.432966 0.130691 0.000000 
0.433776 0.080096 0.000000 
0.313224 -0.031525 0.000000 
0.370825 0.025632 0.000000 
0.305147 0.011281 0.000000 
0.556159 -0.100000 0.000000 
0.557649 -0.056902 0.000000 
0.674867 -0.067752 0.000000 
0.615484 -0.059185 0.000000 
0.662596 -0.100000 0.000000 
0.560977 -0.012843 0.000000 
0.564158 0.032516 0.000000 
0.868949 -0.223547 0.000000 
0.818604 -0.189377 0.000000 
0.831501 -0.276713 0.000000 
0.758377 -0.012834 0.000000 
0.800045 -0.098317 0.000000 
0.817133 -0.042845 0.000000 
0.727437 -0.190783 0.000000 
0.771747 -0.149384 0.000000 
0.728360 -0.102541 0.000000 
0.566768 0.184942 0.000000 
0.565681 0.243426 0.000000 
0.566224 0.080096 0.000000 
0.567034 0.130691 0.000000 
0.700701 0.112014 0.000000 
0.634066 0.123762 0.000000 
0.699378 0.059374 0.000000 
0.686776 -0.031525 0.000000 
0.694853 0.011281 0.000000 
0.629175 0.025632 0.000000 
0.919696 -0.257193 0.000000 
0.902708 -0.164108 0.000000 
0.942825 -0.028053 0.000000 
0.927795 -0.098437 0.000000 
0.981657 -0.121616 0.000000 
0.872938 -0.072222 0.000000 
0.826245 0.015761 0.000000 
0.929938 0.274396 0.000000 
0.940215 0.196823 0.000000 
0.996336 0.200692 0.000000 
0.821540 0.209604 0.000000 
0.881891 0.200898 0.000000 
0.813413 0.280696 0.000000 
1.005206 0.038125 0.000000 
0.947069 0.120466 0.000000 
0.948629 0.045323 0.000000 
0.631007 0.238323 0.000000 
0.563972 0.306710 0.000000 
0.766029 0.095891 0.000000 
0.699289 0.168952 0.000000 
0.690625 0.296121 0.000000 
0.695715 0.230244 0.000000 
0.759372 0.220140 0.000000 
0.889937 0.059432 0.000000 
0.827185 0.141894 0.000000 
0.829159 0.077326 0.000000 
0.973208 0.361642 0.000000 
0.918151 0.353409 0.000000 
0.894457 0.517981 0.000000 
0.905897 0.434382 0.000000 
0.948394 0.525310 0.000000 
0.861710 0.352197 0.000000 
0.803888 0.355445 0.000000 
0.898245 0.895733 0.000000 
0.882295 0.792424 0.000000 
0.944601 0.882738 0.000000 
0.778762 0.606032 0.000000 
0.828371 0.697517 0.000000 
0.776093 0.699646 0.000000 
0.932588 0.696746 0.000000 
0.880153 0.696003 0.000000 
0.885248 0.604907 0.000000 
0.623537 0.371977 0.000000 
0.561882 0.375297 0.000000 
0.744792 0.360935 0.000000 
0.684598 0.366887 0.000000 
0.673243 0.524415 0.000000 
0.678555 0.442895 0.000000 
0.729724 0.520820 0.000000 
0.840195 0.516149 0.000000 
0.785350 0.517653 0.000000 
0.794163 0.434272 0.000000 
0.937500 1.000000 0.000000 
0.846370 0.898768 0.000000 
0.734635 0.899738 0.000000 
0.791324 0.899462 0.000000 
0.812500 1.000000 0.000000 
0.779532 0.798091 0.000000 
0.722750 0.701829 0.000000 
0.500000 0.900510 0.000000 
0.559306 0.900309 0.000000 
0.562500 1.000000 0.000000 
0.556568 0.706632 0.000000 
0.557302 0.802004 0.000000 
0.500000 0.707171 0.000000 
0.687500 1.000000 0.000000 
0.618338 0.900140 0.000000 
0.676865 0.899948 0.000000 
0.559876 0.449584 0.000000 
0.500000 0.376366 0.000000 
0.669498 0.611506 0.000000 
0.615979 0.527568 0.000000 
0.500000 0.530517 0.000000 
0.558135 0.529706 0.000000 
0.556935 0.615551 0.000000 
0.670474 0.800520 0.000000 
0.612770 0.705495 0.000000 
0.668257 0.703842 0.000000 
0.437500 1.000000 0.000000 
0.440694 0.900309 0.000000 
0.323135 0.899948 0.000000 
0.381662 0.900140 0.000000 
0.312500 1.000000 0.000000 
0.442698 0.802004 0.000000 
0.443432 0.706632 0.000000 
0.101755 0.895733 0.000000 
0.153630 0.898768 0.000000 
0.062500 1.000000 0.000000 
0.277250 0.701829 0.000000 
0.220468 0.798091 0.000000 
0.223907 0.699646 0.000000 
0.187500 1.000000 0.000000 
0.208676 0.899462 0.000000 
0.265365 0.899738 0.000000 
0.440124 0.449584 0.000000 
0.438118 0.375297 0.000000 
0.443065 0.615551 0.000000 
0.441865 0.529706 0.000000 
0.326757 0.524415 0.000000 
0.384021 0.527568 0.000000 
0.330502 0.611506 0.000000 
0.329526 0.800520 0.000000 
0.331743 0.703842 0.000000 
0.387230 0.705495 0.000000 
0.055399 0.882738 0.000000 
0.117705 0.792424 0.000000 
0.114752 0.604907 0.000000 
0.119847 0.696003 0.000000 
0.067412 0.696746 0.000000 
0.171629 0.697517 0.000000 
0.221238 0.606032 0.000000 
0.070062 0.274396 0.000000 
0.081849 0.353409 0.000000 
0.026792 0.361642 0.000000 
0.196112 0.355445 0.000000 
0.138290 0.352197 0.000000 
0.186587 0.280696 0.000000 
0.051606 0.525310 0.000000 
0.094103 0.434382 0.000000 
0.105543 0.517981 0.000000 
0.376463 0.371977 0.000000 
0.436028 0.306710 0.000000 
0.270276 0.520820 0.000000 
0.321445 0.442895 0.000000 
0.309375 0.296121 0.000000 
0.315402 0.366887 0.000000 
0.255208 0.360935 0.000000 
0.159805 0.516149 0.000000 
0.205837 0.434272 0.000000 
0.214650 0.517653 0.000000 
0.003664 0.200692 0.000000 
0.059785 0.196823 0.000000 
0.051371 0.045323 0.000000 
0.052931 0.120466 0.000000 
-0.005206 0.038125 0.000000 
0.118109 0.200898 0.000000 
0.178460 0.209604 0.000000 
0.097292 -0.164108 0.000000 
0.080304 -0.257193 0.000000 
0.173755 0.015761 0.000000 
0.127062 -0.072222 0.000000 
0.018343 -0.121616 0.000000 
0.072205 -0.098437 0.000000 
0.057175 -0.028053 0.000000 
0.368993 0.238323 0.000000 
0.240628 0.220140 0.000000 
0.304285 0.230244 0.000000 
0.300711 0.168952 0.000000 
0.233971 0.095891 0.000000 
0.110063 0.059432 0.000000 
0.170841 0.077326 0.000000 
0.172815 0.141894 0.000000 
0.142207 -0.294103 0.000000 
0.149805 -0.250794 0.000000 
0.123966 -0.267782 0.000000 
0.201095 -0.214980 0.000000 
0.175673 -0.233481 0.000000 
0.195332 -0.258471 0.000000 
0.138823 -0.178726 0.000000 
0.156490 -0.206913 0.000000 
0.163930 -0.162009 0.000000 
0.286577 -0.119045 0.000000 
0.268552 -0.146483 0.000000 
0.293417 -0.161939 0.000000 
0.236231 -0.103799 0.000000 
0.250035 -0.126478 0.000000 
0.260898 -0.082666 0.000000 
0.248291 -0.216155 0.000000 
0.248187 -0.171891 0.000000 
0.225491 -0.194622 0.000000 
0.207282 -0.000284 0.000000 
0.211705 -0.027592 0.000000 
0.238056 0.012844 0.000000 
0.174539 -0.116324 0.000000 
0.190263 -0.071006 0.000000 
0.163408 -0.087531 0.000000 
0.246464 -0.037413 0.000000 
0.217765 -0.054018 0.000000 
0.225768 -0.079486 0.000000 
0.205400 -0.170337 0.000000 
0.212408 -0.124585 0.000000 
0.188445 -0.144046 0.000000 
0.500000 -0.078419 0.000000 
0.471691 -0.078431 0.000000 
0.471848 -0.100000 0.000000 
0.470431 -0.034291 0.000000 
0.471178 -0.056496 0.000000 
0.500000 -0.034101 0.000000 
0.416080 -0.100000 0.000000 
0.443464 -0.078607 0.000000 
0.415387 -0.078963 0.000000 
0.467375 0.057641 0.000000 
0.467987 0.034032 0.000000 
0.500000 0.058220 0.000000 
0.408200 -0.014754 0.000000 
0.437327 0.009617 0.000000 
0.405647 0.007246 0.000000 
0.500000 0.011331 0.000000 
0.468738 0.010908 0.000000 
0.469579 -0.011838 0.000000 
0.316634 -0.100000 0.000000 
0.332273 -0.083443 0.000000 
0.304816 -0.093361 0.000000 
0.387524 -0.079589 0.000000 
0.359897 -0.080746 0.000000 
0.362242 -0.100000 0.000000 
0.349993 -0.043002 0.000000 
0.355187 -0.061947 0.000000 
0.380743 -0.038756 0.000000 
0.440775 -0.034986 0.000000 
0.410933 -0.036349 0.000000 
0.413494 -0.057717 0.000000 
[...]
POINT_DATA 1089

SCALARS u_h float 2
LOOKUP_TABLE default
0.116658 -0.311919 
-0.116658 -0.311919 
0.000000 0.000000 
0.000000 0.000000 
-0.000000 -0.100000 
-0.014642 -0.218686 
0.000000 0.000000 
0.014642 -0.218686 
-0.000000 -0.192287 
0.058380 -0.129762 
-0.000000 -0.167545 
-0.014350 -0.210451 
-0.058380 -0.129762 
0.014350 -0.210451 
-0.001441 -0.293067 
0.002669 -0.211662 
-0.061427 -0.140226 
-0.025408 -0.141304 
0.000000 0.000000 
-0.000000 -0.133772 
0.000000 0.000000 
0.025408 -0.141304 
0.061427 -0.140226 
-0.002669 -0.211662 
0.001441 -0.293067 
0.097186 -0.238521 
0.002766 -0.185771 
0.024042 -0.258199 
-0.000000 -0.136528 
0.001966 -0.142984 
0.013755 -0.100000 
-0.008313 -0.196157 
-0.007816 -0.177231 
-0.000000 -0.187964 
-0.013755 -0.100000 
-0.001966 -0.142984 
-0.024042 -0.258199 
-0.002766 -0.185771 
-0.097186 -0.238521 
0.007816 -0.177231 
0.008313 -0.196157 
-0.045676 -0.318980 
0.010419 -0.257775 
-0.002425 -0.224792 
0.013200 -0.245977 
0.003645 -0.255337 
0.014112 -0.218937 
0.002613 -0.197427 
-0.039609 -0.182212 
-0.024486 -0.192686 
-0.043270 -0.078919 
-0.042826 -0.145664 
-0.067048 -0.087994 
-0.013175 -0.186691 
-0.005506 -0.178096 
0.000000 0.000000 
-0.024323 -0.075561 
-0.000000 -0.072612 
-0.010759 -0.073615 
0.000000 0.000000 
-0.011461 -0.136089 
-0.000000 -0.174465 
0.000000 0.000000 
0.010759 -0.073615 
0.043270 -0.078919 
0.024323 -0.075561 
0.000000 0.000000 
0.011461 -0.136089 
0.005506 -0.178096 
0.067048 -0.087994 
0.042826 -0.145664 
0.002425 -0.224792 
0.024486 -0.192686 
0.039609 -0.182212 
0.013175 -0.186691 
-0.002613 -0.197427 
-0.003645 -0.255337 
-0.013200 -0.245977 
-0.010419 -0.257775 
0.045676 -0.318980 
-0.014112 -0.218937 
0.105999 -0.276713 
0.056396 -0.251877 
0.068551 -0.286047 
0.021640 -0.165041 
0.040753 -0.211884 
0.085063 -0.190783 
-0.004633 -0.230345 
0.012455 -0.223317 
-0.008377 -0.200334 
-0.000000 -0.118913 
0.004851 -0.119402 
0.006341 -0.100000 
-0.001658 -0.154984 
0.001523 -0.137843 
-0.000000 -0.152952 
0.024904 -0.100000 
0.009516 -0.121685 
0.012633 -0.130252 
-0.003181 -0.194074 
-0.004268 -0.190058 
-0.000000 -0.192381 
-0.011878 -0.190626 
-0.009066 -0.188738 
-0.013201 -0.200486 
-0.000000 -0.179472 
-0.004534 -0.181809 
-0.003724 -0.169904 
0.000724 -0.156525 
-0.004175 -0.161868 
-0.007353 -0.176219 
-0.006341 -0.100000 
-0.004851 -0.119402 
-0.012633 -0.130252 
-0.009516 -0.121685 
-0.024904 -0.100000 
-0.001523 -0.137843 
0.001658 -0.154984 
-0.068551 -0.286047 
-0.056396 -0.251877 
-0.105999 -0.276713 
0.008377 -0.200334 
-0.012455 -0.223317 
0.004633 -0.230345 
-0.085063 -0.190783 
-0.040753 -0.211884 
-0.021640 -0.165041 
0.004268 -0.190058 
0.003181 -0.194074 
0.003724 -0.169904 
0.004534 -0.181809 
0.013201 -0.200486 
0.009066 -0.188738 
0.011878 -0.190626 
-0.000724 -0.156525 
0.007353 -0.176219 
0.004175 -0.161868 
-0.080304 -0.319693 
-0.034792 -0.289108 
0.005325 -0.278053 
-0.009705 -0.285937 
-0.018343 -0.309116 
-0.002062 -0.259722 
0.013745 -0.234239 
-0.007562 -0.225604 
0.002715 -0.240677 
-0.003664 -0.236808 
0.009040 -0.227896 
0.006891 -0.236602 
0.000913 -0.219304 
0.005206 -0.274375 
0.009569 -0.254534 
0.011129 -0.267177 
0.006007 -0.199177 
0.001472 -0.193290 
0.016029 -0.216609 
0.011789 -0.206048 
0.003125 -0.203879 
0.008215 -0.207256 
0.009372 -0.217360 
0.014937 -0.253068 
0.014685 -0.233106 
0.016659 -0.235174 
-0.026792 -0.200858 
-0.019349 -0.209091 
-0.043043 -0.169519 
-0.031603 -0.190618 
-0.051606 -0.162190 
-0.013290 -0.210303 
-0.008612 -0.207055 
-0.039255 -0.041767 
-0.055205 -0.082576 
-0.055399 -0.054762 
-0.033738 -0.143968 
-0.046629 -0.114983 
-0.036407 -0.112854 
-0.067412 -0.115754 
-0.057347 -0.116497 
-0.052252 -0.145093 
-0.001463 -0.190523 
-0.000618 -0.187203 
-0.005208 -0.201565 
-0.002902 -0.195613 
-0.014257 -0.163085 
-0.008945 -0.182105 
-0.020276 -0.166680 
-0.034805 -0.171351 
-0.027150 -0.169847 
-0.018337 -0.190728 
0.000000 0.000000 
-0.028630 -0.038732 
-0.015365 -0.037762 
-0.021176 -0.038038 
0.000000 0.000000 
-0.032968 -0.076909 
-0.027250 -0.110671 
-0.000000 -0.036990 
-0.003194 -0.037191 
0.000000 0.000000 
-0.005932 -0.105868 
-0.005198 -0.072996 
-0.000000 -0.105329 
0.000000 0.000000 
-0.006662 -0.037360 
-0.010635 -0.037552 
-0.002624 -0.175416 
-0.000000 -0.186134 
-0.018002 -0.138494 
-0.009021 -0.159932 
-0.000000 -0.156983 
-0.004365 -0.157794 
-0.005565 -0.134449 
-0.017026 -0.074480 
-0.012230 -0.107005 
-0.019243 -0.108658 
0.000000 0.000000 
0.003194 -0.037191 
0.010635 -0.037552 
0.006662 -0.037360 
0.000000 0.000000 
0.005198 -0.072996 
0.005932 -0.105868 
0.039255 -0.041767 
0.028630 -0.038732 
0.000000 0.000000 
0.027250 -0.110671 
0.032968 -0.076909 
0.036407 -0.112854 
0.000000 0.000000 
0.021176 -0.038038 
0.015365 -0.037762 
0.002624 -0.175416 
0.000618 -0.187203 
0.005565 -0.134449 
0.004365 -0.157794 
0.014257 -0.163085 
0.009021 -0.159932 
0.018002 -0.138494 
0.017026 -0.074480 
0.019243 -0.108658 
0.012230 -0.107005 
0.055399 -0.054762 
0.055205 -0.082576 
0.052252 -0.145093 
0.057347 -0.116497 
0.067412 -0.115754 
0.046629 -0.114983 
0.033738 -0.143968 
0.007562 -0.225604 
0.019349 -0.209091 
0.026792 -0.200858 
0.008612 -0.207055 
0.013290 -0.210303 
-0.000913 -0.219304 
0.051606 -0.162190 
0.031603 -0.190618 
0.043043 -0.169519 
0.001463 -0.190523 
-0.001472 -0.193290 
0.020276 -0.166680 
0.008945 -0.182105 
-0.003125 -0.203879 
0.002902 -0.195613 
0.005208 -0.201565 
0.034805 -0.171351 
0.018337 -0.190728 
0.027150 -0.169847 
0.003664 -0.236808 
-0.002715 -0.240677 
-0.011129 -0.267177 
-0.009569 -0.254534 
-0.005206 -0.274375 
-0.006891 -0.236602 
-0.009040 -0.227896 
0.034792 -0.289108 
0.080304 -0.319693 
-0.013745 -0.234239 
0.002062 -0.259722 
0.018343 -0.309116 
0.009705 -0.285937 
-0.005325 -0.278053 
-0.006007 -0.199177 
-0.009372 -0.217360 
-0.008215 -0.207256 
-0.011789 -0.206048 
-0.016029 -0.216609 
-0.014937 -0.253068 
-0.016659 -0.235174 
-0.014685 -0.233106 
0.110957 -0.294103 
0.087305 -0.282044 
0.092716 -0.299032 
0.076095 -0.246230 
0.081923 -0.264731 
0.101582 -0.258471 
0.045073 -0.272476 
0.062740 -0.269413 
0.038930 -0.255759 
0.036577 -0.150295 
0.049802 -0.177733 
0.074667 -0.161939 
0.017481 -0.197549 
0.031285 -0.188978 
0.010898 -0.176416 
0.092041 -0.216155 
0.060687 -0.203141 
0.069241 -0.225872 
-0.011468 -0.219034 
-0.007045 -0.215092 
-0.011944 -0.205906 
0.018289 -0.241324 
0.002763 -0.227256 
0.007158 -0.243781 
-0.003536 -0.193663 
-0.000985 -0.210268 
0.007018 -0.204486 
0.049150 -0.232837 
0.024908 -0.218335 
0.032195 -0.237796 
-0.000000 -0.109669 
0.002941 -0.109681 
0.003098 -0.100000 
0.001681 -0.128041 
0.002428 -0.118996 
-0.000000 -0.127851 
0.009830 -0.100000 
0.005964 -0.109857 
0.009137 -0.110213 
-0.001375 -0.161109 
-0.000763 -0.153468 
-0.000000 -0.160530 
0.001950 -0.139754 
-0.000173 -0.146633 
-0.000603 -0.149004 
-0.000000 -0.144919 
-0.000012 -0.145342 
0.000829 -0.136838 
0.035384 -0.100000 
0.019773 -0.114693 
0.023566 -0.124611 
0.012524 -0.110839 
0.016147 -0.111996 
0.018492 -0.100000 
0.006243 -0.136752 
0.011437 -0.124447 
0.005743 -0.132506 
0.003275 -0.128736 
0.004683 -0.130099 
0.007244 -0.120217 
-0.001254 -0.193199 
-0.001628 -0.192794 
-0.000000 -0.192910 
-0.006334 -0.192611 
-0.003812 -0.192631 
-0.005620 -0.194984 
-0.000000 -0.190716 
-0.001931 -0.191206 
-0.002149 -0.188509 
-0.013443 -0.199798 
-0.012913 -0.196100 
-0.014569 -0.204467 
-0.008718 -0.183480 
-0.010904 -0.189089 
-0.009922 -0.183108 
-0.010959 -0.197874 
-0.011230 -0.194012 
-0.008912 -0.192976 
-0.000000 -0.173892 
-0.002121 -0.174517 
-0.001828 -0.168160 
-0.002266 -0.184777 
-0.002263 -0.180085 
-0.000000 -0.184190 
-0.005723 -0.172880 
-0.004279 -0.176276 
-0.006485 -0.179236 
-0.006747 -0.189157 
-0.006812 -0.184680 
-0.004520 -0.186427 
0.014199 -0.142948 
0.001488 -0.148238 
0.006187 -0.144293 
0.006741 -0.157229 
0.000596 -0.168950 
-0.002851 -0.162776 
-0.006313 -0.170017 
-0.004494 -0.165674 
-0.002780 -0.157685 
-0.001398 -0.152828 
-0.011410 -0.194024 
-0.004434 -0.178776 
-0.008420 -0.187062 
-0.010040 -0.184023 
-0.008229 -0.176058 
-0.002542 -0.158645 
-0.005780 -0.167913 
-0.003777 -0.167104 
-0.003098 -0.100000 
-0.002941 -0.109681 
-0.009137 -0.110213 
-0.005964 -0.109857 
-0.009830 -0.100000 
-0.002428 -0.118996 
-0.001681 -0.128041 
-0.023566 -0.124611 
-0.019773 -0.114693 
-0.035384 -0.100000 
-0.005743 -0.132506 
-0.011437 -0.124447 
-0.006243 -0.136752 
-0.018492 -0.100000 
-0.016147 -0.111996 
-0.012524 -0.110839 
0.000763 -0.153468 
0.001375 -0.161109 
-0.000829 -0.136838 
0.000012 -0.145342 
0.000603 -0.149004 
0.000173 -0.146633 
-0.001950 -0.139754 
-0.007244 -0.120217 
-0.004683 -0.130099 
-0.003275 -0.128736 
-0.092716 -0.299032 
-0.087305 -0.282044 
-0.110957 -0.294103 
-0.038930 -0.255759 
-0.062740 -0.269413 
-0.045073 -0.272476 
-0.101582 -0.258471 
-0.081923 -0.264731 
-0.076095 -0.246230 
0.011944 -0.205906 
0.007045 -0.215092 
0.011468 -0.219034 
-0.007018 -0.204486 
0.000985 -0.210268 
0.003536 -0.193663 
-0.007158 -0.243781 
-0.002763 -0.227256 
-0.018289 -0.241324 
-0.074667 -0.161939 
-0.049802 -0.177733 
-0.036577 -0.150295 
-0.069241 -0.225872 
-0.060687 -0.203141 
-0.092041 -0.216155 
-0.010898 -0.176416 
-0.031285 -0.188978 
-0.017481 -0.197549 
-0.032195 -0.237796 
-0.024908 -0.218335 
-0.049150 -0.232837 
0.001628 -0.192794 
0.001254 -0.193199 
0.002149 -0.188509 
0.001931 -0.191206 
0.005620 -0.194984 
0.003812 -0.192631 
0.006334 -0.192611 
0.001828 -0.168160 
0.002121 -0.174517 
0.006485 -0.179236 
0.004279 -0.176276 
0.005723 -0.172880 
0.002263 -0.180085 
0.002266 -0.184777 
0.014569 -0.204467 
0.012913 -0.196100 
0.013443 -0.199798 
0.008912 -0.192976 
0.011230 -0.194012 
0.010959 -0.197874 
0.009922 -0.183108 
0.010904 -0.189089 
0.008718 -0.183480 
0.004520 -0.186427 
0.006812 -0.184680 
0.006747 -0.189157 
-0.014199 -0.142948 
-0.000596 -0.168950 
-0.006741 -0.157229 
-0.006187 -0.144293 
-0.001488 -0.148238 
0.011410 -0.194024 
0.008229 -0.176058 
0.010040 -0.184023 
0.008420 -0.187062 
0.004434 -0.178776 
0.002851 -0.162776 
0.001398 -0.152828 
0.002780 -0.157685 
0.004494 -0.165674 
0.006313 -0.170017 
0.003777 -0.167104 
0.005780 -0.167913 
0.002542 -0.158645 
-0.098585 -0.316641 
-0.074250 -0.302520 
-0.040048 -0.303908 
-0.056431 -0.304192 
-0.062409 -0.320554 
-0.050799 -0.288415 
-0.029530 -0.274023 
0.002194 -0.286349 
-0.004509 -0.292625 
-0.008534 -0.301625 
0.002299 -0.271275 
-0.000948 -0.282471 
0.008057 -0.268453 
-0.030816 -0.315055 
-0.013808 -0.297861 
-0.025712 -0.301725 
0.010056 -0.232664 
0.014448 -0.222123 
-0.011783 -0.259457 
0.001490 -0.245363 
0.012354 -0.246265 
0.007917 -0.246172 
0.005277 -0.259129 
-0.021010 -0.288223 
-0.005815 -0.273250 
-0.016412 -0.274222 
-0.010855 -0.223334 
-0.005181 -0.231725 
-0.008796 -0.227726 
0.000458 -0.232936 
-0.002101 -0.233310 
-0.004758 -0.225959 
0.000565 -0.246000 
-0.000188 -0.239966 
0.003920 -0.248101 
0.005907 -0.219649 
0.005213 -0.224042 
0.001973 -0.215614 
0.010515 -0.241579 
0.008207 -0.232641 
0.011635 -0.236613 
-0.000543 -0.222464 
0.004092 -0.227938 
0.002515 -0.231019 
0.003060 -0.283870 
0.008456 -0.271861 
0.006440 -0.279343 
0.006910 -0.256148 
0.008516 -0.264089 
0.005295 -0.264817 
0.013207 -0.256123 
0.011139 -0.261027 
0.011658 -0.250996 
0.005067 -0.239412 
0.008870 -0.245425 
0.006680 -0.247747 
0.002396 -0.194315 
0.000761 -0.192317 
0.007326 -0.198239 
0.004649 -0.196215 
0.002101 -0.195023 
0.003462 -0.196246 
0.004416 -0.198922 
0.015684 -0.214011 
0.014847 -0.208079 
0.013136 -0.212201 
0.014343 -0.210656 
0.015474 -0.218252 
0.012803 -0.203802 
0.010154 -0.200660 
0.003040 -0.207684 
0.006164 -0.210477 
0.006210 -0.215044 
0.005217 -0.202262 
0.005816 -0.206159 
0.002968 -0.200416 
0.012043 -0.218647 
0.008954 -0.212138 
0.011309 -0.212702 
0.008883 -0.202344 
0.010233 -0.207208 
0.007213 -0.202891 
0.009276 -0.272896 
0.014743 -0.249808 
0.013283 -0.260781 
0.011646 -0.264918 
0.013568 -0.255736 
0.009416 -0.222701 
0.014644 -0.226007 
0.012371 -0.224810 
0.012246 -0.230906 
0.014207 -0.239885 
0.016133 -0.224369 
0.015008 -0.245671 
0.015891 -0.235077 
0.016647 -0.225770 
0.016111 -0.226321 
0.015747 -0.242479 
0.016206 -0.234521 
0.016075 -0.244406 
-0.020507 -0.209834 
-0.016722 -0.214792 
-0.029220 -0.196902 
-0.022903 -0.206017 
-0.033220 -0.191672 
-0.013321 -0.217549 
-0.010328 -0.218467 
-0.052475 -0.155403 
-0.047300 -0.166695 
-0.056881 -0.151485 
-0.027928 -0.192293 
-0.037508 -0.180439 
-0.033586 -0.182076 
-0.045792 -0.172409 
-0.041584 -0.177321 
-0.035502 -0.187363 
-0.003758 -0.213660 
-0.002315 -0.210572 
-0.007745 -0.217905 
-0.005561 -0.216199 
-0.016072 -0.201070 
-0.010783 -0.209088 
-0.018919 -0.201921 
-0.025497 -0.200142 
-0.022061 -0.201710 
-0.016144 -0.210409 
-0.028817 -0.022255 
-0.047013 -0.046625 
-0.041940 -0.033455 
-0.049084 -0.080479 
-0.049641 -0.063131 
-0.043245 -0.060582 
-0.063147 -0.072357 
-0.056503 -0.067067 
-0.061342 -0.085178 
-0.029462 -0.142697 
-0.035688 -0.129064 
-0.031134 -0.127865 
-0.045407 -0.130984 
-0.040464 -0.130137 
-0.038208 -0.145004 
-0.040683 -0.096453 
-0.041406 -0.113946 
-0.046085 -0.097617 
-0.065027 -0.128342 
-0.060366 -0.130456 
-0.056909 -0.143357 
-0.063064 -0.101562 
-0.062550 -0.116578 
-0.068241 -0.102358 
-0.047532 -0.145768 
-0.055466 -0.131378 
-0.050441 -0.131464 
-0.051730 -0.098916 
-0.051986 -0.115883 
-0.057465 -0.100293 
0.000423 -0.190939 
0.000198 -0.190059 
0.000601 -0.194644 
0.000571 -0.192492 
-0.002527 -0.183299 
-0.000986 -0.188600 
-0.003519 -0.185019 
-0.001202 -0.207186 
-0.000389 -0.203726 
-0.007486 -0.192121 
-0.003931 -0.198553 
-0.009237 -0.194749 
0.000158 -0.200380 
0.000476 -0.197309 
-0.019665 -0.153058 
-0.017161 -0.164873 
-0.023165 -0.154667 
-0.007139 -0.179973 
-0.011742 -0.173294 
-0.009466 -0.171404 
-0.016898 -0.177347 
-0.014214 -0.175313 
-0.010950 -0.184387 
-0.002090 -0.192894 
-0.005967 -0.189534 
-0.004654 -0.187128 
-0.048028 -0.157770 
-0.039206 -0.159093 
-0.043587 -0.158905 
-0.038867 -0.170976 
-0.029837 -0.182522 
-0.026886 -0.156205 
-0.019804 -0.179258 
-0.023607 -0.168384 
-0.030817 -0.157555 
-0.034935 -0.158574 
-0.006760 -0.204468 
-0.021288 -0.192079 
-0.013516 -0.199431 
-0.011242 -0.197250 
-0.015634 -0.188864 
-0.030890 -0.170900 
-0.022933 -0.180887 
-0.026281 -0.182046 
0.000000 0.000000 
-0.022850 -0.019625 
-0.016132 -0.018658 
-0.019024 -0.018879 
0.000000 0.000000 
-0.033361 -0.039666 
-0.037613 -0.059108 
-0.008458 -0.018682 
-0.010010 -0.018655 
0.000000 0.000000 
-0.024249 -0.057205 
-0.018110 -0.037882 
-0.020651 -0.056844 
0.000000 0.000000 
-0.011762 -0.018626 
-0.013771 -0.018612 
-0.031682 -0.111753 
-0.026831 -0.126616 
-0.037895 -0.077782 
-0.035603 -0.095413 
-0.026474 -0.093590 
-0.030868 -0.094466 
-0.028458 -0.076189 
-0.024642 -0.038282 
-0.028225 -0.057641 
-0.032648 -0.058225 
-0.000000 -0.018579 
-0.000845 -0.018643 
0.000000 0.000000 
-0.002157 -0.055213 
-0.001576 -0.037104 
-0.000000 -0.055067 
0.000000 0.000000 
-0.001724 -0.018674 
-0.002644 -0.018693 
-0.002915 -0.120358 
-0.002945 -0.105522 
-0.000000 -0.120156 
-0.007911 -0.073273 
-0.005717 -0.089892 
-0.008691 -0.090279 
-0.000000 -0.089428 
-0.002836 -0.089609 
-0.002576 -0.072779 
0.000000 0.000000 
-0.005815 -0.018711 
-0.007069 -0.018701 
-0.003622 -0.018705 
-0.004673 -0.018712 
0.000000 0.000000 
-0.011615 -0.055973 
-0.008570 -0.037454 
-0.009049 -0.055739 
-0.004358 -0.055364 
-0.006643 -0.055537 
-0.004880 -0.037274 
-0.000308 -0.186376 
-0.000000 -0.189864 
-0.004013 -0.176557 
-0.001639 -0.182035 
-0.000000 -0.181016 
-0.000811 -0.181268 
-0.001299 -0.174711 
-0.021589 -0.139878 
-0.016382 -0.151477 
-0.010412 -0.148704 
-0.013305 -0.150004 
-0.014634 -0.137215 
-0.011551 -0.161411 
-0.007362 -0.169735 
-0.000000 -0.146073 
-0.002508 -0.146293 
-0.002763 -0.133983 
-0.001757 -0.166692 
-0.002166 -0.157212 
-0.000000 -0.166454 
-0.008450 -0.135157 
-0.005051 -0.146816 
-0.007672 -0.147629 
-0.005399 -0.168361 
-0.006637 -0.158711 
-0.003544 -0.167335 
-0.012887 -0.037654 
-0.013783 -0.074019 
-0.014377 -0.056235 
-0.017375 -0.056525 
-0.020526 -0.074994 
-0.005871 -0.120765 
-0.012092 -0.122156 
-0.008915 -0.121369 
-0.009012 -0.106365 
-0.011805 -0.090769 
-0.022787 -0.125375 
-0.022401 -0.092776 
-0.023108 -0.109631 
-0.018997 -0.124191 
-0.015441 -0.123107 
-0.015101 -0.091355 
-0.015627 -0.107776 
-0.018621 -0.092028 
0.000000 0.000000 
0.000845 -0.018643 
0.002644 -0.018693 
0.001724 -0.018674 
0.000000 0.000000 
0.001576 -0.037104 
0.002157 -0.055213 
0.007069 -0.018701 
0.005815 -0.018711 
0.000000 0.000000 
0.009049 -0.055739 
0.008570 -0.037454 
0.011615 -0.055973 
0.000000 0.000000 
0.004673 -0.018712 
0.003622 -0.018705 
0.002945 -0.105522 
0.002915 -0.120358 
0.002576 -0.072779 
0.002836 -0.089609 
0.008691 -0.090279 
0.005717 -0.089892 
0.007911 -0.073273 
0.004880 -0.037274 
0.006643 -0.055537 
0.004358 -0.055364 
0.028817 -0.022255 
0.022850 -0.019625 
0.000000 0.000000 
0.037613 -0.059108 
0.033361 -0.039666 
0.043245 -0.060582 
0.000000 0.000000 
0.019024 -0.018879 
0.016132 -0.018658 
0.026831 -0.126616 
0.031682 -0.111753 
0.031134 -0.127865 
0.028458 -0.076189 
0.030868 -0.094466 
0.026474 -0.093590 
0.040683 -0.096453 
0.035603 -0.095413 
0.037895 -0.077782 
0.000000 0.000000 
0.010010 -0.018655 
0.008458 -0.018682 
0.013771 -0.018612 
0.011762 -0.018626 
0.000000 0.000000 
0.020651 -0.056844 
0.018110 -0.037882 
0.024249 -0.057205 
0.032648 -0.058225 
0.028225 -0.057641 
0.024642 -0.038282 
0.000308 -0.186376 
-0.000198 -0.190059 
0.001299 -0.174711 
0.000811 -0.181268 
0.002527 -0.183299 
0.001639 -0.182035 
0.004013 -0.176557 
0.002763 -0.133983 
0.002508 -0.146293 
0.007672 -0.147629 
0.005051 -0.146816 
0.008450 -0.135157 
0.002166 -0.157212 
0.001757 -0.166692 
0.019665 -0.153058 
0.016382 -0.151477 
0.021589 -0.139878 
0.007362 -0.169735 
0.011551 -0.161411 
0.009466 -0.171404 
0.014634 -0.137215 
0.013305 -0.150004 
0.010412 -0.148704 
0.003544 -0.167335 
0.006637 -0.158711 
0.005399 -0.168361 
0.012887 -0.037654 
0.020526 -0.074994 
0.017375 -0.056525 
0.014377 -0.056235 
0.013783 -0.074019 
0.022787 -0.125375 
0.015441 -0.123107 
0.018997 -0.124191 
0.023108 -0.109631 
0.022401 -0.092776 
0.005871 -0.120765 
0.011805 -0.090769 
0.009012 -0.106365 
0.008915 -0.121369 
0.012092 -0.122156 
0.018621 -0.092028 
0.015627 -0.107776 
0.015101 -0.091355 
0.041940 -0.033455 
0.047013 -0.046625 
0.061342 -0.085178 
0.056503 -0.067067 
0.063147 -0.072357 
0.049641 -0.063131 
0.049084 -0.080479 
0.056909 -0.143357 
0.060366 -0.130456 
0.065027 -0.128342 
0.050441 -0.131464 
0.055466 -0.131378 
0.047532 -0.145768 
0.068241 -0.102358 
0.062550 -0.116578 
0.063064 -0.101562 
0.035688 -0.129064 
0.029462 -0.142697 
0.046085 -0.097617 
0.041406 -0.113946 
0.038208 -0.145004 
0.040464 -0.130137 
0.045407 -0.130984 
0.057465 -0.100293 
0.051986 -0.115883 
0.051730 -0.098916 
0.010855 -0.223334 
0.016722 -0.214792 
0.020507 -0.209834 
0.010328 -0.218467 
0.013321 -0.217549 
0.004758 -0.225959 
0.033220 -0.191672 
0.022903 -0.206017 
0.029220 -0.196902 
0.002315 -0.210572 
0.003758 -0.213660 
-0.001973 -0.215614 
0.018919 -0.201921 
0.010783 -0.209088 
0.016072 -0.201070 
0.000543 -0.222464 
0.005561 -0.216199 
0.007745 -0.217905 
0.056881 -0.151485 
0.047300 -0.166695 
0.052475 -0.155403 
0.035502 -0.187363 
0.041584 -0.177321 
0.045792 -0.172409 
0.033586 -0.182076 
0.037508 -0.180439 
0.027928 -0.192293 
0.016144 -0.210409 
0.022061 -0.201710 
0.025497 -0.200142 
-0.000423 -0.190939 
-0.000761 -0.192317 
0.003519 -0.185019 
0.000986 -0.188600 
-0.002101 -0.195023 
-0.000571 -0.192492 
-0.000601 -0.194644 
0.023165 -0.154667 
0.017161 -0.164873 
0.010950 -0.184387 
0.014214 -0.175313 
0.016898 -0.177347 
0.011742 -0.173294 
0.007139 -0.179973 
-0.003040 -0.207684 
0.000389 -0.203726 
0.001202 -0.207186 
-0.000476 -0.197309 
-0.000158 -0.200380 
-0.002968 -0.200416 
0.009237 -0.194749 
0.003931 -0.198553 