# vtk DataFile Version 2.0
Unstructured Grid Example
ASCII
DATASET UNSTRUCTURED_GRID

POINTS 16641 float
0.122897 -0.305114 0.000000 
0.877103 -0.305114 0.000000 
1.000000 1.000000 0.000000 
0.000000 1.000000 0.000000 
0.500000 -0.100000 0.000000 
0.986949 0.285648 0.000000 
0.500000 1.000000 0.000000 
0.013051 0.285648 0.000000 
0.500000 0.310770 0.000000 
0.298485 -0.101447 0.000000 
0.500000 0.084362 0.000000 
0.235621 0.046109 0.000000 
0.701515 -0.101447 0.000000 
0.764379 0.046109 0.000000 
1.000221 -0.038396 0.000000 
0.752937 0.291755 0.000000 
0.939368 0.612064 0.000000 
0.724887 0.610213 0.000000 
0.750000 1.000000 0.000000 
0.500000 0.617401 0.000000 
0.250000 1.000000 0.000000 
0.275113 0.610213 0.000000 
0.060632 0.612064 0.000000 
0.247063 0.291755 0.000000 
-0.000221 -0.038396 0.000000 
0.226984 -0.227298 0.000000 
0.251469 -0.050600 0.000000 
0.148114 -0.124926 0.000000 
0.500000 -0.010707 0.000000 
0.377241 -0.015756 0.000000 
0.386324 -0.100000 0.000000 
0.367054 0.182146 0.000000 
0.367920 0.076139 0.000000 
0.500000 0.189614 0.000000 
0.613676 -0.100000 0.000000 
0.622759 -0.015756 0.000000 
0.851886 -0.124926 0.000000 
0.748531 -0.050600 0.000000 
0.773016 -0.227298 0.000000 
0.632080 0.076139 0.000000 
0.632946 0.182146 0.000000 
0.951690 -0.190396 0.000000 
0.887219 -0.000923 0.000000 
0.873512 0.279138 0.000000 
0.889489 0.134302 0.000000 
1.005502 0.125122 0.000000 
0.764253 0.160737 0.000000 
0.627541 0.305417 0.000000 
0.961348 0.446137 0.000000 
0.851241 0.435145 0.000000 
0.831781 0.796623 0.000000 
0.832719 0.606103 0.000000 
0.933357 0.788002 0.000000 
0.737244 0.440763 0.000000 
0.619685 0.449093 0.000000 
0.875000 1.000000 0.000000 
0.725738 0.800052 0.000000 
0.500000 0.802765 0.000000 
0.614289 0.802007 0.000000 
0.625000 1.000000 0.000000 
0.613675 0.615290 0.000000 
0.500000 0.452627 0.000000 
0.375000 1.000000 0.000000 
0.385711 0.802007 0.000000 
0.168219 0.796623 0.000000 
0.274262 0.800052 0.000000 
0.125000 1.000000 0.000000 
0.386325 0.615290 0.000000 
0.380315 0.449093 0.000000 
0.066643 0.788002 0.000000 
0.167281 0.606103 0.000000 
0.126488 0.279138 0.000000 
0.148759 0.435145 0.000000 
0.038652 0.446137 0.000000 
0.262756 0.440763 0.000000 
0.372459 0.305417 0.000000 
-0.005502 0.125122 0.000000 
0.110511 0.134302 0.000000 
0.112781 -0.000923 0.000000 
0.048310 -0.190396 0.000000 
0.235747 0.160737 0.000000 
0.174056 -0.268285 0.000000 
0.182822 -0.180288 0.000000 
0.134504 -0.216445 0.000000 
0.266410 -0.089061 0.000000 
0.226183 -0.137811 0.000000 
0.275912 -0.174788 0.000000 
0.181220 -0.034058 0.000000 
0.197494 -0.088040 0.000000 
0.241382 -0.004821 0.000000 
0.500000 -0.056039 0.000000 
0.441725 -0.056494 0.000000 
0.442871 -0.100000 0.000000 
0.436183 0.034309 0.000000 
0.439011 -0.011764 0.000000 
0.500000 0.035927 0.000000 
0.331295 -0.100000 0.000000 
0.383396 -0.058298 0.000000 
0.324332 -0.064017 0.000000 
0.434504 0.246253 0.000000 
0.433492 0.187746 0.000000 
0.500000 0.247891 0.000000 
0.301313 0.064302 0.000000 
0.366492 0.127171 0.000000 
0.299757 0.116465 0.000000 
0.500000 0.135338 0.000000 
0.433318 0.133341 0.000000 
0.434190 0.082423 0.000000 
0.313909 -0.026174 0.000000 
0.371577 0.028685 0.000000 
0.305998 0.016615 0.000000 
0.557129 -0.100000 0.000000 
0.558275 -0.056494 0.000000 
0.675668 -0.064017 0.000000 
0.616604 -0.058298 0.000000 
0.668705 -0.100000 0.000000 
0.560989 -0.011764 0.000000 
0.563817 0.034309 0.000000 
0.865496 -0.216445 0.000000 
0.817178 -0.180288 0.000000 
0.825944 -0.268285 0.000000 
0.758618 -0.004821 0.000000 
0.802506 -0.088040 0.000000 
0.818780 -0.034058 0.000000 
0.724088 -0.174788 0.000000 
0.773817 -0.137811 0.000000 
0.733590 -0.089061 0.000000 
0.566508 0.187746 0.000000 
0.565496 0.246253 0.000000 
0.565810 0.082423 0.000000 
0.566682 0.133341 0.000000 
0.700243 0.116465 0.000000 
0.633508 0.127171 0.000000 
0.698687 0.064302 0.000000 
0.686091 -0.026174 0.000000 
0.694002 0.016615 0.000000 
0.628423 0.028685 0.000000 
0.914580 -0.252136 0.000000 
0.901903 -0.157828 0.000000 
0.944745 -0.022300 0.000000 
0.928904 -0.092526 0.000000 
0.981748 -0.117924 0.000000 
0.874687 -0.064582 0.000000 
0.827374 0.023086 0.000000 
0.931211 0.278533 0.000000 
0.941617 0.201551 0.000000 
0.997956 0.205724 0.000000 
0.822174 0.213976 0.000000 
0.882958 0.205486 0.000000 
0.813998 0.284396 0.000000 
1.007242 0.043513 0.000000 
0.948747 0.125682 0.000000 
0.950586 0.050883 0.000000 
0.630801 0.241429 0.000000 
0.563893 0.309430 0.000000 
0.766089 0.101389 0.000000 
0.699044 0.172936 0.000000 
0.690666 0.299231 0.000000 
0.695637 0.233782 0.000000 
0.759589 0.224140 0.000000 
0.891509 0.065468 0.000000 
0.827904 0.147046 0.000000 
0.830024 0.083440 0.000000 
0.974319 0.365524 0.000000 
0.919157 0.356990 0.000000 
0.895234 0.520518 0.000000 
0.906757 0.437448 0.000000 
0.949272 0.528126 0.000000 
0.862531 0.355547 0.000000 
0.804487 0.358581 0.000000 
0.897733 0.895440 0.000000 
0.882489 0.793065 0.000000 
0.944591 0.882114 0.000000 
0.779173 0.607652 0.000000 
0.828736 0.698691 0.000000 
0.776335 0.700724 0.000000 
0.933241 0.698477 0.000000 
0.880671 0.697348 0.000000 
0.885933 0.606878 0.000000 
0.623659 0.374520 0.000000 
0.561961 0.377782 0.000000 
0.745179 0.363852 0.000000 
0.684820 0.369594 0.000000 
0.673516 0.526295 0.000000 
0.678844 0.445197 0.000000 
0.730109 0.522813 0.000000 
0.840845 0.518463 0.000000 
0.785864 0.519790 0.000000 
0.794735 0.436903 0.000000 
0.937500 1.000000 0.000000 
0.846189 0.898855 0.000000 
0.734702 0.900013 0.000000 
0.791334 0.899691 0.000000 
0.812500 1.000000 0.000000 
0.779572 0.798661 0.000000 
0.722917 0.702868 0.000000 
0.500000 0.900621 0.000000 
0.559318 0.900563 0.000000 
0.562500 1.000000 0.000000 
0.556612 0.707539 0.000000 
0.557326 0.802562 0.000000 
0.500000 0.707916 0.000000 
0.687500 1.000000 0.000000 
0.618380 0.900429 0.000000 
0.676933 0.900239 0.000000 
0.559983 0.451709 0.000000 
0.500000 0.378915 0.000000 
0.669703 0.612949 0.000000 
0.616161 0.529358 0.000000 
0.500000 0.532148 0.000000 
0.558233 0.531420 0.000000 
0.557008 0.616849 0.000000 
0.670538 0.801153 0.000000 
0.612851 0.706479 0.000000 
0.668376 0.704860 0.000000 
0.437500 1.000000 0.000000 
0.440682 0.900563 0.000000 
0.323067 0.900239 0.000000 
0.381620 0.900429 0.000000 
0.312500 1.000000 0.000000 
0.442674 0.802562 0.000000 
0.443388 0.707539 0.000000 
0.102267 0.895440 0.000000 
0.153811 0.898855 0.000000 
0.062500 1.000000 0.000000 
0.277083 0.702868 0.000000 
0.220428 0.798661 0.000000 
0.223665 0.700724 0.000000 
0.187500 1.000000 0.000000 
0.208666 0.899691 0.000000 
0.265298 0.900013 0.000000 
0.440017 0.451709 0.000000 
0.438039 0.377782 0.000000 
0.442992 0.616849 0.000000 
0.441767 0.531420 0.000000 
0.326484 0.526295 0.000000 
0.383839 0.529358 0.000000 
0.330297 0.612949 0.000000 
0.329462 0.801153 0.000000 
0.331624 0.704860 0.000000 
0.387149 0.706479 0.000000 
0.055409 0.882114 0.000000 
0.117511 0.793065 0.000000 
0.114067 0.606878 0.000000 
0.119329 0.697348 0.000000 
0.066759 0.698477 0.000000 
0.171264 0.698691 0.000000 
0.220827 0.607652 0.000000 
0.068789 0.278533 0.000000 
0.080843 0.356990 0.000000 
0.025681 0.365524 0.000000 
0.195513 0.358581 0.000000 
0.137469 0.355547 0.000000 
0.186002 0.284396 0.000000 
0.050728 0.528126 0.000000 
0.093243 0.437448 0.000000 
0.104766 0.520518 0.000000 
0.376341 0.374520 0.000000 
0.436107 0.309430 0.000000 
0.269891 0.522813 0.000000 
0.321156 0.445197 0.000000 
0.309334 0.299231 0.000000 
0.315180 0.369594 0.000000 
0.254821 0.363852 0.000000 
0.159155 0.518463 0.000000 
0.205265 0.436903 0.000000 
0.214136 0.519790 0.000000 
0.002044 0.205724 0.000000 
0.058383 0.201551 0.000000 
0.049414 0.050883 0.000000 
0.051253 0.125682 0.000000 
-0.007242 0.043513 0.000000 
0.117042 0.205486 0.000000 
0.177826 0.213976 0.000000 
0.098097 -0.157828 0.000000 
0.085420 -0.252136 0.000000 
0.172626 0.023086 0.000000 
0.125313 -0.064582 0.000000 
0.018252 -0.117924 0.000000 
0.071096 -0.092526 0.000000 
0.055255 -0.022300 0.000000 
0.369199 0.241429 0.000000 
0.240411 0.224140 0.000000 
0.304363 0.233782 0.000000 
0.300956 0.172936 0.000000 
0.233911 0.101389 0.000000 
0.108491 0.065468 0.000000 
0.169976 0.083440 0.000000 
0.172096 0.147046 0.000000 
0.148174 -0.286755 0.000000 
0.154471 -0.243088 0.000000 
0.129278 -0.261018 0.000000 
0.204238 -0.205035 0.000000 
0.179648 -0.224714 0.000000 
0.200504 -0.248781 0.000000 
0.139954 -0.171128 0.000000 
0.159021 -0.198848 0.000000 
0.163955 -0.153416 0.000000 
0.277444 -0.103236 0.000000 
0.264991 -0.131534 0.000000 
0.294421 -0.141800 0.000000 
0.232687 -0.091842 0.000000 
0.245537 -0.113437 0.000000 
0.258234 -0.070993 0.000000 
0.252592 -0.202936 0.000000 
0.248166 -0.158917 0.000000 
0.227443 -0.183306 0.000000 
0.206517 0.007584 0.000000 
0.210630 -0.018849 0.000000 
0.237974 0.020067 0.000000 
0.172729 -0.107027 0.000000 
0.188222 -0.061448 0.000000 
0.161484 -0.078672 0.000000 
0.245872 -0.028439 0.000000 
0.216167 -0.044276 0.000000 
0.223347 -0.068645 0.000000 
0.205356 -0.160100 0.000000 
0.209746 -0.113687 0.000000 
0.187169 -0.134356 0.000000 
0.500000 -0.078222 0.000000 
0.471262 -0.078269 0.000000 
0.471401 -0.100000 0.000000 
0.470260 -0.033700 0.000000 
0.470861 -0.056146 0.000000 
0.500000 -0.033524 0.000000 
0.414482 -0.100000 0.000000 
0.442574 -0.078431 0.000000 
0.413984 -0.078736 0.000000 
0.467572 0.059430 0.000000 
0.468145 0.035533 0.000000 
0.500000 0.059875 0.000000 
0.408281 -0.013265 0.000000 
0.437533 0.011067 0.000000 
0.406029 0.009179 0.000000 
0.500000 0.012426 0.000000 
0.468821 0.012098 0.000000 
0.469550 -0.010960 0.000000 
0.305137 -0.100000 0.000000 
0.329164 -0.081915 0.000000 
0.300856 -0.086327 0.000000 
0.385541 -0.079260 0.000000 
0.357280 -0.080168 0.000000 
0.358526 -0.100000 0.000000 
0.349942 -0.040263 0.000000 
0.354056 -0.060283 0.000000 
0.380439 -0.037172 0.000000 
0.440471 -0.034268 0.000000 
0.410565 -0.035343 0.000000 
0.412583 -0.057157 0.000000 
[...]
POINT_DATA 16641

SCALARS u_h float 2
LOOKUP_TABLE default
0.122897 -0.305114 
-0.122897 -0.305114 
0.000000 0.000000 
0.000000 0.000000 
0.000000 -0.100000 
-0.013051 -0.214352 
0.000000 0.000000 
0.013051 -0.214352 
0.000000 -0.189230 
0.048485 -0.101447 
0.000000 -0.165638 
-0.014379 -0.203891 
-0.048485 -0.101447 
0.014379 -0.203891 
0.000221 -0.288396 
0.002937 -0.208245 
-0.060632 -0.137936 
-0.025113 -0.139787 
0.000000 0.000000 
-0.000000 -0.132599 
0.000000 0.000000 
0.025113 -0.139787 
0.060632 -0.137936 
-0.002937 -0.208245 
-0.000221 -0.288396 
0.101984 -0.227298 
0.001469 -0.175600 
0.023114 -0.249926 
0.000000 -0.135707 
0.002241 -0.140756 
0.011324 -0.100000 
-0.007946 -0.192854 
-0.007080 -0.173861 
0.000000 -0.185386 
-0.011324 -0.100000 
-0.002241 -0.140756 
-0.023114 -0.249926 
-0.001469 -0.175600 
-0.101984 -0.227298 
0.007080 -0.173861 
0.007946 -0.192854 
-0.048310 -0.315396 
0.012219 -0.250923 
-0.001488 -0.220862 
0.014489 -0.240698 
0.005502 -0.249878 
0.014253 -0.214263 
0.002541 -0.194583 
-0.038652 -0.178863 
-0.023759 -0.189855 
-0.043219 -0.078377 
-0.042281 -0.143897 
-0.066643 -0.086998 
-0.012756 -0.184237 
-0.005315 -0.175907 
0.000000 0.000000 
-0.024262 -0.074948 
-0.000000 -0.072235 
-0.010711 -0.072993 
0.000000 0.000000 
-0.011325 -0.134710 
0.000000 -0.172373 
0.000000 0.000000 
0.010711 -0.072993 
0.043219 -0.078377 
0.024262 -0.074948 
0.000000 0.000000 
0.011325 -0.134710 
0.005315 -0.175907 
0.066643 -0.086998 
0.042281 -0.143897 
0.001488 -0.220862 
0.023759 -0.189855 
0.038652 -0.178863 
0.012756 -0.184237 
-0.002541 -0.194583 
-0.005502 -0.249878 
-0.014489 -0.240698 
-0.012219 -0.250923 
0.048310 -0.315396 
-0.014253 -0.214263 
0.111556 -0.268285 
0.057822 -0.242788 
0.072004 -0.278945 
0.016410 -0.151561 
0.038683 -0.200311 
0.088412 -0.174788 
-0.006280 -0.221558 
0.009994 -0.213040 
-0.008618 -0.192321 
0.000000 -0.118539 
0.004225 -0.118994 
0.005371 -0.100000 
-0.001317 -0.153191 
0.001511 -0.136764 
0.000000 -0.151573 
0.018795 -0.100000 
0.008396 -0.120798 
0.011832 -0.126517 
-0.002996 -0.191247 
-0.004008 -0.187254 
0.000000 -0.189609 
-0.011187 -0.185698 
-0.008508 -0.185329 
-0.012743 -0.196035 
0.000000 -0.177162 
-0.004182 -0.179159 
-0.003310 -0.167577 
0.001409 -0.151174 
-0.003423 -0.158815 
-0.006502 -0.170885 
-0.005371 -0.100000 
-0.004225 -0.118994 
-0.011832 -0.126517 
-0.008396 -0.120798 
-0.018795 -0.100000 
-0.001511 -0.136764 
0.001317 -0.153191 
-0.072004 -0.278945 
-0.057822 -0.242788 
-0.111556 -0.268285 
0.008618 -0.192321 
-0.009994 -0.213040 
0.006280 -0.221558 
-0.088412 -0.174788 
-0.038683 -0.200311 
-0.016410 -0.151561 
0.004008 -0.187254 
0.002996 -0.191247 
0.003310 -0.167577 
0.004182 -0.179159 
0.012743 -0.196035 
0.008508 -0.185329 
0.011187 -0.185698 
-0.001409 -0.151174 
0.006502 -0.170885 
0.003423 -0.158815 
-0.085420 -0.314636 
-0.035597 -0.282828 
0.007245 -0.272300 
-0.008596 -0.280026 
-0.018252 -0.305424 
-0.000313 -0.252082 
0.014874 -0.226914 
-0.006289 -0.221467 
0.004117 -0.235949 
-0.002044 -0.231776 
0.009674 -0.223524 
0.007958 -0.232014 
0.001498 -0.215604 
0.007242 -0.268987 
0.011247 -0.249318 
0.013086 -0.261617 
0.005801 -0.196071 
0.001393 -0.190570 
0.016089 -0.211111 
0.011544 -0.202064 
0.003166 -0.200769 
0.008137 -0.203718 
0.009589 -0.213360 
0.016509 -0.247032 
0.015404 -0.227954 
0.017524 -0.229060 
-0.025681 -0.196976 
-0.018343 -0.205510 
-0.042266 -0.166982 
-0.030743 -0.187552 
-0.050728 -0.159374 
-0.012469 -0.206953 
-0.008013 -0.203919 
-0.039767 -0.042060 
-0.055011 -0.081935 
-0.055409 -0.055386 
-0.033327 -0.142348 
-0.046264 -0.113809 
-0.036165 -0.111776 
-0.066759 -0.114023 
-0.056829 -0.115152 
-0.051567 -0.143122 
-0.001341 -0.187980 
-0.000539 -0.184718 
-0.004821 -0.198648 
-0.002680 -0.192906 
-0.013984 -0.161205 
-0.008656 -0.179803 
-0.019891 -0.164687 
-0.034155 -0.169037 
-0.026636 -0.167710 
-0.017765 -0.188097 
0.000000 0.000000 
-0.028811 -0.038645 
-0.015298 -0.037487 
-0.021166 -0.037809 
0.000000 0.000000 
-0.032928 -0.076339 
-0.027083 -0.109632 
-0.000000 -0.036879 
-0.003182 -0.036937 
0.000000 0.000000 
-0.005888 -0.104961 
-0.005174 -0.072438 
-0.000000 -0.104584 
0.000000 0.000000 
-0.006620 -0.037071 
-0.010567 -0.037261 
-0.002517 -0.173291 
0.000000 -0.183585 
-0.017797 -0.137051 
-0.008839 -0.158142 
0.000000 -0.155352 
-0.004267 -0.156080 
-0.005492 -0.133151 
-0.016962 -0.073847 
-0.012149 -0.106021 
-0.019124 -0.107640 
0.000000 0.000000 
0.003182 -0.036937 
0.010567 -0.037261 
0.006620 -0.037071 
0.000000 0.000000 
0.005174 -0.072438 
0.005888 -0.104961 
0.039767 -0.042060 
0.028811 -0.038645 
0.000000 0.000000 
0.027083 -0.109632 
0.032928 -0.076339 
0.036165 -0.111776 
0.000000 0.000000 
0.021166 -0.037809 
0.015298 -0.037487 
0.002517 -0.173291 
0.000539 -0.184718 
0.005492 -0.133151 
0.004267 -0.156080 
0.013984 -0.161205 
0.008839 -0.158142 
0.017797 -0.137051 
0.016962 -0.073847 
0.019124 -0.107640 
0.012149 -0.106021 
0.055409 -0.055386 
0.055011 -0.081935 
0.051567 -0.143122 
0.056829 -0.115152 
0.066759 -0.114023 
0.046264 -0.113809 
0.033327 -0.142348 
0.006289 -0.221467 
0.018343 -0.205510 
0.025681 -0.196976 
0.008013 -0.203919 
0.012469 -0.206953 
-0.001498 -0.215604 
0.050728 -0.159374 
0.030743 -0.187552 
0.042266 -0.166982 
0.001341 -0.187980 
-0.001393 -0.190570 
0.019891 -0.164687 
0.008656 -0.179803 
-0.003166 -0.200769 
0.002680 -0.192906 
0.004821 -0.198648 
0.034155 -0.169037 
0.017765 -0.188097 
0.026636 -0.167710 
0.002044 -0.231776 
-0.004117 -0.235949 
-0.013086 -0.261617 
-0.011247 -0.249318 
-0.007242 -0.268987 
-0.007958 -0.232014 
-0.009674 -0.223524 
0.035597 -0.282828 
0.085420 -0.314636 
-0.014874 -0.226914 
0.000313 -0.252082 
0.018252 -0.305424 
0.008596 -0.280026 
-0.007245 -0.272300 
-0.005801 -0.196071 
-0.009589 -0.213360 
-0.008137 -0.203718 
-0.011544 -0.202064 
-0.016089 -0.211111 
-0.016509 -0.247032 
-0.017524 -0.229060 
-0.015404 -0.227954 
0.116924 -0.286755 
0.091971 -0.274338 
0.098028 -0.292268 
0.079238 -0.236285 
0.085898 -0.255964 
0.106754 -0.248781 
0.046204 -0.264878 
0.065271 -0.261348 
0.038955 -0.247166 
0.027444 -0.134486 
0.046241 -0.162784 
0.075671 -0.141800 
0.013937 -0.185592 
0.026787 -0.175937 
0.008234 -0.164743 
0.096342 -0.202936 
0.060666 -0.190167 
0.071193 -0.214556 
-0.012233 -0.211166 
-0.008120 -0.206349 
-0.012026 -0.198683 
0.016479 -0.232027 
0.000722 -0.217698 
0.005234 -0.234922 
-0.004128 -0.184689 
-0.002583 -0.200526 
0.004597 -0.193645 
0.049106 -0.222600 
0.022246 -0.207437 
0.030919 -0.228106 
0.000000 -0.109472 
0.002512 -0.109519 
0.002651 -0.100000 
0.001510 -0.127450 
0.002111 -0.118646 
0.000000 -0.127274 
0.008232 -0.100000 
0.005074 -0.109681 
0.007734 -0.109986 
-0.001178 -0.159320 
-0.000605 -0.151967 
0.000000 -0.158875 
0.002031 -0.138265 
0.000033 -0.145183 
-0.000221 -0.147071 
0.000000 -0.143824 
0.000071 -0.144152 
0.000800 -0.135960 
0.023887 -0.100000 
0.016664 -0.113165 
0.019606 -0.117577 
0.010541 -0.110510 
0.013530 -0.111418 
0.014776 -0.100000 
0.006192 -0.134013 
0.010306 -0.122783 
0.005439 -0.130922 
0.002971 -0.128018 
0.004315 -0.129093 
0.006333 -0.119657 
-0.001141 -0.190398 
-0.001509 -0.190020 
0.000000 -0.190023 
-0.005996 -0.189588 
-0.003592 -0.189800 
-0.005347 -0.191988 
0.000000 -0.188038 
-0.001803 -0.188481 
-0.002006 -0.185854 
-0.013018 -0.194022 
-0.012338 -0.191409 
-0.014227 -0.199099 
-0.008063 -0.180066 
-0.010232 -0.185066 
-0.009141 -0.179004 
-0.010516 -0.194098 
-0.010674 -0.190102 
-0.008452 -0.189606 
0.000000 -0.171766 
-0.001920 -0.172262 
-0.001620 -0.166117 
-0.002102 -0.182220 
-0.002078 -0.177660 
0.000000 -0.181732 
-0.005124 -0.170110 
-0.003887 -0.173763 
-0.005934 -0.176333 
-0.006337 -0.186137 
-0.006329 -0.181697 
-0.004215 -0.183682 
0.012884 -0.134461 
0.002030 -0.144766 
0.006436 -0.139390 
0.006490 -0.148938 
0.000822 -0.161170 
-0.002448 -0.160688 
-0.005533 -0.166758 
-0.003885 -0.163101 
-0.002233 -0.155389 
-0.000792 -0.150108 
-0.010923 -0.187802 
-0.003997 -0.171543 
-0.007918 -0.180353 
-0.009250 -0.178873 
-0.007366 -0.171923 
-0.001732 -0.154759 
-0.004890 -0.163833 
-0.002938 -0.161672 
-0.002651 -0.100000 
-0.002512 -0.109519 
-0.007734 -0.109986 
-0.005074 -0.109681 
-0.008232 -0.100000 
-0.002111 -0.118646 
-0.001510 -0.127450 
-0.019606 -0.117577 
-0.016664 -0.113165 
-0.023887 -0.100000 
-0.005439 -0.130922 
-0.010306 -0.122783 
-0.006192 -0.134013 
-0.014776 -0.100000 
-0.013530 -0.111418 
-0.010541 -0.110510 
0.000605 -0.151967 
0.001178 -0.159320 
-0.000800 -0.135960 
-0.000071 -0.144152 
0.000221 -0.147071 
-0.000033 -0.145183 
-0.002031 -0.138265 
-0.006333 -0.119657 
-0.004315 -0.129093 
-0.002971 -0.128018 
-0.098028 -0.292268 
-0.091971 -0.274338 
-0.116924 -0.286755 
-0.038955 -0.247166 
-0.065271 -0.261348 
-0.046204 -0.264878 
-0.106754 -0.248781 
-0.085898 -0.255964 
-0.079238 -0.236285 
0.012026 -0.198683 
0.008120 -0.206349 
0.012233 -0.211166 
-0.004597 -0.193645 
0.002583 -0.200526 
0.004128 -0.184689 
-0.005234 -0.234922 
-0.000722 -0.217698 
-0.016479 -0.232027 
-0.075671 -0.141800 
-0.046241 -0.162784 
-0.027444 -0.134486 
-0.071193 -0.214556 
-0.060666 -0.190167 
-0.096342 -0.202936 
-0.008234 -0.164743 
-0.026787 -0.175937 
-0.013937 -0.185592 
-0.030919 -0.228106 
-0.022246 -0.207437 
-0.049106 -0.222600 
0.001509 -0.190020 
0.001141 -0.190398 
0.002006 -0.185854 
0.001803 -0.188481 
0.005347 -0.191988 
0.003592 -0.189800 
0.005996 -0.189588 
0.001620 -0.166117 
0.001920 -0.172262 
0.005934 -0.176333 
0.003887 -0.173763 
0.005124 -0.170110 
0.002078 -0.177660 
0.002102 -0.182220 
0.014227 -0.199099 
0.012338 -0.191409 
0.013018 -0.194022 
0.008452 -0.189606 
0.010674 -0.190102 
0.010516 -0.194098 
0.009141 -0.179004 
0.010232 -0.185066 
0.008063 -0.180066 
0.004215 -0.183682 
0.006329 -0.181697 
0.006337 -0.186137 
-0.012884 -0.134461 
-0.000822 -0.161170 
-0.006490 -0.148938 
-0.006436 -0.139390 
-0.002030 -0.144766 
0.010923 -0.187802 
0.007366 -0.171923 
0.009250 -0.178873 
0.007918 -0.180353 
0.003997 -0.171543 
0.002448 -0.160688 
0.000792 -0.150108 
0.002233 -0.155389 
0.003885 -0.163101 
0.005533 -0.166758 
0.002938 -0.161672 
0.004890 -0.163833 
0.001732 -0.154759 
-0.104384 -0.310595 
-0.078559 -0.296383 
-0.041701 -0.298774 
-0.059460 -0.298633 
-0.066430 -0.316403 
-0.052901 -0.281789 
-0.029490 -0.266740 
0.004030 -0.281183 
-0.003106 -0.287617 
-0.007480 -0.297469 
0.004091 -0.264691 
0.000692 -0.276647 
0.009973 -0.262113 
-0.032002 -0.311605 
-0.013141 -0.292964 
-0.026085 -0.296807 
0.011401 -0.224633 
0.015039 -0.215012 
-0.010302 -0.251480 
0.003336 -0.237019 
0.013897 -0.239053 
0.009619 -0.238392 
0.007108 -0.251869 
-0.020719 -0.282172 
-0.004340 -0.266435 
-0.015505 -0.267182 
-0.009422 -0.219086 
-0.003737 -0.227164 
-0.007232 -0.223020 
0.001624 -0.228587 
-0.000786 -0.228865 
-0.003649 -0.221927 
0.002291 -0.240707 
0.001332 -0.235125 
0.005562 -0.243023 
0.006325 -0.215774 
0.005821 -0.220015 
0.002391 -0.212049 
0.011682 -0.236652 
0.009065 -0.228143 
0.012564 -0.231749 
0.000217 -0.218642 
0.004896 -0.223784 
0.003508 -0.226761 
0.005021 -0.278765 
0.010484 -0.266488 
0.008461 -0.274040 
0.008698 -0.250893 
0.010447 -0.258732 
0.007272 -0.259316 
0.014872 -0.250589 
0.012971 -0.255619 
0.013170 -0.245748 
0.006319 -0.234756 
0.010240 -0.240470 
0.008207 -0.242759 
0.002252 -0.191526 
0.000712 -0.189540 
0.007043 -0.195025 
0.004436 -0.193275 
0.002014 -0.192267 
0.003309 -0.193388 
0.004280 -0.195941 
0.015715 -0.208019 
0.014594 -0.203083 
0.013052 -0.207861 
0.014178 -0.206001 
0.015573 -0.213190 
0.012457 -0.199588 
0.009816 -0.197030 
0.003181 -0.204420 
0.006265 -0.206965 
0.006456 -0.211344 
0.005126 -0.199121 
0.005804 -0.202837 
0.002939 -0.197448 
0.012224 -0.214325 
0.009003 -0.208365 
0.011297 -0.208655 
0.008638 -0.198869 
0.010078 -0.203449 
0.007051 -0.199580 
0.011281 -0.267225 
0.016171 -0.244160 
0.015090 -0.254969 
0.013549 -0.258837 
0.015271 -0.249297 
0.009832 -0.218498 
0.015061 -0.221055 
0.012785 -0.220250 
0.012917 -0.226162 
0.015225 -0.234628 
0.016630 -0.217912 
0.016399 -0.239006 
0.016867 -0.228392 
0.017097 -0.219881 
0.016537 -0.220929 
0.016874 -0.236793 
0.016988 -0.228916 
0.017327 -0.238252 
-0.019237 -0.205717 
-0.015506 -0.210823 
-0.028245 -0.193442 
-0.021833 -0.202302 
-0.032204 -0.188052 
-0.012196 -0.213703 
-0.009318 -0.214732 
-0.051680 -0.153007 
-0.046468 -0.164024 
-0.056040 -0.148931 
-0.027129 -0.189349 
-0.036692 -0.177634 
-0.032830 -0.179392 
-0.044878 -0.169328 
-0.040715 -0.174381 
-0.034589 -0.184161 
-0.003160 -0.210253 
-0.001852 -0.207286 
-0.006866 -0.214276 
-0.004822 -0.212678 
-0.015391 -0.198089 
-0.010072 -0.205845 
-0.018149 -0.198834 
-0.024576 -0.196818 
-0.021210 -0.198510 
-0.015223 -0.206948 
-0.030116 -0.023833 
-0.047241 -0.046880 
-0.041646 -0.035952 
-0.048976 -0.079902 
-0.049709 -0.062886 
-0.043398 -0.060374 
-0.062926 -0.071952 
-0.056448 -0.066796 
-0.061047 -0.084447 
-0.029112 -0.141134 
-0.035353 -0.127713 
-0.030854 -0.126557 
-0.044939 -0.129508 
-0.040065 -0.128730 
-0.037731 -0.143317 
-0.040511 -0.095628 
-0.041108 -0.112828 
-0.045858 -0.096757 
-0.064292 -0.126323 
-0.059682 -0.128646 
-0.056161 -0.141246 
-0.062593 -0.100430 
-0.061954 -0.115090 
-0.067695 -0.100954 
-0.046916 -0.143909 
-0.054851 -0.129712 
-0.049900 -0.129903 
-0.051430 -0.097995 
-0.051546 -0.114634 
-0.057082 -0.099289 
0.000449 -0.188319 
0.000238 -0.187383 
0.000645 -0.191945 
0.000596 -0.189856 
-0.002393 -0.180965 
-0.000890 -0.186103 
-0.003350 -0.182646 
-0.000862 -0.204027 
-0.000155 -0.200694 
-0.007151 -0.189531 
-0.003634 -0.195745 
-0.008825 -0.192066 
0.000306 -0.197473 
0.000560 -0.194516 
-0.019372 -0.151352 
-0.016834 -0.162941 
-0.022819 -0.152910 
-0.006903 -0.177733 
-0.011453 -0.171201 
-0.009227 -0.169365 
-0.016489 -0.175122 
-0.013868 -0.173158 
-0.010600 -0.182013 
-0.001926 -0.190279 
-0.005699 -0.187029 
-0.004441 -0.184696 
-0.047292 -0.155509 
-0.038602 -0.157047 
-0.042916 -0.156760 
-0.038152 -0.168557 
-0.029148 -0.179947 
-0.026480 -0.154390 
-0.019327 -0.176957 
-0.023160 -0.166324 
-0.030347 -0.155673 
-0.034399 -0.156616 
-0.006271 -0.201441 
-0.020637 -0.189351 
-0.012927 -0.196551 
-0.010744 -0.194470 
-0.015140 -0.186324 
-0.030308 -0.168680 
-0.022385 -0.178502 
-0.025662 -0.179570 
0.000000 0.000000 
-0.023303 -0.020153 
-0.016097 -0.018654 
-0.019116 -0.019024 
0.000000 0.000000 
-0.033718 -0.039741 
-0.037741 -0.058849 
-0.008376 -0.018558 
-0.009922 -0.018540 
0.000000 0.000000 
-0.024223 -0.056794 
-0.018061 -0.037625 
-0.020601 -0.056409 
0.000000 0.000000 
-0.011673 -0.018527 
-0.013694 -0.018544 
-0.031483 -0.110699 
-0.026598 -0.125341 
-0.037860 -0.077234 
-0.035465 -0.094601 
-0.026369 -0.092774 
-0.030750 -0.093655 
-0.028406 -0.075596 
-0.024703 -0.038103 
-0.028238 -0.057266 
-0.032716 -0.057901 
-0.000000 -0.018543 
-0.000850 -0.018550 
0.000000 0.000000 
-0.002150 -0.054875 
-0.001575 -0.036899 
-0.000000 -0.054839 
0.000000 0.000000 
-0.001719 -0.018556 
-0.002626 -0.018564 
-0.002884 -0.119322 
-0.002921 -0.104683 
-0.000000 -0.119202 
-0.007875 -0.072675 
-0.005685 -0.089165 
-0.008645 -0.089507 
-0.000000 -0.088876 
-0.002819 -0.088953 
-0.002564 -0.072291 
0.000000 0.000000 
-0.005753 -0.018577 
-0.006996 -0.018571 
-0.003588 -0.018571 
-0.004624 -0.018576 
0.000000 0.000000 
-0.011560 -0.055514 
-0.008513 -0.037161 
-0.009006 -0.055287 
-0.004340 -0.054964 
-0.006612 -0.055102 
-0.004853 -0.036996 
-0.000254 -0.183870 
0.000000 -0.187074 
-0.003864 -0.174406 
-0.001539 -0.179720 
0.000000 -0.178697 
-0.000753 -0.178955 
-0.001241 -0.172605 
-0.021341 -0.138400 
-0.016138 -0.149815 
-0.010250 -0.147119 
-0.013104 -0.148381 
-0.014465 -0.135803 
-0.011325 -0.159579 
-0.007169 -0.167742 
-0.000000 -0.144673 
-0.002462 -0.144836 
-0.002725 -0.132741 
-0.001701 -0.164800 
-0.002114 -0.155537 
0.000000 -0.164592 
-0.008346 -0.133815 
-0.004964 -0.145312 
-0.007548 -0.146082 
-0.005250 -0.166406 
-0.006497 -0.156959 
-0.003439 -0.165412 
-0.012815 -0.037369 
-0.013726 -0.073387 
-0.014316 -0.055778 
-0.017315 -0.056075 
-0.020461 -0.074368 
-0.005813 -0.119667 
-0.011985 -0.120978 
-0.008832 -0.120225 
-0.008950 -0.105412 
-0.011745 -0.089971 
-0.022593 -0.124125 
-0.022307 -0.091957 
-0.022968 -0.108603 
-0.018835 -0.122964 
-0.015308 -0.121902 
-0.015030 -0.090542 
-0.015529 -0.106771 
-0.018538 -0.091209 
0.000000 0.000000 
0.000850 -0.018550 
0.002626 -0.018564 
0.001719 -0.018556 
0.000000 0.000000 
0.001575 -0.036899 
0.002150 -0.054875 
0.006996 -0.018571 
0.005753 -0.018577 
0.000000 0.000000 
0.009006 -0.055287 
0.008513 -0.037161 
0.011560 -0.055514 
0.000000 0.000000 
0.004624 -0.018576 
0.003588 -0.018571 
0.002921 -0.104683 
0.002884 -0.119322 
0.002564 -0.072291 
0.002819 -0.088953 
0.008645 -0.089507 
0.005685 -0.089165 
0.007875 -0.072675 
0.004853 -0.036996 
0.006612 -0.055102 
0.004340 -0.054964 
0.030116 -0.023833 
0.023303 -0.020153 
0.000000 0.000000 
0.037741 -0.058849 
0.033718 -0.039741 
0.043398 -0.060374 
0.000000 0.000000 
0.019116 -0.019024 
0.016097 -0.018654 
0.026598 -0.125341 
0.031483 -0.110699 
0.030854 -0.126557 
0.028406 -0.075596 
0.030750 -0.093655 
0.026369 -0.092774 
0.040511 -0.095628 
0.035465 -0.094601 
0.037860 -0.077234 
0.000000 0.000000 
0.009922 -0.018540 
0.008376 -0.018558 
0.013694 -0.018544 
0.011673 -0.018527 
0.000000 0.000000 
0.020601 -0.056409 
0.018061 -0.037625 
0.024223 -0.056794 
0.032716 -0.057901 
0.028238 -0.057266 
0.024703 -0.038103 
0.000254 -0.183870 
-0.000238 -0.187383 
0.001241 -0.172605 
0.000753 -0.178955 
0.002393 -0.180965 
0.001539 -0.179720 
0.003864 -0.174406 
0.002725 -0.132741 
0.002462 -0.144836 
0.007548 -0.146082 
0.004964 -0.145312 
0.008346 -0.133815 
0.002114 -0.155537 
0.001701 -0.164800 
0.019372 -0.151352 
0.016138 -0.149815 
0.021341 -0.138400 
0.007169 -0.167742 
0.011325 -0.159579 
0.009227 -0.169365 
0.014465 -0.135803 
0.013104 -0.148381 
0.010250 -0.147119 
0.003439 -0.165412 
0.006497 -0.156959 
0.005250 -0.166406 
0.012815 -0.037369 
0.020461 -0.074368 
0.017315 -0.056075 
0.014316 -0.055778 
0.013726 -0.073387 
0.022593 -0.124125 
0.015308 -0.121902 
0.018835 -0.122964 
0.022968 -0.108603 
0.022307 -0.091957 
0.005813 -0.119667 
0.011745 -0.089971 
0.008950 -0.105412 
0.008832 -0.120225 
0.011985 -0.120978 
0.018538 -0.091209 
0.015529 -0.106771 
0.015030 -0.090542 
0.041646 -0.035952 
0.047241 -0.046880 
0.061047 -0.084447 
0.056448 -0.066796 
0.062926 -0.071952 
0.049709 -0.062886 
0.048976 -0.079902 
0.056161 -0.141246 
0.059682 -0.128646 
0.064292 -0.126323 
0.049900 -0.129903 
0.054851 -0.129712 
0.046916 -0.143909 
0.067695 -0.100954 
0.061954 -0.115090 
0.062593 -0.100430 
0.035353 -0.127713 
0.029112 -0.141134 
0.045858 -0.096757 
0.041108 -0.112828 
0.037731 -0.143317 
0.040065 -0.128730 
0.044939 -0.129508 
0.057082 -0.099289 
0.051546 -0.114634 
0.051430 -0.097995 
0.009422 -0.219086 
0.015506 -0.210823 
0.019237 -0.205717 
0.009318 -0.214732 
0.012196 -0.213703 
0.003649 -0.221927 
0.032204 -0.188052 
0.021833 -0.202302 
0.028245 -0.193442 
0.001852 -0.207286 
0.003160 -0.210253 
-0.002391 -0.212049 
0.018149 -0.198834 
0.010072 -0.205845 
0.015391 -0.198089 
-0.000217 -0.218642 
0.004822 -0.212678 
0.006866 -0.214276 
0.056040 -0.148931 
0.046468 -0.164024 
0.051680 -0.153007 
0.034589 -0.184161 
0.040715 -0.174381 
0.044878 -0.169328 
0.032830 -0.179392 
0.036692 -0.177634 
0.027129 -0.189349 
0.015223 -0.206948 
0.021210 -0.198510 
0.024576 -0.196818 
-0.000449 -0.188319 
-0.000712 -0.189540 
0.003350 -0.182646 
0.000890 -0.186103 
-0.002014 -0.192267 
-0.000596 -0.189856 
-0.000645 -0.191945 
0.022819 -0.152910 
0.016834 -0.162941 
0.010600 -0.182013 
0.013868 -0.173158 
0.016489 -0.175122 
0.011453 -0.171201 
0.006903 -0.177733 
-0.003181 -0.204420 
0.000155 -0.200694 
0.000862 -0.204027 
-0.000560 -0.194516 
-0.000306 -0.197473 
-0.002939 -0.197448 
0.008825 -0.192066 
0.003634 -0.195745 
0.007151 -0.189531 