# vtk DataFile Version 2.0
Unstructured Grid Example
ASCII
DATASET UNSTRUCTURED_GRID

POINTS 4225 float
0.021369 -0.256647 0.000000 
0.978631 -0.256647 0.000000 
1.000000 1.000000 0.000000 
0.000000 1.000000 0.000000 
0.500000 -0.100000 0.000000 
0.943719 0.319310 0.000000 
0.500000 1.000000 0.000000 
0.056281 0.319310 0.000000 
0.500000 0.323089 0.000000 
0.271865 -0.260158 0.000000 
0.500000 0.022011 0.000000 
0.268890 0.012656 0.000000 
0.728135 -0.260158 0.000000 
0.731110 0.012656 0.000000 
0.961639 0.016287 0.000000 
0.724381 0.319235 0.000000 
0.941621 0.643205 0.000000 
0.729166 0.652150 0.000000 
0.750000 1.000000 0.000000 
0.500000 0.653454 0.000000 
0.250000 1.000000 0.000000 
0.270834 0.652150 0.000000 
0.058379 0.643205 0.000000 
0.275619 0.319235 0.000000 
0.038361 0.016287 0.000000 
0.146200 -0.261857 0.000000 
0.267309 -0.128795 0.000000 
0.148945 -0.130544 0.000000 
0.500000 -0.112414 0.000000 
0.384271 -0.120157 0.000000 
0.392802 -0.206235 0.000000 
0.385540 0.165943 0.000000 
0.383512 0.018244 0.000000 
0.500000 0.167883 0.000000 
0.607198 -0.206235 0.000000 
0.615729 -0.120157 0.000000 
0.851055 -0.130544 0.000000 
0.732691 -0.128795 0.000000 
0.853800 -0.261857 0.000000 
0.616488 0.018244 0.000000 
0.614460 0.165943 0.000000 
0.970779 -0.125232 0.000000 
0.845881 0.011018 0.000000 
0.834019 0.317015 0.000000 
0.839366 0.160517 0.000000 
0.951929 0.164950 0.000000 
0.727304 0.162232 0.000000 
0.613026 0.321957 0.000000 
0.939280 0.478657 0.000000 
0.832554 0.480114 0.000000 
0.852946 0.824153 0.000000 
0.837889 0.649518 0.000000 
0.955437 0.813747 0.000000 
0.724520 0.482928 0.000000 
0.613275 0.484876 0.000000 
0.875000 1.000000 0.000000 
0.738420 0.825124 0.000000 
0.500000 0.825267 0.000000 
0.619872 0.825239 0.000000 
0.625000 1.000000 0.000000 
0.615645 0.653147 0.000000 
0.500000 0.485582 0.000000 
0.375000 1.000000 0.000000 
0.380128 0.825239 0.000000 
0.147054 0.824153 0.000000 
0.261580 0.825124 0.000000 
0.125000 1.000000 0.000000 
0.384355 0.653147 0.000000 
0.386725 0.484876 0.000000 
0.044563 0.813747 0.000000 
0.162111 0.649518 0.000000 
0.165981 0.317015 0.000000 
0.167446 0.480114 0.000000 
0.060720 0.478657 0.000000 
0.275480 0.482928 0.000000 
0.386974 0.321957 0.000000 
0.048071 0.164950 0.000000 
0.160634 0.160517 0.000000 
0.154119 0.011018 0.000000 
0.029221 -0.125232 0.000000 
0.272696 0.162232 0.000000 
0.083655 -0.259855 0.000000 
0.147363 -0.197713 0.000000 
0.086275 -0.195765 0.000000 
0.268630 -0.195996 0.000000 
0.208222 -0.197935 0.000000 
0.208924 -0.262140 0.000000 
0.209596 -0.060825 0.000000 
0.208372 -0.130625 0.000000 
0.267575 -0.059152 0.000000 
0.500000 -0.149486 0.000000 
0.449088 -0.176233 0.000000 
0.448523 -0.158986 0.000000 
0.441186 -0.048302 0.000000 
0.442264 -0.114575 0.000000 
0.500000 -0.046538 0.000000 
0.335179 -0.253515 0.000000 
0.389137 -0.185578 0.000000 
0.328588 -0.191072 0.000000 
0.443070 0.244087 0.000000 
0.442607 0.167356 0.000000 
0.500000 0.244475 0.000000 
0.326089 0.015211 0.000000 
0.384491 0.090978 0.000000 
0.327450 0.088624 0.000000 
0.500000 0.093615 0.000000 
0.442035 0.092874 0.000000 
0.441467 0.020903 0.000000 
0.325895 -0.125048 0.000000 
0.383077 -0.052158 0.000000 
0.325324 -0.056080 0.000000 
0.551477 -0.158986 0.000000 
0.550912 -0.176233 0.000000 
0.671412 -0.191072 0.000000 
0.610863 -0.185578 0.000000 
0.664821 -0.253515 0.000000 
0.557736 -0.114575 0.000000 
0.558814 -0.048302 0.000000 
0.913725 -0.195765 0.000000 
0.852637 -0.197713 0.000000 
0.916345 -0.259855 0.000000 
0.732425 -0.059152 0.000000 
0.791628 -0.130625 0.000000 
0.790404 -0.060825 0.000000 
0.791076 -0.262140 0.000000 
0.791778 -0.197935 0.000000 
0.731370 -0.195996 0.000000 
0.557393 0.167356 0.000000 
0.556930 0.244087 0.000000 
0.558533 0.020903 0.000000 
0.557965 0.092874 0.000000 
0.672550 0.088624 0.000000 
0.615509 0.090978 0.000000 
0.673911 0.015211 0.000000 
0.674105 -0.125048 0.000000 
0.674676 -0.056080 0.000000 
0.616923 -0.052158 0.000000 
0.974844 -0.192419 0.000000 
0.910856 -0.128703 0.000000 
0.903690 0.012619 0.000000 
0.907501 -0.059122 0.000000 
0.966374 -0.055517 0.000000 
0.848772 -0.060852 0.000000 
0.788368 0.011134 0.000000 
0.888713 0.317193 0.000000 
0.891823 0.238646 0.000000 
0.947484 0.241455 0.000000 
0.781042 0.238516 0.000000 
0.836384 0.237923 0.000000 
0.779338 0.317885 0.000000 
0.956741 0.089849 0.000000 
0.895559 0.161646 0.000000 
0.899617 0.086266 0.000000 
0.613582 0.242993 0.000000 
0.556643 0.322822 0.000000 
0.729261 0.086479 0.000000 
0.671074 0.164072 0.000000 
0.668963 0.320685 0.000000 
0.669802 0.241464 0.000000 
0.725582 0.239844 0.000000 
0.842640 0.084853 0.000000 
0.783332 0.160891 0.000000 
0.785888 0.085074 0.000000 
0.940836 0.398336 0.000000 
0.886575 0.397263 0.000000 
0.886724 0.562012 0.000000 
0.885775 0.478859 0.000000 
0.939388 0.560263 0.000000 
0.832629 0.397755 0.000000 
0.778540 0.398936 0.000000 
0.920986 0.911126 0.000000 
0.906190 0.821571 0.000000 
0.970270 0.902521 0.000000 
0.784309 0.651174 0.000000 
0.844093 0.736343 0.000000 
0.789610 0.737688 0.000000 
0.946623 0.727606 0.000000 
0.896106 0.733298 0.000000 
0.889936 0.646793 0.000000 
0.612898 0.402648 0.000000 
0.556576 0.403333 0.000000 
0.723960 0.400306 0.000000 
0.668739 0.401598 0.000000 
0.670617 0.567827 0.000000 
0.669262 0.484040 0.000000 
0.726227 0.566944 0.000000 
0.834172 0.564056 0.000000 
0.780778 0.565720 0.000000 
0.778929 0.481585 0.000000 
0.937500 1.000000 0.000000 
0.863843 0.912246 0.000000 
0.744144 0.912397 0.000000 
0.804427 0.912407 0.000000 
0.812500 1.000000 0.000000 
0.796507 0.824897 0.000000 
0.733299 0.738299 0.000000 
0.500000 0.912310 0.000000 
0.561238 0.912314 0.000000 
0.562500 1.000000 0.000000 
0.558892 0.738907 0.000000 
0.560010 0.825259 0.000000 
0.500000 0.738945 0.000000 
0.687500 1.000000 0.000000 
0.622401 0.912330 0.000000 
0.683407 0.912360 0.000000 
0.556770 0.485399 0.000000 
0.500000 0.403567 0.000000 
0.672821 0.652757 0.000000 
0.614194 0.568442 0.000000 
0.500000 0.568941 0.000000 
0.557231 0.568812 0.000000 
0.557948 0.653374 0.000000 
0.679418 0.825203 0.000000 
0.617573 0.738802 0.000000 
0.675809 0.738617 0.000000 
0.437500 1.000000 0.000000 
0.438762 0.912314 0.000000 
0.316593 0.912360 0.000000 
0.377599 0.912330 0.000000 
0.312500 1.000000 0.000000 
0.439990 0.825259 0.000000 
0.441108 0.738907 0.000000 
0.079014 0.911126 0.000000 
0.136157 0.912246 0.000000 
0.062500 1.000000 0.000000 
0.266701 0.738299 0.000000 
0.203493 0.824897 0.000000 
0.210390 0.737688 0.000000 
0.187500 1.000000 0.000000 
0.195573 0.912407 0.000000 
0.255856 0.912397 0.000000 
0.443230 0.485399 0.000000 
0.443424 0.403333 0.000000 
0.442052 0.653374 0.000000 
0.442769 0.568812 0.000000 
0.329383 0.567827 0.000000 
0.385806 0.568442 0.000000 
0.327179 0.652757 0.000000 
0.320582 0.825203 0.000000 
0.324191 0.738617 0.000000 
0.382427 0.738802 0.000000 
0.029730 0.902521 0.000000 
0.093810 0.821571 0.000000 
0.110064 0.646793 0.000000 
0.103894 0.733298 0.000000 
0.053377 0.727606 0.000000 
0.155907 0.736343 0.000000 
0.215691 0.651174 0.000000 
0.111287 0.317193 0.000000 
0.113425 0.397263 0.000000 
0.059164 0.398336 0.000000 
0.221460 0.398936 0.000000 
0.167371 0.397755 0.000000 
0.220662 0.317885 0.000000 
0.060612 0.560263 0.000000 
0.114225 0.478859 0.000000 
0.113276 0.562012 0.000000 
0.387102 0.402648 0.000000 
0.443357 0.322822 0.000000 
0.273773 0.566944 0.000000 
0.330738 0.484040 0.000000 
0.331037 0.320685 0.000000 
0.331261 0.401598 0.000000 
0.276040 0.400306 0.000000 
0.165828 0.564056 0.000000 
0.221071 0.481585 0.000000 
0.219222 0.565720 0.000000 
0.052516 0.241455 0.000000 
0.108177 0.238646 0.000000 
0.100383 0.086266 0.000000 
0.104441 0.161646 0.000000 
0.043259 0.089849 0.000000 
0.163616 0.237923 0.000000 
0.218958 0.238516 0.000000 
0.089144 -0.128703 0.000000 
0.025156 -0.192419 0.000000 
0.211632 0.011134 0.000000 
0.151228 -0.060852 0.000000 
0.033626 -0.055517 0.000000 
0.092499 -0.059122 0.000000 
0.096310 0.012619 0.000000 
0.386418 0.242993 0.000000 
0.274418 0.239844 0.000000 
0.330198 0.241464 0.000000 
0.328926 0.164072 0.000000 
0.270739 0.086479 0.000000 
0.157360 0.084853 0.000000 
0.214112 0.085074 0.000000 
0.216668 0.160891 0.000000 
0.052479 -0.258341 0.000000 
0.084964 -0.228210 0.000000 
0.054073 -0.226694 0.000000 
0.146769 -0.230200 0.000000 
0.115865 -0.229397 0.000000 
0.114900 -0.261048 0.000000 
0.117892 -0.163728 0.000000 
0.116836 -0.196936 0.000000 
0.148072 -0.164472 0.000000 
0.270034 -0.228532 0.000000 
0.239329 -0.229837 0.000000 
0.240356 -0.261492 0.000000 
0.238017 -0.163954 0.000000 
0.238498 -0.197279 0.000000 
0.267739 -0.162724 0.000000 
0.177542 -0.262238 0.000000 
0.208523 -0.230477 0.000000 
0.177660 -0.230575 0.000000 
0.239368 -0.024479 0.000000 
0.238628 -0.060184 0.000000 
0.268135 -0.023507 0.000000 
0.178716 -0.130813 0.000000 
0.208861 -0.096011 0.000000 
0.179486 -0.096221 0.000000 
0.267276 -0.094258 0.000000 
0.238121 -0.095355 0.000000 
0.237902 -0.129959 0.000000 
0.177833 -0.198060 0.000000 
0.208157 -0.164622 0.000000 
0.178168 -0.164781 0.000000 
0.500000 -0.128706 0.000000 
0.470509 -0.151206 0.000000 
0.471797 -0.128203 0.000000 
0.473976 -0.145407 0.000000 
0.468579 -0.151936 0.000000 
0.500000 -0.123431 0.000000 
0.418865 -0.181135 0.000000 
0.440225 -0.170501 0.000000 
0.423860 -0.205914 0.000000 
0.470566 -0.013034 0.000000 
0.470514 -0.046992 0.000000 
0.500000 -0.012668 0.000000 
0.413271 -0.117316 0.000000 
0.441401 -0.081814 0.000000 
0.412332 -0.084058 0.000000 
0.500000 -0.079638 0.000000 
0.470609 -0.080132 0.000000 
0.471092 -0.112612 0.000000 
0.303481 -0.257828 0.000000 
0.330873 -0.222735 0.000000 
0.300560 -0.226315 0.000000 
0.392664 -0.218009 0.000000 
0.361565 -0.218422 0.000000 
0.365101 -0.234899 0.000000 
0.356610 -0.155857 0.000000 
0.358861 -0.187936 0.000000 
0.386112 -0.153188 0.000000 
0.444663 -0.146323 0.000000 
0.415321 -0.149742 0.000000 
[...]
POINT_DATA 4225

SCALARS u_h float 2
LOOKUP_TABLE default
0.021369 -0.256647 
-0.021369 -0.256647 
0.000000 0.000000 
0.000000 0.000000 
-0.000000 -0.100000 
-0.056281 -0.180690 
0.000000 0.000000 
0.056281 -0.180690 
-0.000000 -0.176911 
0.021865 -0.260158 
-0.000000 -0.227989 
0.018890 -0.237344 
-0.021865 -0.260158 
-0.018890 -0.237344 
-0.038361 -0.233713 
-0.025619 -0.180765 
-0.058379 -0.106795 
-0.020834 -0.097850 
0.000000 0.000000 
-0.000000 -0.096546 
0.000000 0.000000 
0.020834 -0.097850 
0.058379 -0.106795 
0.025619 -0.180765 
0.038361 -0.233713 
0.021200 -0.261857 
0.017309 -0.253795 
0.023945 -0.255544 
-0.000000 -0.237414 
0.009271 -0.245157 
0.017802 -0.206235 
0.010540 -0.209057 
0.008512 -0.231756 
-0.000000 -0.207117 
-0.017802 -0.206235 
-0.009271 -0.245157 
-0.023945 -0.255544 
-0.017309 -0.253795 
-0.021200 -0.261857 
-0.008512 -0.231756 
-0.010540 -0.209057 
-0.029221 -0.250232 
-0.029119 -0.238982 
-0.040981 -0.182985 
-0.035634 -0.214483 
-0.048071 -0.210050 
-0.022696 -0.212768 
-0.011974 -0.178043 
-0.060720 -0.146343 
-0.042446 -0.144886 
-0.022054 -0.050847 
-0.037111 -0.100482 
-0.044563 -0.061253 
-0.025480 -0.142072 
-0.011725 -0.140124 
0.000000 0.000000 
-0.011580 -0.049876 
-0.000000 -0.049733 
-0.005128 -0.049761 
0.000000 0.000000 
-0.009355 -0.096853 
-0.000000 -0.139418 
0.000000 0.000000 
0.005128 -0.049761 
0.022054 -0.050847 
0.011580 -0.049876 
0.000000 0.000000 
0.009355 -0.096853 
0.011725 -0.140124 
0.044563 -0.061253 
0.037111 -0.100482 
0.040981 -0.182985 
0.042446 -0.144886 
0.060720 -0.146343 
0.025480 -0.142072 
0.011974 -0.178043 
0.048071 -0.210050 
0.035634 -0.214483 
0.029119 -0.238982 
0.029221 -0.250232 
0.022696 -0.212768 
0.021155 -0.259855 
0.022363 -0.260213 
0.023775 -0.258265 
0.018630 -0.258496 
0.020722 -0.260435 
0.021424 -0.262140 
0.022096 -0.248325 
0.020872 -0.255625 
0.017575 -0.246652 
-0.000000 -0.211986 
0.011588 -0.238733 
0.011023 -0.158986 
0.003686 -0.235802 
0.004764 -0.239575 
-0.000000 -0.234038 
0.022679 -0.253515 
0.014137 -0.248078 
0.016088 -0.253572 
0.005570 -0.193413 
0.005107 -0.207644 
-0.000000 -0.193025 
0.013589 -0.234789 
0.009491 -0.221522 
0.014950 -0.223876 
-0.000000 -0.218885 
0.004535 -0.219626 
0.003967 -0.229097 
0.013395 -0.250048 
0.008077 -0.239658 
0.012824 -0.243580 
-0.011023 -0.158986 
-0.011588 -0.238733 
-0.016088 -0.253572 
-0.014137 -0.248078 
-0.022679 -0.253515 
-0.004764 -0.239575 
-0.003686 -0.235802 
-0.023775 -0.258265 
-0.022363 -0.260213 
-0.021155 -0.259855 
-0.017575 -0.246652 
-0.020872 -0.255625 
-0.022096 -0.248325 
-0.021424 -0.262140 
-0.020722 -0.260435 
-0.018630 -0.258496 
-0.005107 -0.207644 
-0.005570 -0.193413 
-0.003967 -0.229097 
-0.004535 -0.219626 
-0.014950 -0.223876 
-0.009491 -0.221522 
-0.013589 -0.234789 
-0.013395 -0.250048 
-0.012824 -0.243580 
-0.008077 -0.239658 
-0.025156 -0.254919 
-0.026644 -0.253703 
-0.033810 -0.237381 
-0.029999 -0.246622 
-0.033626 -0.243017 
-0.026228 -0.248352 
-0.024132 -0.238866 
-0.048787 -0.182807 
-0.045677 -0.198854 
-0.052516 -0.196045 
-0.031458 -0.198984 
-0.038616 -0.199577 
-0.033162 -0.182115 
-0.043259 -0.222651 
-0.041941 -0.213354 
-0.037883 -0.226234 
-0.011418 -0.194507 
-0.005857 -0.177178 
-0.020739 -0.226021 
-0.016426 -0.210928 
-0.018537 -0.179315 
-0.017698 -0.196036 
-0.024418 -0.197656 
-0.032360 -0.227647 
-0.029168 -0.214109 
-0.026612 -0.227426 
-0.059164 -0.164164 
-0.050925 -0.165237 
-0.050776 -0.125488 
-0.051725 -0.146141 
-0.060612 -0.127237 
-0.042371 -0.164745 
-0.033960 -0.163564 
-0.016514 -0.026374 
-0.031310 -0.053429 
-0.029730 -0.034979 
-0.028191 -0.098826 
-0.030907 -0.076157 
-0.022890 -0.074812 
-0.053377 -0.084894 
-0.041394 -0.079202 
-0.047564 -0.103207 
-0.012102 -0.159852 
-0.005924 -0.159167 
-0.026040 -0.162194 
-0.018761 -0.160902 
-0.016883 -0.119673 
-0.018238 -0.140960 
-0.023773 -0.120556 
-0.040828 -0.123444 
-0.031722 -0.121780 
-0.033571 -0.143415 
0.000000 0.000000 
-0.011157 -0.025254 
-0.005856 -0.025103 
-0.008073 -0.025093 
0.000000 0.000000 
-0.015993 -0.050103 
-0.016701 -0.074201 
-0.000000 -0.025190 
-0.001262 -0.025186 
0.000000 0.000000 
-0.003608 -0.073593 
-0.002490 -0.049741 
-0.000000 -0.073555 
0.000000 0.000000 
-0.002599 -0.025170 
-0.004093 -0.025140 
-0.005730 -0.139601 
-0.000000 -0.158933 
-0.014679 -0.097243 
-0.010806 -0.119058 
-0.000000 -0.118559 
-0.005269 -0.118688 
-0.004552 -0.096626 
-0.008082 -0.049797 
-0.007427 -0.073698 
-0.011691 -0.073883 
0.000000 0.000000 
0.001262 -0.025186 
0.004093 -0.025140 
0.002599 -0.025170 
0.000000 0.000000 
0.002490 -0.049741 
0.003608 -0.073593 
0.016514 -0.026374 
0.011157 -0.025254 
0.000000 0.000000 
0.016701 -0.074201 
0.015993 -0.050103 
0.022890 -0.074812 
0.000000 0.000000 
0.008073 -0.025093 
0.005856 -0.025103 
0.005730 -0.139601 
0.005924 -0.159167 
0.004552 -0.096626 
0.005269 -0.118688 
0.016883 -0.119673 
0.010806 -0.119058 
0.014679 -0.097243 
0.008082 -0.049797 
0.011691 -0.073883 
0.007427 -0.073698 
0.029730 -0.034979 
0.031310 -0.053429 
0.047564 -0.103207 
0.041394 -0.079202 
0.053377 -0.084894 
0.030907 -0.076157 
0.028191 -0.098826 
0.048787 -0.182807 
0.050925 -0.165237 
0.059164 -0.164164 
0.033960 -0.163564 
0.042371 -0.164745 
0.033162 -0.182115 
0.060612 -0.127237 
0.051725 -0.146141 
0.050776 -0.125488 
0.012102 -0.159852 
0.005857 -0.177178 
0.023773 -0.120556 
0.018238 -0.140960 
0.018537 -0.179315 
0.018761 -0.160902 
0.026040 -0.162194 
0.040828 -0.123444 
0.033571 -0.143415 
0.031722 -0.121780 
0.052516 -0.196045 
0.045677 -0.198854 
0.037883 -0.226234 
0.041941 -0.213354 
0.043259 -0.222651 
0.038616 -0.199577 
0.031458 -0.198984 
0.026644 -0.253703 
0.025156 -0.254919 
0.024132 -0.238866 
0.026228 -0.248352 
0.033626 -0.243017 
0.029999 -0.246622 
0.033810 -0.237381 
0.011418 -0.194507 
0.024418 -0.197656 
0.017698 -0.196036 
0.016426 -0.210928 
0.020739 -0.226021 
0.032360 -0.227647 
0.026612 -0.227426 
0.029168 -0.214109 
0.021229 -0.258341 
0.022464 -0.259460 
0.022823 -0.257944 
0.021769 -0.261450 
0.022115 -0.260647 
0.021150 -0.261048 
0.024142 -0.257478 
0.023086 -0.259436 
0.023072 -0.258222 
0.020034 -0.259782 
0.020579 -0.261087 
0.021606 -0.261492 
0.019267 -0.257704 
0.019748 -0.259779 
0.017739 -0.256474 
0.021292 -0.262238 
0.021023 -0.261727 
0.021410 -0.261825 
0.020618 -0.243229 
0.019878 -0.247684 
0.018135 -0.242257 
0.022466 -0.255813 
0.021361 -0.252261 
0.023236 -0.252471 
0.017276 -0.250508 
0.019371 -0.251605 
0.019152 -0.254959 
0.021583 -0.260560 
0.020657 -0.258372 
0.021918 -0.258531 
-0.000000 -0.159956 
0.001759 -0.182456 
0.003047 -0.128203 
0.005226 -0.239157 
-0.000171 -0.214436 
-0.000000 -0.217181 
0.012615 -0.181135 
0.002725 -0.201751 
0.017610 -0.237164 
0.001816 -0.231784 
0.001764 -0.234492 
-0.000000 -0.231418 
0.007021 -0.242316 
0.003901 -0.238064 
0.006082 -0.240308 
-0.000000 -0.235888 
0.001859 -0.236382 
0.002342 -0.237612 
0.022231 -0.257828 
0.018373 -0.253985 
0.019310 -0.257565 
0.017664 -0.249259 
0.017815 -0.249672 
0.021351 -0.234899 
0.012860 -0.249607 
0.015111 -0.250436 
0.011112 -0.246938 
0.007163 -0.240073 
0.009071 -0.243492 
0.012532 -0.243252 
0.002849 -0.185277 
0.002764 -0.193121 
-0.000000 -0.185201 
0.007769 -0.208263 
0.005357 -0.200794 
0.008134 -0.201332 
-0.000000 -0.200342 
0.002657 -0.200456 
0.002530 -0.207251 
0.016230 -0.236166 
0.014230 -0.229592 
0.016985 -0.230840 
0.008972 -0.226926 
0.011548 -0.228259 
0.011003 -0.233289 
0.012805 -0.216585 
0.012165 -0.222687 
0.010025 -0.215560 
-0.000000 -0.223794 
0.002080 -0.224028 
0.001934 -0.228280 
0.002387 -0.213470 
0.002235 -0.219076 
-0.000000 -0.213311 
0.006158 -0.230309 
0.004240 -0.224692 
0.006531 -0.225697 
0.007368 -0.214651 
0.006947 -0.220470 
0.004830 -0.213932 
0.017367 -0.256451 
0.011393 -0.247700 
0.014449 -0.252240 
0.016102 -0.254635 
0.015373 -0.252134 
0.003758 -0.232809 
0.008180 -0.236002 
0.005883 -0.234288 
0.005802 -0.237623 
0.008361 -0.242716 
0.015615 -0.240979 
0.015103 -0.248994 
0.015212 -0.245263 
0.013092 -0.239457 
0.010600 -0.237767 
0.010644 -0.245013 
0.010436 -0.241683 
0.012887 -0.247129 
-0.003047 -0.128203 
-0.001759 -0.182456 
-0.017610 -0.237164 
-0.002725 -0.201751 
-0.012615 -0.181135 
0.000171 -0.214436 
-0.005226 -0.239157 
-0.019310 -0.257565 
-0.018373 -0.253985 
-0.022231 -0.257828 
-0.011112 -0.246938 
-0.015111 -0.250436 
-0.012860 -0.249607 
-0.021351 -0.234899 
-0.017815 -0.249672 
-0.017664 -0.249259 
-0.001764 -0.234492 
-0.001816 -0.231784 
-0.002342 -0.237612 
-0.001859 -0.236382 
-0.006082 -0.240308 
-0.003901 -0.238064 
-0.007021 -0.242316 
-0.012532 -0.243252 
-0.009071 -0.243492 
-0.007163 -0.240073 
-0.022823 -0.257944 
-0.022464 -0.259460 
-0.021229 -0.258341 
-0.023072 -0.258222 
-0.023086 -0.259436 
-0.024142 -0.257478 
-0.021150 -0.261048 
-0.022115 -0.260647 
-0.021769 -0.261450 
-0.018135 -0.242257 
-0.019878 -0.247684 
-0.020618 -0.243229 
-0.019152 -0.254959 
-0.019371 -0.251605 
-0.017276 -0.250508 
-0.023236 -0.252471 
-0.021361 -0.252261 
-0.022466 -0.255813 
-0.021606 -0.261492 
-0.020579 -0.261087 
-0.020034 -0.259782 
-0.021410 -0.261825 
-0.021023 -0.261727 
-0.021292 -0.262238 
-0.017739 -0.256474 
-0.019748 -0.259779 
-0.019267 -0.257704 
-0.021918 -0.258531 
-0.020657 -0.258372 
-0.021583 -0.260560 
-0.002764 -0.193121 
-0.002849 -0.185277 
-0.002530 -0.207251 
-0.002657 -0.200456 
-0.008134 -0.201332 
-0.005357 -0.200794 
-0.007769 -0.208263 
-0.001934 -0.228280 
-0.002080 -0.224028 
-0.006531 -0.225697 
-0.004240 -0.224692 
-0.006158 -0.230309 
-0.002235 -0.219076 
-0.002387 -0.213470 
-0.016985 -0.230840 
-0.014230 -0.229592 
-0.016230 -0.236166 
-0.010025 -0.215560 
-0.012165 -0.222687 
-0.012805 -0.216585 
-0.011003 -0.233289 
-0.011548 -0.228259 
-0.008972 -0.226926 
-0.004830 -0.213932 
-0.006947 -0.220470 
-0.007368 -0.214651 
-0.017367 -0.256451 
-0.015373 -0.252134 
-0.016102 -0.254635 
-0.014449 -0.252240 
-0.011393 -0.247700 
-0.015615 -0.240979 
-0.010600 -0.237767 
-0.013092 -0.239457 
-0.015212 -0.245263 
-0.015103 -0.248994 
-0.003758 -0.232809 
-0.008361 -0.242716 
-0.005802 -0.237623 
-0.005883 -0.234288 
-0.008180 -0.236002 
-0.012887 -0.247129 
-0.010436 -0.241683 
-0.010644 -0.245013 
-0.023211 -0.256174 
-0.024454 -0.256745 
-0.027927 -0.252162 
-0.026147 -0.254796 
-0.027153 -0.252921 
-0.025156 -0.256326 
-0.025328 -0.254836 
-0.036084 -0.235831 
-0.033906 -0.240693 
-0.035960 -0.238603 
-0.029769 -0.243319 
-0.031857 -0.242253 
-0.031497 -0.238416 
-0.031377 -0.246911 
-0.031809 -0.245062 
-0.029813 -0.248900 
-0.023035 -0.243852 
-0.021534 -0.238260 
-0.024999 -0.252238 
-0.024213 -0.248552 
-0.026664 -0.239119 
-0.025368 -0.244092 
-0.027611 -0.243923 
-0.028258 -0.250452 
-0.028149 -0.247713 
-0.026664 -0.251565 
-0.052589 -0.182067 
-0.050952 -0.190092 
-0.054506 -0.188538 
-0.043636 -0.191449 
-0.047328 -0.191021 
-0.044905 -0.183073 
-0.050358 -0.203218 
-0.049124 -0.197766 
-0.047135 -0.205079 
-0.028713 -0.190143 
-0.032402 -0.190763 
-0.029341 -0.181473 
-0.037182 -0.207243 
-0.035036 -0.199404 
-0.033781 -0.207144 
-0.037054 -0.182640 
-0.036141 -0.191234 
-0.039896 -0.191489 
-0.040804 -0.228386 
-0.040576 -0.224753 
-0.038319 -0.230509 
-0.045022 -0.212022 
-0.042823 -0.218585 
-0.045693 -0.216532 
-0.036999 -0.220877 
-0.039933 -0.220003 
-0.038813 -0.214145 
-0.042170 -0.199423 
-0.040550 -0.206991 
-0.043868 -0.206301 
-0.005738 -0.185531 
-0.002911 -0.176955 
-0.011011 -0.202032 
-0.008446 -0.193886 
-0.008869 -0.177547 
-0.008695 -0.185948 
-0.011744 -0.186503 
-0.019777 -0.231928 
-0.017819 -0.225011 
-0.019523 -0.211882 
-0.018680 -0.218688 
-0.021727 -0.219631 
-0.015696 -0.217651 
-0.013427 -0.209966 
-0.022014 -0.180034 
-0.021585 -0.188664 
-0.025100 -0.189427 
-0.014904 -0.187163 
-0.018184 -0.187896 
-0.015193 -0.178641 
-0.023605 -0.205439 
-0.021008 -0.196858 
-0.020310 -0.204601 
-0.014000 -0.202845 
-0.017103 -0.203719 
-0.014500 -0.195238 
-0.035830 -0.232033 
-0.034013 -0.221288 
-0.035150 -0.227176 
-0.033303 -0.233027 
-0.030715 -0.233550 
-0.027909 -0.198382 
-0.025920 -0.213529 
-0.026966 -0.206180 
-0.030367 -0.206768 
-0.032414 -0.214448 
-0.022572 -0.232795 
-0.028059 -0.233654 
-0.025340 -0.233386 
-0.023680 -0.226845 
-0.024811 -0.220420 
-0.030977 -0.221306 
-0.027903 -0.220997 
-0.029511 -0.227712 
-0.057877 -0.172593 
-0.053996 -0.173693 
-0.055896 -0.155887 
-0.055111 -0.164967 
-0.060125 -0.155413 
-0.050000 -0.174212 
-0.045925 -0.174297 
-0.054735 -0.115924 
-0.055786 -0.126480 
-0.059796 -0.117188 
-0.047074 -0.145579 
-0.051498 -0.136013 
-0.046654 -0.135210 
-0.060900 -0.136953 
-0.056287 -0.136652 
-0.056305 -0.146451 
-0.033691 -0.173045 
-0.029754 -0.172382 
-0.041817 -0.174069 
-0.037725 -0.173627 
-0.038202 -0.154373 
-0.038121 -0.164202 
-0.042596 -0.155016 
-0.051516 -0.155881 
-0.047058 -0.155549 
-0.046659 -0.165122 
-0.010656 -0.014011 
-0.021663 -0.028642 
-0.018289 -0.019686 
-0.026149 -0.051748 
-0.024488 -0.039978 
-0.020053 -0.038646 
-0.038136 -0.048566 
-0.030617 -0.042865 
-0.037644 -0.056432 
-0.024338 -0.098277 
-0.025759 -0.086931 
-0.022151 -0.086469 
-0.034340 -0.088474 
-0.029802 -0.087573 
-0.032440 -0.099543 
-0.022917 -0.062922 
-0.026621 -0.075347 
-0.026801 -0.063589 
-0.056276 -0.096039 
-0.050649 -0.093576 
-0.053055 -0.104964 
-0.043134 -0.069363 
-0.047396 -0.081725 
-0.049540 -0.073321 
-0.042184 -0.101696 
-0.044902 -0.091426 
-0.039395 -0.089730 
-0.031428 -0.064702 
-0.035832 -0.077386 
-0.036909 -0.066530 
-0.005922 -0.168381 
-0.002948 -0.168183 
-0.012098 -0.169151 
-0.008963 -0.168708 
-0.008871 -0.149820 
-0.008965 -0.159457 
-0.011980 -0.150168 
-0.025940 -0.171682 
-0.022264 -0.170982 
-0.022155 -0.151687 
-0.022318 -0.161527 
-0.025894 -0.152318 
-0.018735 -0.170310 
-0.015349 -0.169692 
-0.019048 -0.108926 
-0.020210 -0.120078 
-0.022459 -0.109338 
-0.014902 -0.140506 
-0.017668 -0.130473 
-0.014418 -0.130075 
-0.024778 -0.131476 
-0.021112 -0.130939 
-0.021757 -0.141484 
-0.015360 -0.160338 
-0.018599 -0.151111 
-0.015214 -0.150601 
-0.049491 -0.114557 
-0.039258 -0.112147 
-0.044275 -0.113268 
-0.045742 -0.124440 
-0.041874 -0.134361 
-0.026157 -0.109839 
-0.028685 -0.132087 
-0.027603 -0.121119 
-0.030177 -0.110454 
-0.034544 -0.111214 
-0.029925 -0.162883 
-0.037926 -0.144148 
-0.033932 -0.153684 
-0.029822 -0.152989 
-0.029417 -0.142718 
-0.036136 -0.122553 
-0.032844 -0.132775 
-0.037251 -0.133537 
0.000000 0.000000 
-0.007972 -0.012976 
-0.005475 -0.012576 
-0.006504 -0.012675 
0.000000 0.000000 
-0.013360 -0.025568 
-0.016774 -0.038034 
-0.002915 -0.012592 
-0.003424 -0.012572 
0.000000 0.000000 
-0.010323 -0.037557 
-0.006891 -0.025090 
-0.008765 -0.037535 
0.000000 0.000000 
-0.004000 -0.012555 
-0.004670 -0.012551 
-0.019613 -0.074452 
-0.018908 -0.086127 
-0.018745 -0.050365 
-0.019615 -0.062519 
-0.014244 -0.062107 
-0.016758 -0.062268 
-0.013639 -0.049958 
-0.009461 -0.025132 
-0.012109 -0.037615 
-0.014211 -0.037748 
-0.000000 -0.012674 
-0.000313 -0.012673 
0.000000 0.000000 
-0.000936 -0.037547 
-0.000626 -0.025190 
-0.000000 -0.037546 
0.000000 0.000000 
-0.000631 -0.012669 
-0.000958 -0.012663 
-0.002038 -0.085179 
-0.001791 -0.073566 
-0.000000 -0.085163 
-0.003780 -0.049750 
-0.003067 -0.061761 
-0.004657 -0.061785 
-0.000000 -0.061740 
-0.001522 -0.061746 
-0.001236 -0.049736 
0.000000 0.000000 
-0.002042 -0.012629 
-0.002459 -0.012611 
-0.001298 -0.012655 
-0.001658 -0.012643 
0.000000 0.000000 
-0.004961 -0.037537 
-0.003320 -0.025157 
-0.003882 -0.037541 
-0.001885 -0.037546 
-0.002862 -0.037544 
-0.001916 -0.025180 
-0.002947 -0.158992 
-0.000000 -0.168124 
-0.008678 -0.139821 
-0.005860 -0.149565 
-0.000000 -0.149356 
-0.002914 -0.149410 
-0.002849 -0.139466 
-0.017631 -0.097513 
-0.015885 -0.108587 
-0.010145 -0.108086 
-0.012930 -0.108309 
-0.011934 -0.097025 
-0.013760 -0.119334 
-0.011334 -0.129746 
-0.000000 -0.107685 
-0.002454 -0.107713 
-0.002261 -0.096568 
-0.002750 -0.129185 
-0.002618 -0.118593 
-0.000000 -0.129144 
-0.006906 -0.096720 
-0.004941 -0.107789 
-0.007494 -0.107913 
-0.008383 -0.129487 
-0.007987 -0.118843 
-0.005533 -0.129300 
-0.004932 -0.025122 
-0.006553 -0.049776 
-0.006118 -0.037533 
-0.007376 -0.037530 
-0.009745 -0.049827 
-0.004106 -0.085220 
-0.008445 -0.085383 
-0.006231 -0.085288 
-0.005478 -0.073637 
-0.006316 -0.061818 
-0.015968 -0.085868 
-0.011994 -0.061998 
-0.014080 -0.074020 
-0.013275 -0.085666 
-0.010781 -0.085507 
-0.008070 -0.061862 
-0.009487 -0.073779 
-0.009951 -0.061920 
0.000000 0.000000 
0.000313 -0.012673 
0.000958 -0.012663 
0.000631 -0.012669 
0.000000 0.000000 
0.000626 -0.025190 
0.000936 -0.037547 
0.002459 -0.012611 
0.002042 -0.012629 
0.000000 0.000000 
0.003882 -0.037541 
0.003320 -0.025157 
0.004961 -0.037537 
0.000000 0.000000 
0.001658 -0.012643 
0.001298 -0.012655 
0.001791 -0.073566 
0.002038 -0.085179 
0.001236 -0.049736 
0.001522 -0.061746 
0.004657 -0.061785 
0.003067 -0.061761 
0.003780 -0.049750 
0.001916 -0.025180 
0.002862 -0.037544 
0.001885 -0.037546 
0.010656 -0.014011 
0.007972 -0.012976 
0.000000 0.000000 
0.016774 -0.038034 
0.013360 -0.025568 
0.020053 -0.038646 
0.000000 0.000000 
0.006504 -0.012675 
0.005475 -0.012576 
0.018908 -0.086127 
0.019613 -0.074452 
0.022151 -0.086469 
0.013639 -0.049958 
0.016758 -0.062268 
0.014244 -0.062107 
0.022917 -0.062922 
0.019615 -0.062519 
0.018745 -0.050365 
0.000000 0.000000 
0.003424 -0.012572 
0.002915 -0.012592 
0.004670 -0.012551 
0.004000 -0.012555 
0.000000 0.000000 
0.008765 -0.037535 
0.006891 -0.025090 
0.010323 -0.037557 
0.014211 -0.037748 
0.012109 -0.037615 
0.009461 -0.025132 
0.002947 -0.158992 
0.002948 -0.168183 
0.002849 -0.139466 
0.002914 -0.149410 
0.008871 -0.149820 
0.005860 -0.149565 
0.008678 -0.139821 
0.002261 -0.096568 
0.002454 -0.107713 
0.007494 -0.107913 
0.004941 -0.107789 
0.006906 -0.096720 
0.002618 -0.118593 
0.002750 -0.129185 
0.019048 -0.108926 
0.015885 -0.108587 
0.017631 -0.097513 
0.011334 -0.129746 
0.013760 -0.119334 
0.014418 -0.130075 
0.011934 -0.097025 
0.012930 -0.108309 
0.010145 -0.108086 
0.005533 -0.129300 
0.007987 -0.118843 
0.008383 -0.129487 
0.004932 -0.025122 
0.009745 -0.049827 
0.007376 -0.037530 
0.006118 -0.037533 
0.006553 -0.049776 
0.015968 -0.085868 
0.010781 -0.085507 
0.013275 -0.085666 
0.014080 -0.074020 
0.011994 -0.061998 
0.004106 -0.085220 
0.006316 -0.061818 
0.005478 -0.073637 
0.006231 -0.085288 
0.008445 -0.085383 
0.009951 -0.061920 
0.009487 -0.073779 
0.008070 -0.061862 
0.018289 -0.019686 
0.021663 -0.028642 
0.037644 -0.056432 
0.030617 -0.042865 
0.038136 -0.048566 
0.024488 -0.039978 
0.026149 -0.051748 
0.053055 -0.104964 
0.050649 -0.093576 
0.056276 -0.096039 
0.039395 -0.089730 
0.044902 -0.091426 
0.042184 -0.101696 
0.049540 -0.073321 
0.047396 -0.081725 
0.043134 -0.069363 
0.025759 -0.086931 
0.024338 -0.098277 
0.026801 -0.063589 
0.026621 -0.075347 
0.032440 -0.099543 
0.029802 -0.087573 
0.034340 -0.088474 
0.036909 -0.066530 
0.035832 -0.077386 
0.031428 -0.064702 
0.052589 -0.182067 
0.053996 -0.173693 
0.057877 -0.172593 
0.045925 -0.174297 
0.050000 -0.174212 
0.044905 -0.183073 
0.060125 -0.155413 
0.055111 -0.164967 
0.055896 -0.155887 
0.029754 -0.172382 
0.033691 -0.173045 
0.029341 -0.181473 
0.042596 -0.155016 
0.038121 -0.164202 
0.038202 -0.154373 
0.037054 -0.182640 
0.037725 -0.173627 
0.041817 -0.174069 
0.059796 -0.117188 
0.055786 -0.126480 
0.054735 -0.115924 
0.056305 -0.146451 
0.056287 -0.136652 
0.060900 -0.136953 
0.046654 -0.135210 
0.051498 -0.136013 
0.047074 -0.145579 
0.046659 -0.165122 
0.047058 -0.155549 
0.051516 -0.155881 
0.005922 -0.168381 
0.002911 -0.176955 
0.011980 -0.150168 
0.008965 -0.159457 
0.008869 -0.177547 
0.008963 -0.168708 
0.012098 -0.169151 
0.022459 -0.109338 
0.020210 -0.120078 
0.021757 -0.141484 
0.021112 -0.130939 
0.024778 -0.131476 
0.017668 -0.130473 
0.014902 -0.140506 
0.022014 -0.180034 
0.022264 -0.170982 
0.025940 -0.171682 
0.015349 -0.169692 