# vtk DataFile Version 2.0
Unstructured Grid Example
ASCII
DATASET UNSTRUCTURED_GRID

POINTS 25 float
0.034842 -0.261048 0.000000 
0.965158 -0.261048 0.000000 
1.000000 1.000000 0.000000 
0.000000 1.000000 0.000000 
0.500000 -0.100000 0.000000 
0.952165 0.327216 0.000000 
0.500000 1.000000 0.000000 
0.047835 0.327216 0.000000 
0.500000 0.335236 0.000000 
0.274280 -0.242237 0.000000 
0.500000 0.052987 0.000000 
0.264885 0.026357 0.000000 
0.725720 -0.242237 0.000000 
0.735115 0.026357 0.000000 
0.965305 0.019513 0.000000 
0.728515 0.328218 0.000000 
0.952132 0.648945 0.000000 
0.733907 0.657041 0.000000 
0.750000 1.000000 0.000000 
0.500000 0.659776 0.000000 
0.250000 1.000000 0.000000 
0.266093 0.657041 0.000000 
0.047868 0.648945 0.000000 
0.271485 0.328218 0.000000 
0.034695 0.019513 0.000000 

CELLS 32 128
3  0 9 11 
3  4 10 9 
3  8 11 10 
3  9 10 11 
3  4 12 10 
3  1 13 12 
3  8 10 13 
3  12 13 10 
3  1 14 13 
3  5 15 14 
3  8 13 15 
3  14 15 13 
3  5 16 15 
3  2 17 16 
3  8 15 17 
3  16 17 15 
3  2 18 17 
3  6 19 18 
3  8 17 19 
3  18 19 17 
3  6 20 19 
3  3 21 20 
3  8 19 21 
3  20 21 19 
3  3 22 21 
3  7 23 22 
3  8 21 23 
3  22 23 21 
3  7 24 23 
3  0 11 24 
3  8 23 11 
3  24 11 23 

CELL_TYPES 32
5
5
5
5
5
5
5
5
5
5
5
5
5
5
5
5
5
5
5
5
5
5
5
5
5
5
5
5
5
5
5
5

POINT_DATA 25

SCALARS u_h float 2
LOOKUP_TABLE default
0.034842 -0.261048 
-0.034842 -0.261048 
0.000000 0.000000 
0.000000 0.000000 
-0.000000 -0.100000 
-0.047835 -0.172784 
0.000000 0.000000 
0.047835 -0.172784 
-0.000000 -0.164764 
0.024280 -0.242237 
-0.000000 -0.197013 
0.014885 -0.223643 
-0.024280 -0.242237 
-0.014885 -0.223643 
-0.034695 -0.230487 
-0.021485 -0.171782 
-0.047868 -0.101055 
-0.016093 -0.092959 
0.000000 0.000000 
-0.000000 -0.090224 
0.000000 0.000000 
0.016093 -0.092959 
0.047868 -0.101055 
0.021485 -0.171782 
0.034695 -0.230487 

CELL_DATA 32

SCALARS epsilon float 4
LOOKUP_TABLE default
-0.039738 0.077011 0.000000 0.015440
-0.101781 0.097111 0.000000 0.459485
-0.061303 0.125816 0.000000 0.046986
-0.056678 0.081068 0.000000 0.029527
-0.101781 0.097111 0.000000 -0.459485
-0.039738 0.077011 0.000000 -0.015440
-0.061303 0.125816 0.000000 -0.046986
-0.056678 0.081068 0.000000 -0.029527
-0.082344 0.115227 0.000000 -0.011790
-0.109928 0.204934 0.000000 -0.029951
-0.089979 0.186236 0.000000 -0.025538
-0.082723 0.186236 0.000000 -0.025167
-0.110880 0.247806 0.000000 -0.001606
-0.117987 0.334261 0.000000 0.089056
-0.088940 0.269189 0.000000 0.000540
-0.134237 0.269413 0.000000 -0.000411
0.001101 0.307785 0.000000 0.029821
0.000000 0.300353 0.000000 0.000000
-0.066434 0.256096 0.000000 -0.004194
-0.064632 0.308329 0.000000 0.027897
0.000000 0.300353 0.000000 0.000000
0.001101 0.307785 0.000000 -0.029821
-0.066434 0.256096 0.000000 0.004194
-0.064632 0.308329 0.000000 -0.027897
-0.117987 0.334261 0.000000 -0.089056
-0.110880 0.247806 0.000000 0.001606
-0.088940 0.269189 0.000000 -0.000540
-0.134237 0.269413 0.000000 0.000411
-0.109928 0.204934 0.000000 0.029951
-0.082344 0.115227 0.000000 0.011790
-0.089979 0.186236 0.000000 0.025538
-0.082723 0.186236 0.000000 0.025167

SCALARS sigma float 4
LOOKUP_TABLE default
-0.249011 1.743875 0.372722 0.362055
6.228295 0.565612 -0.046705 8.316866
-0.260141 3.017960 0.645121 0.993522
-0.594236 1.670184 0.243904 0.620836
6.228295 0.565612 -0.046705 -8.316866
-0.249011 1.743875 0.372722 -0.362055
-0.260141 3.017960 0.645121 -0.993522
-0.594236 1.670184 0.243904 -0.620836
-0.928580 2.460135 0.328831 -0.235495
-0.750325 5.142178 0.950055 -0.448909
-0.453806 4.714746 0.962571 -0.481364
-0.283444 4.799605 1.035139 -0.477678
-0.396151 6.644630 1.369265 -0.042155
0.157522 10.099624 2.162746 1.055320
0.311530 7.710063 1.802492 -0.137058
-0.726394 7.155838 1.351761 -0.168411
3.106910 10.364879 3.088855 0.489070
3.003532 10.032102 3.003532 0.000000
0.752192 7.496855 1.896620 -0.118964
1.279181 9.550632 2.436972 0.362457
3.003532 10.032102 3.003532 0.000000
3.106910 10.364879 3.088855 -0.489070
0.752192 7.496855 1.896620 0.118964
1.279181 9.550632 2.436972 -0.362457
0.157522 10.099624 2.162746 -1.055320
-0.396151 6.644630 1.369265 0.042155
0.311530 7.710063 1.802492 0.137058
-0.726394 7.155838 1.351761 0.168411
-0.750325 5.142178 0.950055 0.448909
-0.928580 2.460135 0.328831 0.235495
-0.453806 4.714746 0.962571 0.481364
-0.283444 4.799605 1.035139 0.477678

