# vtk DataFile Version 2.0
Unstructured Grid Example
ASCII
DATASET UNSTRUCTURED_GRID

POINTS 64 float
0.000000 0.000000 0.000000 
0.031250 0.000000 0.000000 
0.031250 0.000000 0.000000 
0.062500 0.000000 0.000000 
0.062500 0.000000 0.000000 
0.093750 0.000000 0.000000 
0.093750 0.000000 0.000000 
0.125000 0.000000 0.000000 
0.187500 0.544864 0.000000 
0.218750 -1.089728 0.000000 
0.218750 2.401434 0.000000 
0.250000 -6.437460 0.000000 
0.125000 0.000000 0.000000 
0.156250 0.000000 0.000000 
0.156250 0.000000 0.000000 
0.187500 0.000000 0.000000 
0.437500 -8.212749 0.000000 
0.468750 -8.969792 0.000000 
0.468750 -8.649872 0.000000 
0.500000 -8.852589 0.000000 
0.375000 -6.822187 0.000000 
0.406250 -8.632614 0.000000 
0.406250 -7.593181 0.000000 
0.437500 -8.901054 0.000000 
0.250000 -2.240740 0.000000 
0.281250 -5.992006 0.000000 
0.281250 -3.706515 0.000000 
0.312500 -6.811721 0.000000 
0.312500 -4.882610 0.000000 
0.343750 -7.564738 0.000000 
0.343750 -5.915727 0.000000 
0.375000 -8.180631 0.000000 
0.500000 -8.852589 0.000000 
0.531250 -8.649872 0.000000 
0.531250 -8.969792 0.000000 
0.562500 -8.212749 0.000000 
0.562500 -8.901054 0.000000 
0.593750 -7.593181 0.000000 
0.593750 -8.632614 0.000000 
0.625000 -6.822187 0.000000 
0.687500 -6.811721 0.000000 
0.718750 -3.706515 0.000000 
0.718750 -5.992006 0.000000 
0.750000 -2.240740 0.000000 
0.625000 -8.180631 0.000000 
0.656250 -5.915727 0.000000 
0.656250 -7.564738 0.000000 
0.687500 -4.882610 0.000000 
0.937500 0.000000 0.000000 
0.968750 0.000000 0.000000 
0.968750 0.000000 0.000000 
1.000000 0.000000 0.000000 
0.875000 0.000000 0.000000 
0.906250 0.000000 0.000000 
0.906250 0.000000 0.000000 
0.937500 0.000000 0.000000 
0.750000 -6.437460 0.000000 
0.781250 2.401434 0.000000 
0.781250 -1.089728 0.000000 
0.812500 0.544864 0.000000 
0.812500 0.000000 0.000000 
0.843750 0.000000 0.000000 
0.843750 0.000000 0.000000 
0.875000 0.000000 0.000000 

CELLS 32 96
2  0 1 
2  2 3 
2  4 5 
2  6 7 
2  8 9 
2  10 11 
2  12 13 
2  14 15 
2  16 17 
2  18 19 
2  20 21 
2  22 23 
2  24 25 
2  26 27 
2  28 29 
2  30 31 
2  32 33 
2  34 35 
2  36 37 
2  38 39 
2  40 41 
2  42 43 
2  44 45 
2  46 47 
2  48 49 
2  50 51 
2  52 53 
2  54 55 
2  56 57 
2  58 59 
2  60 61 
2  62 63 

CELL_TYPES 32
3
3
3
3
3
3
3
3
3
3
3
3
3
3
3
3
3
3
3
3
3
3
3
3
3
3
3
3
3
3
3
3

POINT_DATA 64

SCALARS lambda_h float 1
LOOKUP_TABLE default
0.000000 
0.000000 
0.000000 
0.000000 
0.000000 
0.000000 
0.000000 
0.000000 
0.544864 
-1.089728 
2.401434 
-6.437460 
0.000000 
0.000000 
0.000000 
0.000000 
-8.212749 
-8.969792 
-8.649872 
-8.852589 
-6.822187 
-8.632614 
-7.593181 
-8.901054 
-2.240740 
-5.992006 
-3.706515 
-6.811721 
-4.882610 
-7.564738 
-5.915727 
-8.180631 
-8.852589 
-8.649872 
-8.969792 
-8.212749 
-8.901054 
-7.593181 
-8.632614 
-6.822187 
-6.811721 
-3.706515 
-5.992006 
-2.240740 
-8.180631 
-5.915727 
-7.564738 
-4.882610 
0.000000 
0.000000 
0.000000 
0.000000 
0.000000 
0.000000 
0.000000 
0.000000 
-6.437460 
2.401434 
-1.089728 
0.544864 
0.000000 
0.000000 
0.000000 
0.000000 

