# vtk DataFile Version 2.0
Unstructured Grid Example
ASCII
DATASET UNSTRUCTURED_GRID

POINTS 128 float
0.000000 0.000000 0.000000 
0.015625 0.000000 0.000000 
0.015625 0.000000 0.000000 
0.031250 0.000000 0.000000 
0.031250 0.000000 0.000000 
0.046875 0.000000 0.000000 
0.046875 0.000000 0.000000 
0.062500 0.000000 0.000000 
0.093750 0.000000 0.000000 
0.109375 0.000000 0.000000 
0.109375 0.000000 0.000000 
0.125000 0.000000 0.000000 
0.062500 0.000000 0.000000 
0.078125 0.000000 0.000000 
0.078125 0.000000 0.000000 
0.093750 0.000000 0.000000 
0.218750 1.152101 0.000000 
0.234375 -4.374631 0.000000 
0.234375 -1.723168 0.000000 
0.250000 -4.150824 0.000000 
0.187500 0.000000 0.000000 
0.203125 0.000000 0.000000 
0.203125 0.690143 0.000000 
0.218750 -1.380287 0.000000 
0.125000 0.000000 0.000000 
0.140625 0.000000 0.000000 
0.140625 0.000000 0.000000 
0.156250 0.000000 0.000000 
0.156250 0.000000 0.000000 
0.171875 0.000000 0.000000 
0.171875 0.000000 0.000000 
0.187500 0.000000 0.000000 
0.468750 -8.685692 0.000000 
0.484375 -8.885459 0.000000 
0.484375 -8.809568 0.000000 
0.500000 -8.837473 0.000000 
0.437500 -8.316129 0.000000 
0.453125 -8.798767 0.000000 
0.453125 -8.523494 0.000000 
0.468750 -8.866674 0.000000 
0.375000 -7.069272 0.000000 
0.390625 -8.061813 0.000000 
0.390625 -7.440058 0.000000 
0.406250 -8.312782 0.000000 
0.406250 -7.772620 0.000000 
0.421875 -8.520381 0.000000 
0.421875 -8.065247 0.000000 
0.437500 -8.682889 0.000000 
0.250000 -2.665369 0.000000 
0.265625 -4.694079 0.000000 
0.265625 -3.409299 0.000000 
0.281250 -5.234928 0.000000 
0.281250 -4.067350 0.000000 
0.296875 -5.744455 0.000000 
0.296875 -4.668144 0.000000 
0.312500 -6.219973 0.000000 
0.343750 -6.218301 0.000000 
0.359375 -7.437216 0.000000 
0.359375 -6.661703 0.000000 
0.375000 -7.769327 0.000000 
0.312500 -5.223473 0.000000 
0.328125 -6.661144 0.000000 
0.328125 -5.739235 0.000000 
0.343750 -7.067292 0.000000 
0.500000 -8.837473 0.000000 
0.515625 -8.809568 0.000000 
0.515625 -8.885459 0.000000 
0.531250 -8.685692 0.000000 
0.531250 -8.866674 0.000000 
0.546875 -8.523494 0.000000 
0.546875 -8.798767 0.000000 
0.562500 -8.316129 0.000000 
0.593750 -8.312782 0.000000 
0.609375 -7.440058 0.000000 
0.609375 -8.061813 0.000000 
0.625000 -7.069272 0.000000 
0.562500 -8.682889 0.000000 
0.578125 -8.065247 0.000000 
0.578125 -8.520381 0.000000 
0.593750 -7.772620 0.000000 
0.718750 -5.234928 0.000000 
0.734375 -3.409299 0.000000 
0.734375 -4.694079 0.000000 
0.750000 -2.665369 0.000000 
0.687500 -6.219973 0.000000 
0.703125 -4.668144 0.000000 
0.703125 -5.744455 0.000000 
0.718750 -4.067350 0.000000 
0.625000 -7.769327 0.000000 
0.640625 -6.661703 0.000000 
0.640625 -7.437216 0.000000 
0.656250 -6.218301 0.000000 
0.656250 -7.067292 0.000000 
0.671875 -5.739235 0.000000 
0.671875 -6.661144 0.000000 
0.687500 -5.223473 0.000000 
0.968750 0.000000 0.000000 
0.984375 0.000000 0.000000 
0.984375 0.000000 0.000000 
1.000000 0.000000 0.000000 
0.937500 0.000000 0.000000 
0.953125 0.000000 0.000000 
0.953125 0.000000 0.000000 
0.968750 0.000000 0.000000 
0.875000 0.000000 0.000000 
0.890625 0.000000 0.000000 
0.890625 0.000000 0.000000 
0.906250 0.000000 0.000000 
0.906250 0.000000 0.000000 
0.921875 0.000000 0.000000 
0.921875 0.000000 0.000000 
0.937500 0.000000 0.000000 
0.750000 -4.150824 0.000000 
0.765625 -1.723168 0.000000 
0.765625 -4.374631 0.000000 
0.781250 1.152101 0.000000 
0.781250 -1.380287 0.000000 
0.796875 0.690143 0.000000 
0.796875 0.000000 0.000000 
0.812500 0.000000 0.000000 
0.843750 0.000000 0.000000 
0.859375 0.000000 0.000000 
0.859375 0.000000 0.000000 
0.875000 0.000000 0.000000 
0.812500 0.000000 0.000000 
0.828125 0.000000 0.000000 
0.828125 0.000000 0.000000 
0.843750 0.000000 0.000000 

CELLS 64 192
2  0 1 
2  2 3 
2  4 5 
2  6 7 
2  8 9 
2  10 11 
2  12 13 
2  14 15 
2  16 17 
2  18 19 
2  20 21 
2  22 23 
2  24 25 
2  26 27 
2  28 29 
2  30 31 
2  32 33 
2  34 35 
2  36 37 
2  38 39 
2  40 41 
2  42 43 
2  44 45 
2  46 47 
2  48 49 
2  50 51 
2  52 53 
2  54 55 
2  56 57 
2  58 59 
2  60 61 
2  62 63 
2  64 65 
2  66 67 
2  68 69 
2  70 71 
2  72 73 
2  74 75 
2  76 77 
2  78 79 
2  80 81 
2  82 83 
2  84 85 
2  86 87 
2  88 89 
2  90 91 
2  92 93 
2  94 95 
2  96 97 
2  98 99 
2  100 101 
2  102 103 
2  104 105 
2  106 107 
2  108 109 
2  110 111 
2  112 113 
2  114 115 
2  116 117 
2  118 119 
2  120 121 
2  122 123 
2  124 125 
2  126 127 

CELL_TYPES 64
3
3
3
3
3
3
3
3
3
3
3
3
3
3
3
3
3
3
3
3
3
3
3
3
3
3
3
3
3
3
3
3
3
3
3
3
3
3
3
3
3
3
3
3
3
3
3
3
3
3
3
3
3
3
3
3
3
3
3
3
3
3
3
3

POINT_DATA 128

SCALARS lambda_h float 1
LOOKUP_TABLE default
0.000000 
0.000000 
0.000000 
0.000000 
0.000000 
0.000000 
0.000000 
0.000000 
0.000000 
0.000000 
0.000000 
0.000000 
0.000000 
0.000000 
0.000000 
0.000000 
1.152101 
-4.374631 
-1.723168 
-4.150824 
0.000000 
0.000000 
0.690143 
-1.380287 
0.000000 
0.000000 
0.000000 
0.000000 
0.000000 
0.000000 
0.000000 
0.000000 
-8.685692 
-8.885459 
-8.809568 
-8.837473 
-8.316129 
-8.798767 
-8.523494 
-8.866674 
-7.069272 
-8.061813 
-7.440058 
-8.312782 
-7.772620 
-8.520381 
-8.065247 
-8.682889 
-2.665369 
-4.694079 
-3.409299 
-5.234928 
-4.067350 
-5.744455 
-4.668144 
-6.219973 
-6.218301 
-7.437216 
-6.661703 
-7.769327 
-5.223473 
-6.661144 
-5.739235 
-7.067292 
-8.837473 
-8.809568 
-8.885459 
-8.685692 
-8.866674 
-8.523494 
-8.798767 
-8.316129 
-8.312782 
-7.440058 
-8.061813 
-7.069272 
-8.682889 
-8.065247 
-8.520381 
-7.772620 
-5.234928 
-3.409299 
-4.694079 
-2.665369 
-6.219973 
-4.668144 
-5.744455 
-4.067350 
-7.769327 
-6.661703 
-7.437216 
-6.218301 
-7.067292 
-5.739235 
-6.661144 
-5.223473 
0.000000 
0.000000 
0.000000 
0.000000 
0.000000 
0.000000 
0.000000 
0.000000 
0.000000 
0.000000 
0.000000 
0.000000 
0.000000 
0.000000 
0.000000 
0.000000 
-4.150824 
-1.723168 
-4.374631 
1.152101 
-1.380287 
0.690143 
0.000000 
0.000000 
0.000000 
0.000000 
0.000000 
0.000000 
0.000000 
0.000000 
0.000000 
0.000000 

