# vtk DataFile Version 2.0
Unstructured Grid Example
ASCII
DATASET UNSTRUCTURED_GRID

POINTS 16 float
0.000000 0.000000 0.000000 
0.125000 0.000000 0.000000 
0.125000 2.675025 0.000000 
0.250000 -5.350050 0.000000 
0.250000 2.442487 0.000000 
0.375000 -12.910049 0.000000 
0.375000 -6.899160 0.000000 
0.500000 -9.579293 0.000000 
0.500000 -9.579293 0.000000 
0.625000 -6.899160 0.000000 
0.625000 -12.910049 0.000000 
0.750000 2.442487 0.000000 
0.750000 -5.350050 0.000000 
0.875000 2.675025 0.000000 
0.875000 0.000000 0.000000 
1.000000 0.000000 0.000000 

CELLS 8 24
2  0 1 
2  2 3 
2  4 5 
2  6 7 
2  8 9 
2  10 11 
2  12 13 
2  14 15 

CELL_TYPES 8
3
3
3
3
3
3
3
3

POINT_DATA 16

SCALARS lambda_h float 1
LOOKUP_TABLE default
0.000000 
0.000000 
2.675025 
-5.350050 
2.442487 
-12.910049 
-6.899160 
-9.579293 
-9.579293 
-6.899160 
-12.910049 
2.442487 
-5.350050 
2.675025 
0.000000 
0.000000 

