# vtk DataFile Version 2.0
Unstructured Grid Example
ASCII
DATASET UNSTRUCTURED_GRID

POINTS 8 float
0.000000 3.045802 0.000000 
0.250000 -6.091605 0.000000 
0.250000 3.092363 0.000000 
0.500000 -15.322133 0.000000 
0.500000 -15.322133 0.000000 
0.750000 3.092363 0.000000 
0.750000 -6.091605 0.000000 
1.000000 3.045802 0.000000 

CELLS 4 12
2  0 1 
2  2 3 
2  4 5 
2  6 7 

CELL_TYPES 4
3
3
3
3

POINT_DATA 8

SCALARS lambda_h float 1
LOOKUP_TABLE default
3.045802 
-6.091605 
3.092363 
-15.322133 
-15.322133 
3.092363 
-6.091605 
3.045802 

