# vtk DataFile Version 2.0
Unstructured Grid Example
ASCII
DATASET UNSTRUCTURED_GRID

POINTS 256 float
0.000000 0.000000 0.000000 
0.007812 0.000000 0.000000 
0.007812 0.000000 0.000000 
0.015625 0.000000 0.000000 
0.015625 0.000000 0.000000 
0.023438 0.000000 0.000000 
0.023438 0.000000 0.000000 
0.031250 0.000000 0.000000 
0.046875 0.000000 0.000000 
0.054688 0.000000 0.000000 
0.054688 0.000000 0.000000 
0.062500 0.000000 0.000000 
0.031250 0.000000 0.000000 
0.039062 0.000000 0.000000 
0.039062 0.000000 0.000000 
0.046875 0.000000 0.000000 
0.109375 0.000000 0.000000 
0.117188 0.000000 0.000000 
0.117188 0.000000 0.000000 
0.125000 0.000000 0.000000 
0.093750 0.000000 0.000000 
0.101562 0.000000 0.000000 
0.101562 0.000000 0.000000 
0.109375 0.000000 0.000000 
0.062500 0.000000 0.000000 
0.070312 0.000000 0.000000 
0.070312 0.000000 0.000000 
0.078125 0.000000 0.000000 
0.078125 0.000000 0.000000 
0.085938 0.000000 0.000000 
0.085938 0.000000 0.000000 
0.093750 0.000000 0.000000 
0.234375 -2.025449 0.000000 
0.242188 -3.323840 0.000000 
0.242188 -2.500856 0.000000 
0.250000 -3.671415 0.000000 
0.218750 0.003506 0.000000 
0.226562 -2.921835 0.000000 
0.226562 -1.435197 0.000000 
0.234375 -2.969770 0.000000 
0.187500 0.000000 0.000000 
0.195312 0.000000 0.000000 
0.195312 0.000000 0.000000 
0.203125 0.000000 0.000000 
0.203125 0.000000 0.000000 
0.210938 0.000000 0.000000 
0.210938 0.971607 0.000000 
0.218750 -1.943215 0.000000 
0.125000 0.000000 0.000000 
0.132812 0.000000 0.000000 
0.132812 0.000000 0.000000 
0.140625 0.000000 0.000000 
0.140625 0.000000 0.000000 
0.148438 0.000000 0.000000 
0.148438 0.000000 0.000000 
0.156250 0.000000 0.000000 
0.171875 0.000000 0.000000 
0.179688 0.000000 0.000000 
0.179688 0.000000 0.000000 
0.187500 0.000000 0.000000 
0.156250 0.000000 0.000000 
0.164062 0.000000 0.000000 
0.164062 0.000000 0.000000 
0.171875 0.000000 0.000000 
0.484375 -8.814339 0.000000 
0.492188 -8.865782 0.000000 
0.492188 -8.851276 0.000000 
0.500000 -8.843350 0.000000 
0.468750 -8.720193 0.000000 
0.476562 -8.843391 0.000000 
0.476562 -8.773164 0.000000 
0.484375 -8.860648 0.000000 
0.437500 -8.393123 0.000000 
0.445312 -8.655258 0.000000 
0.445312 -8.491858 0.000000 
0.453125 -8.719923 0.000000 
0.453125 -8.579394 0.000000 
0.460938 -8.772916 0.000000 
0.460938 -8.655558 0.000000 
0.468750 -8.814110 0.000000 
0.375000 -7.224182 0.000000 
0.382812 -7.737969 0.000000 
0.382812 -7.405217 0.000000 
0.390625 -7.889685 0.000000 
0.390625 -7.576676 0.000000 
0.398438 -8.031235 0.000000 
0.398438 -7.738372 0.000000 
0.406250 -8.162402 0.000000 
0.421875 -8.162817 0.000000 
0.429688 -8.491499 0.000000 
0.429688 -8.283376 0.000000 
0.437500 -8.579064 0.000000 
0.406250 -7.890101 0.000000 
0.414062 -8.282973 0.000000 
0.414062 -8.031654 0.000000 
0.421875 -8.392739 0.000000 
0.250000 -2.920940 0.000000 
0.257812 -4.001807 0.000000 
0.257812 -3.304273 0.000000 
0.265625 -4.316008 0.000000 
0.265625 -3.660185 0.000000 
0.273438 -4.615919 0.000000 
0.273438 -3.994452 0.000000 
0.281250 -4.903120 0.000000 
0.296875 -4.900594 0.000000 
0.304688 -5.698837 0.000000 
0.304688 -5.177013 0.000000 
0.312500 -5.944243 0.000000 
0.281250 -4.310945 0.000000 
0.289062 -5.178802 0.000000 
0.289062 -4.612358 0.000000 
0.296875 -5.443834 0.000000 
0.359375 -6.834024 0.000000 
0.367188 -7.404875 0.000000 
0.367188 -7.033738 0.000000 
0.375000 -7.576297 0.000000 
0.343750 -6.407144 0.000000 
0.351562 -7.033515 0.000000 
0.351562 -6.625141 0.000000 
0.359375 -7.223891 0.000000 
0.312500 -5.442584 0.000000 
0.320312 -6.180331 0.000000 
0.320312 -5.697990 0.000000 
0.328125 -6.407266 0.000000 
0.328125 -5.943701 0.000000 
0.335938 -6.625119 0.000000 
0.335938 -6.180025 0.000000 
0.343750 -6.833888 0.000000 
0.500000 -8.843350 0.000000 
0.507812 -8.851276 0.000000 
0.507812 -8.865782 0.000000 
0.515625 -8.814339 0.000000 
0.515625 -8.860648 0.000000 
0.523438 -8.773164 0.000000 
0.523438 -8.843391 0.000000 
0.531250 -8.720193 0.000000 
0.546875 -8.719923 0.000000 
0.554688 -8.491858 0.000000 
0.554688 -8.655258 0.000000 
0.562500 -8.393123 0.000000 
0.531250 -8.814110 0.000000 
0.539062 -8.655558 0.000000 
0.539062 -8.772916 0.000000 
0.546875 -8.579394 0.000000 
0.609375 -7.889685 0.000000 
0.617188 -7.405217 0.000000 
0.617188 -7.737969 0.000000 
0.625000 -7.224182 0.000000 
0.593750 -8.162402 0.000000 
0.601562 -7.738372 0.000000 
0.601562 -8.031235 0.000000 
0.609375 -7.576676 0.000000 
0.562500 -8.579064 0.000000 
0.570312 -8.283376 0.000000 
0.570312 -8.491499 0.000000 
0.578125 -8.162817 0.000000 
0.578125 -8.392739 0.000000 
0.585938 -8.031654 0.000000 
0.585938 -8.282973 0.000000 
0.593750 -7.890101 0.000000 
0.734375 -4.316008 0.000000 
0.742188 -3.304273 0.000000 
0.742188 -4.001807 0.000000 
0.750000 -2.920940 0.000000 
0.718750 -4.903120 0.000000 
0.726562 -3.994452 0.000000 
0.726562 -4.615919 0.000000 
0.734375 -3.660185 0.000000 
0.687500 -5.944243 0.000000 
0.695312 -5.177013 0.000000 
0.695312 -5.698837 0.000000 
0.703125 -4.900594 0.000000 
0.703125 -5.443834 0.000000 
0.710938 -4.612358 0.000000 
0.710938 -5.178802 0.000000 
0.718750 -4.310945 0.000000 
0.625000 -7.576297 0.000000 
0.632812 -7.033738 0.000000 
0.632812 -7.404875 0.000000 
0.640625 -6.834024 0.000000 
0.640625 -7.223891 0.000000 
0.648438 -6.625141 0.000000 
0.648438 -7.033515 0.000000 
0.656250 -6.407144 0.000000 
0.671875 -6.407266 0.000000 
0.679688 -5.697990 0.000000 
0.679688 -6.180331 0.000000 
0.687500 -5.442584 0.000000 
0.656250 -6.833888 0.000000 
0.664062 -6.180025 0.000000 
0.664062 -6.625119 0.000000 
0.671875 -5.943701 0.000000 
0.984375 0.000000 0.000000 
0.992188 0.000000 0.000000 
0.992188 0.000000 0.000000 
1.000000 0.000000 0.000000 
0.968750 0.000000 0.000000 
0.976562 0.000000 0.000000 
0.976562 0.000000 0.000000 
0.984375 0.000000 0.000000 
0.937500 0.000000 0.000000 
0.945312 0.000000 0.000000 
0.945312 0.000000 0.000000 
0.953125 0.000000 0.000000 
0.953125 0.000000 0.000000 
0.960938 0.000000 0.000000 
0.960938 0.000000 0.000000 
0.968750 0.000000 0.000000 
0.875000 0.000000 0.000000 
0.882812 0.000000 0.000000 
0.882812 0.000000 0.000000 
0.890625 0.000000 0.000000 
0.890625 0.000000 0.000000 
0.898438 0.000000 0.000000 
0.898438 0.000000 0.000000 
0.906250 0.000000 0.000000 
0.921875 0.000000 0.000000 
0.929688 0.000000 0.000000 
0.929688 0.000000 0.000000 
0.937500 0.000000 0.000000 
0.906250 0.000000 0.000000 
0.914062 0.000000 0.000000 
0.914062 0.000000 0.000000 
0.921875 0.000000 0.000000 
0.750000 -3.671415 0.000000 
0.757812 -2.500856 0.000000 
0.757812 -3.323840 0.000000 
0.765625 -2.025449 0.000000 
0.765625 -2.969770 0.000000 
0.773438 -1.435197 0.000000 
0.773438 -2.921835 0.000000 
0.781250 0.003506 0.000000 
0.796875 0.000000 0.000000 
0.804688 0.000000 0.000000 
0.804688 0.000000 0.000000 
0.812500 0.000000 0.000000 
0.781250 -1.943215 0.000000 
0.789062 0.971607 0.000000 
0.789062 0.000000 0.000000 
0.796875 0.000000 0.000000 
0.859375 0.000000 0.000000 
0.867188 0.000000 0.000000 
0.867188 0.000000 0.000000 
0.875000 0.000000 0.000000 
0.843750 0.000000 0.000000 
0.851562 0.000000 0.000000 
0.851562 0.000000 0.000000 
0.859375 0.000000 0.000000 
0.812500 0.000000 0.000000 
0.820312 0.000000 0.000000 
0.820312 0.000000 0.000000 
0.828125 0.000000 0.000000 
0.828125 0.000000 0.000000 
0.835938 0.000000 0.000000 
0.835938 0.000000 0.000000 
0.843750 0.000000 0.000000 

CELLS 128 384
2  0 1 
2  2 3 
2  4 5 
2  6 7 
2  8 9 
2  10 11 
2  12 13 
2  14 15 
2  16 17 
2  18 19 
2  20 21 
2  22 23 
2  24 25 
2  26 27 
2  28 29 
2  30 31 
2  32 33 
2  34 35 
2  36 37 
2  38 39 
2  40 41 
2  42 43 
2  44 45 
2  46 47 
2  48 49 
2  50 51 
2  52 53 
2  54 55 
2  56 57 
2  58 59 
2  60 61 
2  62 63 
2  64 65 
2  66 67 
2  68 69 
2  70 71 
2  72 73 
2  74 75 
2  76 77 
2  78 79 
2  80 81 
2  82 83 
2  84 85 
2  86 87 
2  88 89 
2  90 91 
2  92 93 
2  94 95 
2  96 97 
2  98 99 
2  100 101 
2  102 103 
2  104 105 
2  106 107 
2  108 109 
2  110 111 
2  112 113 
2  114 115 
2  116 117 
2  118 119 
2  120 121 
2  122 123 
2  124 125 
2  126 127 
2  128 129 
2  130 131 
2  132 133 
2  134 135 
2  136 137 
2  138 139 
2  140 141 
2  142 143 
2  144 145 
2  146 147 
2  148 149 
2  150 151 
2  152 153 
2  154 155 
2  156 157 
2  158 159 
2  160 161 
2  162 163 
2  164 165 
2  166 167 
2  168 169 
2  170 171 
2  172 173 
2  174 175 
2  176 177 
2  178 179 
2  180 181 
2  182 183 
2  184 185 
2  186 187 
2  188 189 
2  190 191 
2  192 193 
2  194 195 
2  196 197 
2  198 199 
2  200 201 
2  202 203 
2  204 205 
2  206 207 
2  208 209 
2  210 211 
2  212 213 
2  214 215 
2  216 217 
2  218 219 
2  220 221 
2  222 223 
2  224 225 
2  226 227 
2  228 229 
2  230 231 
2  232 233 
2  234 235 
2  236 237 
2  238 239 
2  240 241 
2  242 243 
2  244 245 
2  246 247 
2  248 249 
2  250 251 
2  252 253 
2  254 255 

CELL_TYPES 128
3
3
3
3
3
3
3
3
3
3
3
3
3
3
3
3
3
3
3
3
3
3
3
3
3
3
3
3
3
3
3
3
3
3
3
3
3
3
3
3
3
3
3
3
3
3
3
3
3
3
3
3
3
3
3
3
3
3
3
3
3
3
3
3
3
3
3
3
3
3
3
3
3
3
3
3
3
3
3
3
3
3
3
3
3
3
3
3
3
3
3
3
3
3
3
3
3
3
3
3
3
3
3
3
3
3
3
3
3
3
3
3
3
3
3
3
3
3
3
3
3
3
3
3
3
3
3
3

POINT_DATA 256

SCALARS lambda_h float 1
LOOKUP_TABLE default
0.000000 
0.000000 
0.000000 
0.000000 
0.000000 
0.000000 
0.000000 
0.000000 
0.000000 
0.000000 
0.000000 
0.000000 
0.000000 
0.000000 
0.000000 
0.000000 
0.000000 
0.000000 
0.000000 
0.000000 
0.000000 
0.000000 
0.000000 
0.000000 
0.000000 
0.000000 
0.000000 
0.000000 
0.000000 
0.000000 
0.000000 
0.000000 
-2.025449 
-3.323840 
-2.500856 
-3.671415 
0.003506 
-2.921835 
-1.435197 
-2.969770 
0.000000 
0.000000 
0.000000 
0.000000 
0.000000 
0.000000 
0.971607 
-1.943215 
0.000000 
0.000000 
0.000000 
0.000000 
0.000000 
0.000000 
0.000000 
0.000000 
0.000000 
0.000000 
0.000000 
0.000000 
0.000000 
0.000000 
0.000000 
0.000000 
-8.814339 
-8.865782 
-8.851276 
-8.843350 
-8.720193 
-8.843391 
-8.773164 
-8.860648 
-8.393123 
-8.655258 
-8.491858 
-8.719923 
-8.579394 
-8.772916 
-8.655558 
-8.814110 
-7.224182 
-7.737969 
-7.405217 
-7.889685 
-7.576676 
-8.031235 
-7.738372 
-8.162402 
-8.162817 
-8.491499 
-8.283376 
-8.579064 
-7.890101 
-8.282973 
-8.031654 
-8.392739 
-2.920940 
-4.001807 
-3.304273 
-4.316008 
-3.660185 
-4.615919 
-3.994452 
-4.903120 
-4.900594 
-5.698837 
-5.177013 
-5.944243 
-4.310945 
-5.178802 
-4.612358 
-5.443834 
-6.834024 
-7.404875 
-7.033738 
-7.576297 
-6.407144 
-7.033515 
-6.625141 
-7.223891 
-5.442584 
-6.180331 
-5.697990 
-6.407266 
-5.943701 
-6.625119 
-6.180025 
-6.833888 
-8.843350 
-8.851276 
-8.865782 
-8.814339 
-8.860648 
-8.773164 
-8.843391 
-8.720193 
-8.719923 
-8.491858 
-8.655258 
-8.393123 
-8.814110 
-8.655558 
-8.772916 
-8.579394 
-7.889685 
-7.405217 
-7.737969 
-7.224182 
-8.162402 
-7.738372 
-8.031235 
-7.576676 
-8.579064 
-8.283376 
-8.491499 
-8.162817 
-8.392739 
-8.031654 
-8.282973 
-7.890101 
-4.316008 
-3.304273 
-4.001807 
-2.920940 
-4.903120 
-3.994452 
-4.615919 
-3.660185 
-5.944243 
-5.177013 
-5.698837 
-4.900594 
-5.443834 
-4.612358 
-5.178802 
-4.310945 
-7.576297 
-7.033738 
-7.404875 
-6.834024 
-7.223891 
-6.625141 
-7.033515 
-6.407144 
-6.407266 
-5.697990 
-6.180331 
-5.442584 
-6.833888 
-6.180025 
-6.625119 
-5.943701 
0.000000 
0.000000 
0.000000 
0.000000 
0.000000 
0.000000 
0.000000 
0.000000 
0.000000 
0.000000 
0.000000 
0.000000 
0.000000 
0.000000 
0.000000 
0.000000 
0.000000 
0.000000 
0.000000 
0.000000 
0.000000 
0.000000 
0.000000 
0.000000 
0.000000 
0.000000 
0.000000 
0.000000 
0.000000 
0.000000 
0.000000 
0.000000 
-3.671415 
-2.500856 
-3.323840 
-2.025449 
-2.969770 
-1.435197 
-2.921835 
0.003506 
0.000000 
0.000000 
0.000000 
0.000000 
-1.943215 
0.971607 
0.000000 
0.000000 
0.000000 
0.000000 
0.000000 
0.000000 
0.000000 
0.000000 
0.000000 
0.000000 
0.000000 
0.000000 
0.000000 
0.000000 
0.000000 
0.000000 
0.000000 
0.000000 

