# vtk DataFile Version 2.0
Unstructured Grid Example
ASCII
DATASET UNSTRUCTURED_GRID

POINTS 1089 float
0.000821 -0.215761 0.000000 
0.999179 -0.215761 0.000000 
1.000000 1.000000 0.000000 
0.000000 1.000000 0.000000 
0.500000 -0.099817 0.000000 
0.976459 0.345810 0.000000 
0.500000 1.000000 0.000000 
0.023541 0.345810 0.000000 
0.500000 0.347130 0.000000 
0.248807 -0.162958 0.000000 
0.500000 0.092661 0.000000 
0.239423 0.070931 0.000000 
0.751193 -0.162958 0.000000 
0.760577 0.070931 0.000000 
1.003587 0.056389 0.000000 
0.742214 0.340909 0.000000 
0.955429 0.651175 0.000000 
0.732128 0.653918 0.000000 
0.750000 1.000000 0.000000 
0.500000 0.656131 0.000000 
0.250000 1.000000 0.000000 
0.267872 0.653918 0.000000 
0.044571 0.651175 0.000000 
0.257786 0.340909 0.000000 
-0.003587 0.056389 0.000000 
0.126864 -0.203160 0.000000 
0.236082 -0.049368 0.000000 
0.113942 -0.074863 0.000000 
0.500000 -0.011405 0.000000 
0.365531 -0.022019 0.000000 
0.369048 -0.116946 0.000000 
0.372739 0.208920 0.000000 
0.367822 0.086284 0.000000 
0.500000 0.212496 0.000000 
0.630952 -0.116946 0.000000 
0.634469 -0.022019 0.000000 
0.886058 -0.074863 0.000000 
0.763918 -0.049368 0.000000 
0.873136 -0.203160 0.000000 
0.632178 0.086284 0.000000 
0.627261 0.208920 0.000000 
1.006987 -0.083726 0.000000 
0.883719 0.057192 0.000000 
0.860003 0.338529 0.000000 
0.873064 0.194402 0.000000 
0.991500 0.199593 0.000000 
0.751937 0.200586 0.000000 
0.622024 0.345447 0.000000 
0.962985 0.495717 0.000000 
0.849048 0.490648 0.000000 
0.851755 0.822998 0.000000 
0.844354 0.651852 0.000000 
0.960383 0.814143 0.000000 
0.734612 0.492162 0.000000 
0.618088 0.494849 0.000000 
0.875000 1.000000 0.000000 
0.737410 0.824436 0.000000 
0.500000 0.824981 0.000000 
0.619461 0.824810 0.000000 
0.625000 1.000000 0.000000 
0.616965 0.655479 0.000000 
0.500000 0.496030 0.000000 
0.375000 1.000000 0.000000 
0.380539 0.824810 0.000000 
0.148245 0.822998 0.000000 
0.262590 0.824436 0.000000 
0.125000 1.000000 0.000000 
0.383035 0.655479 0.000000 
0.381912 0.494849 0.000000 
0.039617 0.814143 0.000000 
0.155646 0.651852 0.000000 
0.139997 0.338529 0.000000 
0.150952 0.490648 0.000000 
0.037015 0.495717 0.000000 
0.265388 0.492162 0.000000 
0.377976 0.345447 0.000000 
0.008500 0.199593 0.000000 
0.126936 0.194402 0.000000 
0.116281 0.057192 0.000000 
-0.006987 -0.083726 0.000000 
0.248063 0.200586 0.000000 
0.063414 -0.210648 0.000000 
0.118190 -0.139658 0.000000 
0.057201 -0.146902 0.000000 
0.238899 -0.106777 0.000000 
0.178433 -0.126726 0.000000 
0.189768 -0.189451 0.000000 
0.174569 -0.001111 0.000000 
0.174462 -0.064116 0.000000 
0.236726 0.009747 0.000000 
0.500000 -0.057559 0.000000 
0.432780 -0.061009 0.000000 
0.433735 -0.104198 0.000000 
0.432785 0.036480 0.000000 
0.432439 -0.014154 0.000000 
0.500000 0.038646 0.000000 
0.307326 -0.136947 0.000000 
0.366470 -0.070949 0.000000 
0.301716 -0.086636 0.000000 
0.437538 0.277452 0.000000 
0.436178 0.211571 0.000000 
0.500000 0.278080 0.000000 
0.302963 0.079209 0.000000 
0.370126 0.145827 0.000000 
0.306224 0.140546 0.000000 
0.500000 0.150639 0.000000 
0.434841 0.149380 0.000000 
0.433654 0.090992 0.000000 
0.299874 -0.034279 0.000000 
0.366145 0.030338 0.000000 
0.300631 0.020955 0.000000 
0.566265 -0.104198 0.000000 
0.567220 -0.061009 0.000000 
0.698284 -0.086636 0.000000 
0.633530 -0.070949 0.000000 
0.692674 -0.136947 0.000000 
0.567561 -0.014154 0.000000 
0.567215 0.036480 0.000000 
0.942799 -0.146902 0.000000 
0.881810 -0.139658 0.000000 
0.936586 -0.210648 0.000000 
0.763274 0.009747 0.000000 
0.825538 -0.064116 0.000000 
0.825431 -0.001111 0.000000 
0.810232 -0.189451 0.000000 
0.821567 -0.126726 0.000000 
0.761101 -0.106777 0.000000 
0.563822 0.211571 0.000000 
0.562462 0.277452 0.000000 
0.566346 0.090992 0.000000 
0.565159 0.149380 0.000000 
0.693776 0.140546 0.000000 
0.629874 0.145827 0.000000 
0.697037 0.079209 0.000000 
0.700126 -0.034279 0.000000 
0.699369 0.020955 0.000000 
0.633855 0.030338 0.000000 
1.004114 -0.151257 0.000000 
0.946537 -0.081074 0.000000 
0.943969 0.054653 0.000000 
0.946781 -0.013799 0.000000 
1.006738 -0.014217 0.000000 
0.886378 -0.009327 0.000000 
0.822714 0.063036 0.000000 
0.918277 0.340377 0.000000 
0.925453 0.266979 0.000000 
0.984032 0.272236 0.000000 
0.807115 0.266693 0.000000 
0.866545 0.265526 0.000000 
0.801378 0.339043 0.000000 
0.998250 0.127682 0.000000 
0.932531 0.194967 0.000000 
0.938940 0.124225 0.000000 
0.624578 0.275495 0.000000 
0.561148 0.346897 0.000000 
0.756611 0.134477 0.000000 
0.690030 0.205003 0.000000 
0.682422 0.343275 0.000000 
0.686145 0.272590 0.000000 
0.747006 0.269378 0.000000 
0.879012 0.125018 0.000000 
0.812921 0.196672 0.000000 
0.818311 0.128853 0.000000 
0.969261 0.420124 0.000000 
0.911605 0.415279 0.000000 
0.901714 0.570369 0.000000 
0.905904 0.491878 0.000000 
0.958152 0.572682 0.000000 
0.854024 0.413524 0.000000 
0.796217 0.413790 0.000000 
0.918913 0.909738 0.000000 
0.906546 0.820235 0.000000 
0.971881 0.900920 0.000000 
0.788607 0.652913 0.000000 
0.846088 0.736198 0.000000 
0.790428 0.737477 0.000000 
0.955717 0.731467 0.000000 
0.900858 0.734119 0.000000 
0.899718 0.650999 0.000000 
0.619776 0.418621 0.000000 
0.559979 0.419724 0.000000 
0.737961 0.415178 0.000000 
0.679143 0.416973 0.000000 
0.675118 0.572929 0.000000 
0.676622 0.493577 0.000000 
0.732542 0.571791 0.000000 
0.845610 0.570041 0.000000 
0.789332 0.570711 0.000000 
0.792043 0.491000 0.000000 
0.937500 1.000000 0.000000 
0.861857 0.911466 0.000000 
0.743057 0.911839 0.000000 
0.802904 0.911796 0.000000 
0.812500 1.000000 0.000000 
0.795222 0.824019 0.000000 
0.733700 0.738277 0.000000 
0.500000 0.911847 0.000000 
0.561036 0.911827 0.000000 
0.562500 1.000000 0.000000 
0.558988 0.739509 0.000000 
0.559822 0.824915 0.000000 
0.500000 0.739637 0.000000 
0.687500 1.000000 0.000000 
0.621964 0.911822 0.000000 
0.682681 0.911830 0.000000 
0.559144 0.495710 0.000000 
0.500000 0.420074 0.000000 
0.674873 0.654790 0.000000 
0.617107 0.573899 0.000000 
0.500000 0.574814 0.000000 
0.558664 0.574554 0.000000 
0.558599 0.655936 0.000000 
0.678729 0.824660 0.000000 
0.617751 0.739242 0.000000 
0.676065 0.738836 0.000000 
0.437500 1.000000 0.000000 
0.438964 0.911827 0.000000 
0.317319 0.911830 0.000000 
0.378036 0.911822 0.000000 
0.312500 1.000000 0.000000 
0.440178 0.824915 0.000000 
0.441012 0.739509 0.000000 
0.081087 0.909738 0.000000 
0.138143 0.911466 0.000000 
0.062500 1.000000 0.000000 
0.266300 0.738277 0.000000 
0.204778 0.824019 0.000000 
0.209572 0.737477 0.000000 
0.187500 1.000000 0.000000 
0.197096 0.911796 0.000000 
0.256943 0.911839 0.000000 
0.440856 0.495710 0.000000 
0.440021 0.419724 0.000000 
0.441401 0.655936 0.000000 
0.441336 0.574554 0.000000 
0.324882 0.572929 0.000000 
0.382893 0.573899 0.000000 
0.325127 0.654790 0.000000 
0.321271 0.824660 0.000000 
0.323935 0.738836 0.000000 
0.382249 0.739242 0.000000 
0.028119 0.900920 0.000000 
0.093454 0.820235 0.000000 
0.100282 0.650999 0.000000 
0.099142 0.734119 0.000000 
0.044283 0.731467 0.000000 
0.153912 0.736198 0.000000 
0.211393 0.652913 0.000000 
0.081723 0.340377 0.000000 
0.088395 0.415279 0.000000 
0.030739 0.420124 0.000000 
0.203783 0.413790 0.000000 
0.145976 0.413524 0.000000 
0.198622 0.339043 0.000000 
0.041848 0.572682 0.000000 
0.094096 0.491878 0.000000 
0.098286 0.570369 0.000000 
0.380224 0.418621 0.000000 
0.438852 0.346897 0.000000 
0.267458 0.571791 0.000000 
0.323378 0.493577 0.000000 
0.317578 0.343275 0.000000 
0.320857 0.416973 0.000000 
0.262039 0.415178 0.000000 
0.154390 0.570041 0.000000 
0.207957 0.491000 0.000000 
0.210668 0.570711 0.000000 
0.015968 0.272236 0.000000 
0.074547 0.266979 0.000000 
0.061060 0.124225 0.000000 
0.067469 0.194967 0.000000 
0.001750 0.127682 0.000000 
0.133455 0.265526 0.000000 
0.192885 0.266693 0.000000 
0.053463 -0.081074 0.000000 
-0.004114 -0.151257 0.000000 
0.177286 0.063036 0.000000 
0.113622 -0.009327 0.000000 
-0.006738 -0.014217 0.000000 
0.053219 -0.013799 0.000000 
0.056031 0.054653 0.000000 
0.375422 0.275495 0.000000 
0.252994 0.269378 0.000000 
0.313855 0.272590 0.000000 
0.309970 0.205003 0.000000 
0.243389 0.134477 0.000000 
0.120988 0.125018 0.000000 
0.181689 0.128853 0.000000 
0.187079 0.196672 0.000000 
0.032003 -0.213234 0.000000 
0.060173 -0.179090 0.000000 
0.029170 -0.181593 0.000000 
0.122002 -0.171678 0.000000 
0.091150 -0.175932 0.000000 
0.095075 -0.207437 0.000000 
0.085272 -0.111310 0.000000 
0.087779 -0.143826 0.000000 
0.115521 -0.107354 0.000000 
0.242540 -0.134967 0.000000 
0.212660 -0.147752 0.000000 
0.219924 -0.178296 0.000000 
0.206129 -0.087320 0.000000 
0.208475 -0.117487 0.000000 
0.236920 -0.078261 0.000000 
0.158554 -0.197362 0.000000 
0.182816 -0.158105 0.000000 
0.152600 -0.165896 0.000000 
0.206588 0.035245 0.000000 
0.205448 0.004112 0.000000 
0.237874 0.040060 0.000000 
0.144153 -0.070085 0.000000 
0.174118 -0.032714 0.000000 
0.143651 -0.037955 0.000000 
0.236083 -0.020047 0.000000 
0.204883 -0.026636 0.000000 
0.205040 -0.057080 0.000000 
0.148397 -0.134059 0.000000 
0.175804 -0.095418 0.000000 
0.145667 -0.102106 0.000000 
0.500000 -0.079183 0.000000 
0.466526 -0.080173 0.000000 
0.466786 -0.100917 0.000000 
0.466211 -0.035759 0.000000 
0.466330 -0.058445 0.000000 
0.500000 -0.034965 0.000000 
0.401089 -0.109583 0.000000 
0.433202 -0.083063 0.000000 
0.400180 -0.087796 0.000000 
0.466548 0.064662 0.000000 
0.466355 0.038084 0.000000 
0.500000 0.065156 0.000000 
0.398865 -0.017478 0.000000 
0.432533 0.010682 0.000000 
0.398991 0.007732 0.000000 
0.500000 0.013129 0.000000 
0.466227 0.012494 0.000000 
0.466177 -0.012117 0.000000 
0.277730 -0.149250 0.000000 
0.304018 -0.111928 0.000000 
0.273048 -0.122836 0.000000 
0.367591 -0.094271 0.000000 
0.335524 -0.102362 0.000000 
0.337764 -0.126126 0.000000 
0.332885 -0.053277 0.000000 
0.333874 -0.078137 0.000000 
0.365782 -0.046890 0.000000 
0.432519 -0.038044 0.000000 
0.399017 -0.041778 0.000000 
0.399462 -0.065204 0.000000 
[...]
POINT_DATA 1089

SCALARS u_h float 2
LOOKUP_TABLE default
0.000821 -0.215761 
-0.000821 -0.215761 
0.000000 0.000000 
0.000000 0.000000 
-0.000000 -0.099817 
-0.023541 -0.154190 
0.000000 0.000000 
0.023541 -0.154190 
-0.000000 -0.152870 
-0.001193 -0.162958 
-0.000000 -0.157339 
-0.010577 -0.179069 
0.001193 -0.162958 
0.010577 -0.179069 
0.003587 -0.193611 
-0.007786 -0.159091 
-0.044571 -0.098825 
-0.017872 -0.096082 
0.000000 0.000000 
0.000000 -0.093869 
0.000000 0.000000 
0.017872 -0.096082 
0.044571 -0.098825 
0.007786 -0.159091 
-0.003587 -0.193611 
0.001864 -0.203160 
-0.013918 -0.174368 
-0.011058 -0.199863 
-0.000000 -0.136405 
-0.009469 -0.147019 
-0.005952 -0.116946 
-0.002261 -0.166080 
-0.007178 -0.163716 
-0.000000 -0.162504 
0.005952 -0.116946 
0.009469 -0.147019 
0.011058 -0.199863 
0.013918 -0.174368 
-0.001864 -0.203160 
0.007178 -0.163716 
0.002261 -0.166080 
0.006987 -0.208726 
0.008719 -0.192808 
-0.014997 -0.161471 
-0.001936 -0.180598 
-0.008500 -0.175407 
0.001937 -0.174414 
-0.002976 -0.154553 
-0.037015 -0.129283 
-0.025952 -0.134352 
-0.023245 -0.052002 
-0.030646 -0.098148 
-0.039617 -0.060857 
-0.015388 -0.132838 
-0.006912 -0.130151 
0.000000 0.000000 
-0.012590 -0.050564 
0.000000 -0.050019 
-0.005539 -0.050190 
0.000000 0.000000 
-0.008035 -0.094521 
0.000000 -0.128970 
0.000000 0.000000 
0.005539 -0.050190 
0.023245 -0.052002 
0.012590 -0.050564 
0.000000 0.000000 
0.008035 -0.094521 
0.006912 -0.130151 
0.039617 -0.060857 
0.030646 -0.098148 
0.014997 -0.161471 
0.025952 -0.134352 
0.037015 -0.129283 
0.015388 -0.132838 
0.002976 -0.154553 
0.008500 -0.175407 
0.001936 -0.180598 
-0.008719 -0.192808 
-0.006987 -0.208726 
-0.001937 -0.174414 
0.000914 -0.210648 
-0.006810 -0.202158 
-0.005299 -0.209402 
-0.011101 -0.169277 
-0.009067 -0.189226 
0.002268 -0.189451 
-0.012931 -0.188611 
-0.013038 -0.189116 
-0.013274 -0.177753 
-0.000000 -0.120059 
-0.004720 -0.123509 
-0.003765 -0.104198 
-0.004715 -0.151020 
-0.005061 -0.139154 
-0.000000 -0.148854 
-0.005174 -0.136947 
-0.008530 -0.133449 
-0.010784 -0.149136 
0.000038 -0.160048 
-0.001322 -0.163429 
-0.000000 -0.159420 
-0.009537 -0.170791 
-0.004874 -0.166673 
-0.006276 -0.171954 
-0.000000 -0.161861 
-0.002659 -0.163120 
-0.003846 -0.159008 
-0.012626 -0.159279 
-0.008855 -0.157162 
-0.011869 -0.166545 
0.003765 -0.104198 
0.004720 -0.123509 
0.010784 -0.149136 
0.008530 -0.133449 
0.005174 -0.136947 
0.005061 -0.139154 
0.004715 -0.151020 
0.005299 -0.209402 
0.006810 -0.202158 
-0.000914 -0.210648 
0.013274 -0.177753 
0.013038 -0.189116 
0.012931 -0.188611 
-0.002268 -0.189451 
0.009067 -0.189226 
0.011101 -0.169277 
0.001322 -0.163429 
-0.000038 -0.160048 
0.003846 -0.159008 
0.002659 -0.163120 
0.006276 -0.171954 
0.004874 -0.166673 
0.009537 -0.170791 
0.012626 -0.159279 
0.011869 -0.166545 
0.008855 -0.157162 
0.004114 -0.213757 
0.009037 -0.206074 
0.006469 -0.195347 
0.009281 -0.201299 
0.006738 -0.201717 
0.011378 -0.196827 
0.010214 -0.186964 
-0.019223 -0.159623 
-0.012047 -0.170521 
-0.015968 -0.165264 
-0.005385 -0.170807 
-0.008455 -0.171974 
-0.011122 -0.160957 
-0.001750 -0.184818 
-0.004969 -0.180033 
0.001440 -0.188275 
-0.000422 -0.162005 
-0.001352 -0.153103 
0.006611 -0.178023 
0.002530 -0.169997 
-0.005078 -0.156725 
-0.001355 -0.164910 
-0.002994 -0.168122 
0.004012 -0.187482 
0.000421 -0.178328 
0.005811 -0.183647 
-0.030739 -0.142376 
-0.025895 -0.147221 
-0.035786 -0.117131 
-0.031596 -0.133122 
-0.041848 -0.114818 
-0.020976 -0.148976 
-0.016283 -0.148710 
-0.018587 -0.027762 
-0.030954 -0.054765 
-0.028119 -0.036580 
-0.023893 -0.097087 
-0.028912 -0.076302 
-0.022072 -0.075023 
-0.044283 -0.081033 
-0.036642 -0.078381 
-0.037782 -0.099001 
-0.005224 -0.143879 
-0.002521 -0.142776 
-0.012039 -0.147322 
-0.008357 -0.145527 
-0.012382 -0.114571 
-0.010878 -0.131423 
-0.017458 -0.115709 
-0.029390 -0.117459 
-0.023168 -0.116789 
-0.020457 -0.134000 
0.000000 0.000000 
-0.013143 -0.026034 
-0.006943 -0.025661 
-0.009596 -0.025704 
0.000000 0.000000 
-0.017278 -0.050981 
-0.016300 -0.074223 
0.000000 -0.025653 
-0.001464 -0.025673 
0.000000 0.000000 
-0.003512 -0.072991 
-0.002678 -0.050085 
0.000000 -0.072863 
0.000000 0.000000 
-0.003036 -0.025678 
-0.004819 -0.025670 
-0.003356 -0.129290 
0.000000 -0.142426 
-0.012627 -0.095210 
-0.007893 -0.113601 
0.000000 -0.112686 
-0.003836 -0.112946 
-0.003901 -0.094064 
-0.008771 -0.050340 
-0.007249 -0.073258 
-0.011435 -0.073664 
0.000000 0.000000 
0.001464 -0.025673 
0.004819 -0.025670 
0.003036 -0.025678 
0.000000 0.000000 
0.002678 -0.050085 
0.003512 -0.072991 
0.018587 -0.027762 
0.013143 -0.026034 
0.000000 0.000000 
0.016300 -0.074223 
0.017278 -0.050981 
0.022072 -0.075023 
0.000000 0.000000 
0.009596 -0.025704 
0.006943 -0.025661 
0.003356 -0.129290 
0.002521 -0.142776 
0.003901 -0.094064 
0.003836 -0.112946 
0.012382 -0.114571 
0.007893 -0.113601 
0.012627 -0.095210 
0.008771 -0.050340 
0.011435 -0.073664 
0.007249 -0.073258 
0.028119 -0.036580 
0.030954 -0.054765 
0.037782 -0.099001 
0.036642 -0.078381 
0.044283 -0.081033 
0.028912 -0.076302 
0.023893 -0.097087 
0.019223 -0.159623 
0.025895 -0.147221 
0.030739 -0.142376 
0.016283 -0.148710 
0.020976 -0.148976 
0.011122 -0.160957 
0.041848 -0.114818 
0.031596 -0.133122 
0.035786 -0.117131 
0.005224 -0.143879 
0.001352 -0.153103 
0.017458 -0.115709 
0.010878 -0.131423 
0.005078 -0.156725 
0.008357 -0.145527 
0.012039 -0.147322 
0.029390 -0.117459 
0.020457 -0.134000 
0.023168 -0.116789 
0.015968 -0.165264 
0.012047 -0.170521 
-0.001440 -0.188275 
0.004969 -0.180033 
0.001750 -0.184818 
0.008455 -0.171974 
0.005385 -0.170807 
-0.009037 -0.206074 
-0.004114 -0.213757 
-0.010214 -0.186964 
-0.011378 -0.196827 
-0.006738 -0.201717 
-0.009281 -0.201299 
-0.006469 -0.195347 
0.000422 -0.162005 
0.002994 -0.168122 
0.001355 -0.164910 
-0.002530 -0.169997 
-0.006611 -0.178023 
-0.004012 -0.187482 
-0.005811 -0.183647 
-0.000421 -0.178328 
0.000753 -0.213234 
-0.002327 -0.210340 
-0.002080 -0.212843 
-0.002998 -0.202928 
-0.002600 -0.207182 
0.001325 -0.207437 
-0.008478 -0.205060 
-0.005971 -0.206326 
-0.009479 -0.201104 
-0.007460 -0.166217 
-0.006090 -0.179002 
0.001174 -0.178296 
-0.012621 -0.181070 
-0.010275 -0.179987 
-0.013080 -0.172011 
0.002304 -0.197362 
-0.004684 -0.189355 
-0.003650 -0.197146 
-0.012162 -0.183505 
-0.013302 -0.183388 
-0.012126 -0.178690 
-0.012097 -0.195085 
-0.013382 -0.188964 
-0.012599 -0.194205 
-0.013917 -0.176297 
-0.013867 -0.182886 
-0.013710 -0.182080 
-0.007853 -0.196559 
-0.011696 -0.189168 
-0.010583 -0.195856 
-0.000000 -0.110433 
-0.002224 -0.111423 
-0.001964 -0.100917 
-0.002539 -0.129509 
-0.002420 -0.120945 
-0.000000 -0.128715 
-0.005161 -0.109583 
-0.004298 -0.114313 
-0.006070 -0.119046 
-0.002202 -0.154088 
-0.002395 -0.149416 
-0.000000 -0.153594 
-0.007385 -0.142478 
-0.004967 -0.145568 
-0.007259 -0.148518 
-0.000000 -0.143121 
-0.002523 -0.143756 
-0.002573 -0.137117 
-0.003520 -0.149250 
-0.008482 -0.143178 
-0.008202 -0.154086 
-0.007409 -0.125521 
-0.008226 -0.133612 
-0.005986 -0.126126 
-0.010865 -0.147027 
-0.009876 -0.140637 
-0.009218 -0.140640 
-0.004981 -0.131794 
-0.007233 -0.135528 
-0.006788 -0.127704 
0.000312 -0.156618 
-0.000012 -0.159557 
-0.000000 -0.156554 
-0.001859 -0.164560 
-0.000639 -0.162192 
-0.000839 -0.163162 
-0.000000 -0.161415 
-0.000347 -0.161603 
-0.000688 -0.162735 
-0.010235 -0.174871 
-0.007992 -0.171761 
-0.008512 -0.175267 
-0.006082 -0.165642 
-0.007171 -0.168504 
-0.008505 -0.167018 
-0.004125 -0.168953 
-0.005696 -0.169149 
-0.003590 -0.166817 
-0.000000 -0.160092 
-0.001672 -0.160466 
-0.001957 -0.157770 
-0.001029 -0.162935 
-0.001360 -0.162183 
-0.000000 -0.162659 
-0.005606 -0.161013 
-0.003281 -0.161545 
-0.004769 -0.163292 
-0.002869 -0.165055 
-0.003847 -0.164636 
-0.002001 -0.163743 
-0.011222 -0.158782 
-0.011241 -0.152671 
-0.012113 -0.154547 
-0.012884 -0.162988 
-0.013544 -0.166619 
-0.004333 -0.155501 
-0.008119 -0.160890 
-0.006327 -0.157792 
-0.006891 -0.153626 
-0.009326 -0.152535 
-0.011689 -0.173789 
-0.013456 -0.169643 
-0.012795 -0.172040 
-0.010853 -0.169050 
-0.009647 -0.164690 
-0.011097 -0.157509 
-0.010536 -0.161519 
-0.012497 -0.163285 
0.001964 -0.100917 
0.002224 -0.111423 
0.006070 -0.119046 
0.004298 -0.114313 
0.005161 -0.109583 
0.002420 -0.120945 
0.002539 -0.129509 
0.008202 -0.154086 
0.008482 -0.143178 
0.003520 -0.149250 
0.009218 -0.140640 
0.009876 -0.140637 
0.010865 -0.147027 
0.005986 -0.126126 
0.008226 -0.133612 
0.007409 -0.125521 
0.002395 -0.149416 
0.002202 -0.154088 
0.002573 -0.137117 
0.002523 -0.143756 
0.007259 -0.148518 
0.004967 -0.145568 
0.007385 -0.142478 
0.006788 -0.127704 
0.007233 -0.135528 
0.004981 -0.131794 
0.002080 -0.212843 
0.002327 -0.210340 
-0.000753 -0.213234 
0.009479 -0.201104 
0.005971 -0.206326 
0.008478 -0.205060 
-0.001325 -0.207437 
0.002600 -0.207182 
0.002998 -0.202928 
0.012126 -0.178690 
0.013302 -0.183388 
0.012162 -0.183505 
0.013710 -0.182080 
0.013867 -0.182886 
0.013917 -0.176297 
0.012599 -0.194205 
0.013382 -0.188964 
0.012097 -0.195085 
-0.001174 -0.178296 
0.006090 -0.179002 
0.007460 -0.166217 
0.003650 -0.197146 
0.004684 -0.189355 
-0.002304 -0.197362 
0.013080 -0.172011 
0.010275 -0.179987 
0.012621 -0.181070 
0.010583 -0.195856 
0.011696 -0.189168 
0.007853 -0.196559 
0.000012 -0.159557 
-0.000312 -0.156618 
0.000688 -0.162735 
0.000347 -0.161603 
0.000839 -0.163162 
0.000639 -0.162192 
0.001859 -0.164560 
0.001957 -0.157770 
0.001672 -0.160466 
0.004769 -0.163292 
0.003281 -0.161545 
0.005606 -0.161013 
0.001360 -0.162183 
0.001029 -0.162935 
0.008512 -0.175267 
0.007992 -0.171761 
0.010235 -0.174871 
0.003590 -0.166817 
0.005696 -0.169149 
0.004125 -0.168953 
0.008505 -0.167018 
0.007171 -0.168504 
0.006082 -0.165642 
0.002001 -0.163743 
0.003847 -0.164636 
0.002869 -0.165055 
0.011222 -0.158782 
0.013544 -0.166619 
0.012884 -0.162988 
0.012113 -0.154547 
0.011241 -0.152671 
0.011689 -0.173789 
0.009647 -0.164690 
0.010853 -0.169050 
0.012795 -0.172040 
0.013456 -0.169643 
0.004333 -0.155501 
0.009326 -0.152535 
0.006891 -0.153626 
0.006327 -0.157792 
0.008119 -0.160890 
0.012497 -0.163285 
0.010536 -0.161519 
0.011097 -0.157509 
0.001775 -0.215181 
0.004721 -0.211752 
0.008059 -0.207772 
0.006780 -0.210028 
0.005914 -0.211560 
0.007595 -0.207949 
0.010026 -0.203487 
0.005114 -0.195079 
0.006932 -0.198686 
0.005485 -0.197766 
0.009349 -0.197196 
0.008207 -0.198463 
0.007672 -0.194552 
0.007258 -0.205402 
0.008090 -0.202033 
0.008489 -0.205081 
0.011834 -0.187969 
0.010561 -0.183174 
0.011651 -0.198447 
0.012256 -0.193149 
0.009582 -0.190233 
0.011209 -0.191846 
0.010361 -0.194962 
0.009586 -0.203844 
0.010374 -0.199556 
0.010633 -0.201650 
-0.021390 -0.157450 
-0.017700 -0.163093 
-0.019781 -0.159858 
-0.013662 -0.166493 
-0.015653 -0.165253 
-0.017081 -0.160912 
-0.012183 -0.170438 
-0.013979 -0.168443 
-0.010284 -0.173510 
-0.006777 -0.165184 
-0.008290 -0.166179 
-0.009379 -0.160136 
-0.005161 -0.176513 
-0.006843 -0.171647 
-0.003725 -0.175950 
-0.013002 -0.161443 
-0.009955 -0.166816 
-0.011754 -0.166966 
0.001142 -0.189291 
-0.000083 -0.187158 
0.002740 -0.191233 
-0.006684 -0.178308 
-0.003255 -0.182853 
-0.004995 -0.180194 
-0.000166 -0.184719 
-0.001640 -0.184306 
-0.003379 -0.180745 
-0.010198 -0.171648 
-0.006748 -0.176393 
-0.008463 -0.175443 
-0.000702 -0.157010 
-0.000656 -0.152784 
0.000916 -0.164472 
-0.000174 -0.160876 
-0.002116 -0.153711 
-0.001165 -0.157719 
-0.001727 -0.158693 
0.008714 -0.178856 
0.006586 -0.174962 
0.002349 -0.172201 
0.004515 -0.173943 
0.004333 -0.176548 
0.004441 -0.171367 
0.002494 -0.167921 
-0.006353 -0.157923 
-0.004257 -0.162589 
-0.005431 -0.163951 
-0.002417 -0.159876 
-0.003255 -0.161201 
-0.003957 -0.155578 
-0.000522 -0.171608 
-0.002080 -0.166525 
0.000136 -0.169729 
0.000840 -0.166059 
0.000586 -0.167843 
-0.000808 -0.163374 
0.004177 -0.191952 
0.001148 -0.184247 
0.002810 -0.188333 
0.005456 -0.191604 
0.006568 -0.190326 
-0.004097 -0.169589 
0.001292 -0.176503 
-0.001390 -0.173359 
-0.002462 -0.174852 
-0.000662 -0.179742 
0.008596 -0.182344 
0.007487 -0.188255 
0.008176 -0.185539 
0.006349 -0.180975 
0.003892 -0.179036 
0.002279 -0.183041 
0.003201 -0.181252 
0.005022 -0.185869 
-0.027230 -0.148441 
-0.024960 -0.151523 
-0.031500 -0.138623 
-0.028347 -0.145255 
-0.034021 -0.135994 
-0.022650 -0.153624 
-0.020345 -0.154894 
-0.040403 -0.107969 
-0.038893 -0.116305 
-0.043522 -0.107026 
-0.028778 -0.133993 
-0.033918 -0.125377 
-0.030917 -0.126007 
-0.039650 -0.122230 
-0.036848 -0.124172 
-0.034357 -0.131603 
-0.013798 -0.155138 
-0.011830 -0.154446 
-0.018080 -0.155482 
-0.015889 -0.155522 
-0.021031 -0.141972 
-0.018585 -0.149035 
-0.023621 -0.141939 
-0.028898 -0.140395 
-0.026257 -0.141455 
-0.023425 -0.148415 
-0.012278 -0.015059 
-0.022877 -0.030664 
-0.018047 -0.021207 
-0.026872 -0.053056 
-0.025756 -0.041670 
-0.021905 -0.040000 
-0.034960 -0.049442 
-0.030268 -0.044673 
-0.035334 -0.057344 
-0.020783 -0.096571 
-0.023334 -0.086334 
-0.020228 -0.085841 
-0.030211 -0.087545 
-0.026668 -0.086899 
-0.027191 -0.097619 
-0.023174 -0.063710 
-0.025356 -0.075581 
-0.026626 -0.064435 
-0.044873 -0.090179 
-0.041383 -0.089729 
-0.041275 -0.099128 
-0.038644 -0.068955 
-0.040572 -0.079703 
-0.042612 -0.071306 
-0.034204 -0.098634 
-0.037678 -0.089030 
-0.033911 -0.088269 
-0.030418 -0.065491 
-0.032703 -0.077230 
-0.034482 -0.066984 
-0.001980 -0.148350 
-0.000997 -0.148067 
-0.004161 -0.149609 
-0.003025 -0.148877 
-0.004524 -0.136823 
-0.003831 -0.143240 
-0.006147 -0.137384 
-0.010003 -0.153548 
-0.008324 -0.152537 
-0.011718 -0.139632 
-0.010126 -0.146437 
-0.013850 -0.140416 
-0.006795 -0.151497 
-0.005412 -0.150500 
-0.015200 -0.105675 
-0.014841 -0.115131 
-0.017895 -0.106195 
-0.008833 -0.130749 
-0.011773 -0.123327 
-0.009573 -0.122735 
-0.016607 -0.124598 
-0.014115 -0.123960 
-0.013061 -0.132134 
-0.006727 -0.144657 
-0.009729 -0.138830 
-0.007876 -0.138065 
-0.037109 -0.108352 
-0.030337 -0.108115 
-0.033726 -0.108356 
-0.032595 -0.117470 
-0.027900 -0.126198 
-0.020768 -0.106726 
-0.019248 -0.125198 
-0.020237 -0.116275 
-0.023814 -0.107245 
-0.027015 -0.107723 
-0.014095 -0.148107 
-0.023165 -0.134320 
-0.018522 -0.141666 
-0.016122 -0.141119 
-0.017857 -0.133481 
-0.026231 -0.117205 
-0.022027 -0.125708 
-0.024922 -0.126068 
0.000000 0.000000 
-0.009650 -0.013610 
-0.006762 -0.012940 
-0.007990 -0.013122 
0.000000 0.000000 
-0.015509 -0.026559 
-0.018724 -0.039132 
-0.003579 -0.012905 
-0.004219 -0.012884 
0.000000 0.000000 
-0.011755 -0.038309 
-0.008187 -0.025669 
-0.009979 -0.038233 
0.000000 0.000000 
-0.004942 -0.012871 
-0.005775 -0.012880 
-0.019060 -0.074582 
-0.017350 -0.085408 
-0.020069 -0.051368 
-0.020059 -0.063211 
-0.014710 -0.062585 
-0.017251 -0.062854 
-0.014803 -0.050733 
-0.011220 -0.025802 
-0.013759 -0.038441 
-0.016051 -0.038681 
0.000000 -0.012977 
-0.000372 -0.012983 
0.000000 0.000000 
-0.001046 -0.038029 
-0.000725 -0.025666 
0.000000 -0.038009 
0.000000 0.000000 
-0.000753 -0.012983 
-0.001148 -0.012980 
-0.001868 -0.083673 
-0.001742 -0.072910 
0.000000 -0.083617 
-0.004074 -0.050132 
-0.003148 -0.061745 
-0.004788 -0.061825 
0.000000 -0.061649 
-0.001561 -0.061687 
-0.001327 -0.050048 
0.000000 0.000000 
-0.002484 -0.012945 
-0.003005 -0.012926 
-0.001564 -0.012972 
-0.002006 -0.012961 
0.000000 0.000000 
-0.005606 -0.038120 
-0.003894 -0.025675 
-0.004373 -0.038094 
-0.002112 -0.038050 
-0.003215 -0.038071 
-0.002230 -0.025677 
-0.001258 -0.142504 
0.000000 -0.148028 
-0.005094 -0.129658 
-0.002979 -0.136409 
0.000000 -0.136067 
-0.001482 -0.136156 
-0.001667 -0.129059 
-0.015158 -0.095626 
-0.012675 -0.105186 
-0.008076 -0.104356 
-0.010307 -0.104742 
-0.010261 -0.094839 
-0.010072 -0.114054 
-0.007499 -0.122212 
0.000000 -0.103573 
-0.001948 -0.103645 
-0.001936 -0.093933 
-0.001810 -0.121250 
-0.001905 -0.112765 
0.000000 -0.121164 
-0.005924 -0.094261 
-0.003924 -0.103801 
-0.005957 -0.104040 
-0.005531 -0.121780 
-0.005823 -0.113227 
-0.003644 -0.121456 
-0.005829 -0.025664 
-0.007097 -0.050259 
-0.006935 -0.038149 
-0.008383 -0.038184 
-0.010592 -0.050439 
-0.003764 -0.083779 
-0.007761 -0.084139 
-0.005719 -0.083935 
-0.005339 -0.073107 
-0.006505 -0.061926 
-0.014687 -0.085025 
-0.012399 -0.062372 
-0.013769 -0.073921 
-0.012217 -0.084686 
-0.009917 -0.084390 
-0.008327 -0.062049 
-0.009272 -0.073444 
-0.010282 -0.062197 
0.000000 0.000000 
0.000372 -0.012983 
0.001148 -0.012980 
0.000753 -0.012983 
0.000000 0.000000 
0.000725 -0.025666 
0.001046 -0.038029 
0.003005 -0.012926 
0.002484 -0.012945 
0.000000 0.000000 
0.004373 -0.038094 
0.003894 -0.025675 
0.005606 -0.038120 
0.000000 0.000000 
0.002006 -0.012961 
0.001564 -0.012972 
0.001742 -0.072910 
0.001868 -0.083673 
0.001327 -0.050048 
0.001561 -0.061687 
0.004788 -0.061825 
0.003148 -0.061745 
0.004074 -0.050132 
0.002230 -0.025677 
0.003215 -0.038071 
0.002112 -0.038050 
0.012278 -0.015059 
0.009650 -0.013610 
0.000000 0.000000 
0.018724 -0.039132 
0.015509 -0.026559 
0.021905 -0.040000 
0.000000 0.000000 
0.007990 -0.013122 
0.006762 -0.012940 
0.017350 -0.085408 
0.019060 -0.074582 
0.020228 -0.085841 
0.014803 -0.050733 
0.017251 -0.062854 
0.014710 -0.062585 
0.023174 -0.063710 
0.020059 -0.063211 
0.020069 -0.051368 
0.000000 0.000000 
0.004219 -0.012884 
0.003579 -0.012905 
0.005775 -0.012880 
0.004942 -0.012871 
0.000000 0.000000 
0.009979 -0.038233 
0.008187 -0.025669 
0.011755 -0.038309 
0.016051 -0.038681 
0.013759 -0.038441 
0.011220 -0.025802 
0.001258 -0.142504 
0.000997 -0.148067 
0.001667 -0.129059 
0.001482 -0.136156 
0.004524 -0.136823 
0.002979 -0.136409 
0.005094 -0.129658 
0.001936 -0.093933 
0.001948 -0.103645 
0.005957 -0.104040 
0.003924 -0.103801 
0.005924 -0.094261 
0.001905 -0.112765 
0.001810 -0.121250 
0.015200 -0.105675 
0.012675 -0.105186 
0.015158 -0.095626 
0.007499 -0.122212 
0.010072 -0.114054 
0.009573 -0.122735 
0.010261 -0.094839 
0.010307 -0.104742 
0.008076 -0.104356 
0.003644 -0.121456 
0.005823 -0.113227 
0.005531 -0.121780 
0.005829 -0.025664 
0.010592 -0.050439 
0.008383 -0.038184 
0.006935 -0.038149 
0.007097 -0.050259 
0.014687 -0.085025 
0.009917 -0.084390 
0.012217 -0.084686 
0.013769 -0.073921 
0.012399 -0.062372 
0.003764 -0.083779 
0.006505 -0.061926 
0.005339 -0.073107 
0.005719 -0.083935 
0.007761 -0.084139 
0.010282 -0.062197 
0.009272 -0.073444 
0.008327 -0.062049 
0.018047 -0.021207 
0.022877 -0.030664 
0.035334 -0.057344 
0.030268 -0.044673 
0.034960 -0.049442 
0.025756 -0.041670 
0.026872 -0.053056 
0.041275 -0.099128 
0.041383 -0.089729 
0.044873 -0.090179 
0.033911 -0.088269 
0.037678 -0.089030 
0.034204 -0.098634 
0.042612 -0.071306 
0.040572 -0.079703 
0.038644 -0.068955 
0.023334 -0.086334 
0.020783 -0.096571 
0.026626 -0.064435 
0.025356 -0.075581 
0.027191 -0.097619 
0.026668 -0.086899 
0.030211 -0.087545 
0.034482 -0.066984 
0.032703 -0.077230 
0.030418 -0.065491 
0.021390 -0.157450 
0.024960 -0.151523 
0.027230 -0.148441 
0.020345 -0.154894 
0.022650 -0.153624 
0.017081 -0.160912 
0.034021 -0.135994 
0.028347 -0.145255 
0.031500 -0.138623 
0.011830 -0.154446 
0.013798 -0.155138 
0.009379 -0.160136 
0.023621 -0.141939 
0.018585 -0.149035 
0.021031 -0.141972 
0.013002 -0.161443 
0.015889 -0.155522 
0.018080 -0.155482 
0.043522 -0.107026 
0.038893 -0.116305 
0.040403 -0.107969 
0.034357 -0.131603 
0.036848 -0.124172 
0.039650 -0.122230 
0.030917 -0.126007 
0.033918 -0.125377 
0.028778 -0.133993 
0.023425 -0.148415 
0.026257 -0.141455 
0.028898 -0.140395 
0.001980 -0.148350 
0.000656 -0.152784 
0.006147 -0.137384 
0.003831 -0.143240 
0.002116 -0.153711 
0.003025 -0.148877 
0.004161 -0.149609 
0.017895 -0.106195 
0.014841 -0.115131 
0.013061 -0.132134 
0.014115 -0.123960 
0.016607 -0.124598 
0.011773 -0.123327 
0.008833 -0.130749 
0.006353 -0.157923 
0.008324 -0.152537 
0.010003 -0.153548 
0.005412 -0.150500 
0.006795 -0.151497 
0.003957 -0.155578 
0.013850 -0.140416 