# vtk DataFile Version 2.0
Unstructured Grid Example
ASCII
DATASET UNSTRUCTURED_GRID

POINTS 81 float
-0.002404 -0.208734 0.000000 
1.002404 -0.208734 0.000000 
1.000000 1.000000 0.000000 
0.000000 1.000000 0.000000 
0.500000 -0.097220 0.000000 
0.976156 0.347749 0.000000 
0.500000 1.000000 0.000000 
0.023844 0.347749 0.000000 
0.500000 0.347435 0.000000 
0.244724 -0.162558 0.000000 
0.500000 0.096662 0.000000 
0.240510 0.072727 0.000000 
0.755276 -0.162558 0.000000 
0.759490 0.072727 0.000000 
1.002240 0.059574 0.000000 
0.741935 0.343739 0.000000 
0.958084 0.651581 0.000000 
0.733321 0.655775 0.000000 
0.750000 1.000000 0.000000 
0.500000 0.658212 0.000000 
0.250000 1.000000 0.000000 
0.266679 0.655775 0.000000 
0.041916 0.651581 0.000000 
0.258065 0.343739 0.000000 
-0.002240 0.059574 0.000000 
0.121941 -0.197468 0.000000 
0.237164 -0.048476 0.000000 
0.113904 -0.071322 0.000000 
0.500000 -0.006785 0.000000 
0.365499 -0.019297 0.000000 
0.370779 -0.113966 0.000000 
0.372388 0.211919 0.000000 
0.367761 0.089420 0.000000 
0.500000 0.215044 0.000000 
0.629221 -0.113966 0.000000 
0.634501 -0.019297 0.000000 
0.886096 -0.071322 0.000000 
0.762836 -0.048476 0.000000 
0.878059 -0.197468 0.000000 
0.632239 0.089420 0.000000 
0.627612 0.211919 0.000000 
1.008025 -0.077655 0.000000 
0.882136 0.059617 0.000000 
0.859315 0.341133 0.000000 
0.871832 0.196783 0.000000 
0.990038 0.201376 0.000000 
0.751440 0.203086 0.000000 
0.622240 0.348101 0.000000 
0.964382 0.496181 0.000000 
0.849827 0.492756 0.000000 
0.854593 0.824457 0.000000 
0.846378 0.653463 0.000000 
0.963621 0.816416 0.000000 
0.734975 0.494634 0.000000 
0.617961 0.497070 0.000000 
0.875000 1.000000 0.000000 
0.738525 0.825368 0.000000 
0.500000 0.826282 0.000000 
0.619813 0.825726 0.000000 
0.625000 1.000000 0.000000 
0.617315 0.657238 0.000000 
0.500000 0.497903 0.000000 
0.375000 1.000000 0.000000 
0.380187 0.825726 0.000000 
0.145407 0.824457 0.000000 
0.261475 0.825368 0.000000 
0.125000 1.000000 0.000000 
0.382685 0.657238 0.000000 
0.382039 0.497070 0.000000 
0.036379 0.816416 0.000000 
0.153622 0.653463 0.000000 
0.140685 0.341133 0.000000 
0.150173 0.492756 0.000000 
0.035618 0.496181 0.000000 
0.265025 0.494634 0.000000 
0.377760 0.348101 0.000000 
0.009962 0.201376 0.000000 
0.128168 0.196783 0.000000 
0.117864 0.059617 0.000000 
-0.008025 -0.077655 0.000000 
0.248560 0.203086 0.000000 

CELLS 128 512
3  0 25 27 
3  9 26 25 
3  11 27 26 
3  25 26 27 
3  4 28 30 
3  10 29 28 
3  9 30 29 
3  28 29 30 
3  8 31 33 
3  11 32 31 
3  10 33 32 
3  31 32 33 
3  9 29 26 
3  10 32 29 
3  11 26 32 
3  29 32 26 
3  4 34 28 
3  12 35 34 
3  10 28 35 
3  34 35 28 
3  1 36 38 
3  13 37 36 
3  12 38 37 
3  36 37 38 
3  8 33 40 
3  10 39 33 
3  13 40 39 
3  33 39 40 
3  12 37 35 
3  13 39 37 
3  10 35 39 
3  37 39 35 
3  1 41 36 
3  14 42 41 
3  13 36 42 
3  41 42 36 
3  5 43 45 
3  15 44 43 
3  14 45 44 
3  43 44 45 
3  8 40 47 
3  13 46 40 
3  15 47 46 
3  40 46 47 
3  14 44 42 
3  15 46 44 
3  13 42 46 
3  44 46 42 
3  5 48 43 
3  16 49 48 
3  15 43 49 
3  48 49 43 
3  2 50 52 
3  17 51 50 
3  16 52 51 
3  50 51 52 
3  8 47 54 
3  15 53 47 
3  17 54 53 
3  47 53 54 
3  16 51 49 
3  17 53 51 
3  15 49 53 
3  51 53 49 
3  2 55 50 
3  18 56 55 
3  17 50 56 
3  55 56 50 
3  6 57 59 
3  19 58 57 
3  18 59 58 
3  57 58 59 
3  8 54 61 
3  17 60 54 
3  19 61 60 
3  54 60 61 
3  18 58 56 
3  19 60 58 
3  17 56 60 
3  58 60 56 
3  6 62 57 
3  20 63 62 
3  19 57 63 
3  62 63 57 
3  3 64 66 
3  21 65 64 
3  20 66 65 
3  64 65 66 
3  8 61 68 
3  19 67 61 
3  21 68 67 
3  61 67 68 
3  20 65 63 
3  21 67 65 
3  19 63 67 
3  65 67 63 
3  3 69 64 
3  22 70 69 
3  21 64 70 
3  69 70 64 
3  7 71 73 
3  23 72 71 
3  22 73 72 
3  71 72 73 
3  8 68 75 
3  21 74 68 
3  23 75 74 
3  68 74 75 
3  22 72 70 
3  23 74 72 
3  21 70 74 
3  72 74 70 
3  7 76 71 
3  24 77 76 
3  23 71 77 
3  76 77 71 
3  0 27 79 
3  11 78 27 
3  24 79 78 
3  27 78 79 
3  8 75 31 
3  23 80 75 
3  11 31 80 
3  75 80 31 
3  24 78 77 
3  11 80 78 
3  23 77 80 
3  78 80 77 

CELL_TYPES 128
5
5
5
5
5
5
5
5
5
5
5
5
5
5
5
5
5
5
5
5
5
5
5
5
5
5
5
5
5
5
5
5
5
5
5
5
5
5
5
5
5
5
5
5
5
5
5
5
5
5
5
5
5
5
5
5
5
5
5
5
5
5
5
5
5
5
5
5
5
5
5
5
5
5
5
5
5
5
5
5
5
5
5
5
5
5
5
5
5
5
5
5
5
5
5
5
5
5
5
5
5
5
5
5
5
5
5
5
5
5
5
5
5
5
5
5
5
5
5
5
5
5
5
5
5
5
5
5

POINT_DATA 81

SCALARS u_h float 2
LOOKUP_TABLE default
-0.002404 -0.208734 
0.002404 -0.208734 
0.000000 0.000000 
0.000000 0.000000 
-0.000000 -0.097220 
-0.023844 -0.152251 
0.000000 0.000000 
0.023844 -0.152251 
0.000000 -0.152565 
-0.005276 -0.162558 
0.000000 -0.153338 
-0.009490 -0.177273 
0.005276 -0.162558 
0.009490 -0.177273 
0.002240 -0.190426 
-0.008065 -0.156261 
-0.041916 -0.098419 
-0.016679 -0.094225 
0.000000 0.000000 
0.000000 -0.091788 
0.000000 0.000000 
0.016679 -0.094225 
0.041916 -0.098419 
0.008065 -0.156261 
-0.002240 -0.190426 
-0.003059 -0.197468 
-0.012836 -0.173476 
-0.011096 -0.196322 
-0.000000 -0.131785 
-0.009501 -0.144297 
-0.004221 -0.113966 
-0.002612 -0.163081 
-0.007239 -0.160580 
0.000000 -0.159956 
0.004221 -0.113966 
0.009501 -0.144297 
0.011096 -0.196322 
0.012836 -0.173476 
0.003059 -0.197468 
0.007239 -0.160580 
0.002612 -0.163081 
0.008025 -0.202655 
0.007136 -0.190383 
-0.015685 -0.158867 
-0.003168 -0.178217 
-0.009962 -0.173624 
0.001440 -0.171914 
-0.002760 -0.151899 
-0.035618 -0.128819 
-0.025173 -0.132244 
-0.020407 -0.050543 
-0.028622 -0.096537 
-0.036379 -0.058584 
-0.015025 -0.130366 
-0.007039 -0.127930 
0.000000 0.000000 
-0.011475 -0.049632 
0.000000 -0.048718 
-0.005187 -0.049274 
0.000000 0.000000 
-0.007685 -0.092762 
0.000000 -0.127097 
0.000000 0.000000 
0.005187 -0.049274 
0.020407 -0.050543 
0.011475 -0.049632 
0.000000 0.000000 
0.007685 -0.092762 
0.007039 -0.127930 
0.036379 -0.058584 
0.028622 -0.096537 
0.015685 -0.158867 
0.025173 -0.132244 
0.035618 -0.128819 
0.015025 -0.130366 
0.002760 -0.151899 
0.009962 -0.173624 
0.003168 -0.178217 
-0.007136 -0.190383 
-0.008025 -0.202655 
-0.001440 -0.171914 

CELL_DATA 128

SCALARS epsilon float 4
LOOKUP_TABLE default
0.002523 0.018868 0.000000 0.012346
0.002963 -0.025843 0.000000 0.122396
-0.018751 -0.017504 0.000000 0.107767
-0.000242 0.037341 0.000000 0.057969
0.033201 -0.293121 0.000000 0.092488
0.073133 -0.180331 0.000000 0.060177
0.031131 -0.125655 0.000000 0.237273
0.079610 -0.256944 0.000000 0.048013
0.020678 0.057654 0.000000 0.011797
0.013574 -0.016123 0.000000 0.086292
0.056240 -0.052667 0.000000 0.030495
0.020438 -0.020819 0.000000 0.030871
0.043281 -0.046165 0.000000 0.098408
0.055297 -0.137684 0.000000 0.041567
0.014588 -0.025244 0.000000 0.081980
0.021791 -0.108693 0.000000 0.142733
0.033201 -0.293121 0.000000 -0.092488
0.031131 -0.125655 0.000000 -0.237273
0.073133 -0.180331 0.000000 -0.060177
0.079610 -0.256944 0.000000 -0.048013
0.002523 0.018868 0.000000 -0.012346
-0.018751 -0.017504 0.000000 -0.107767
0.002963 -0.025843 0.000000 -0.122396
-0.000242 0.037341 0.000000 -0.057969
0.020678 0.057654 0.000000 -0.011797
0.056240 -0.052667 0.000000 -0.030495
0.013574 -0.016123 0.000000 -0.086292
0.020438 -0.020819 0.000000 -0.030871
0.043281 -0.046165 0.000000 -0.098408
0.014588 -0.025244 0.000000 -0.081980
0.055297 -0.137684 0.000000 -0.041567
0.021791 -0.108693 0.000000 -0.142733
-0.021680 0.050890 0.000000 -0.001150
-0.038992 0.093076 0.000000 -0.024050
-0.021762 0.048397 0.000000 -0.066146
-0.025955 0.046053 0.000000 -0.040372
-0.056964 0.163068 0.000000 -0.035550
-0.060453 0.141331 0.000000 -0.061368
-0.048383 0.129382 0.000000 -0.034702
-0.048294 0.146903 0.000000 -0.036087
-0.021297 0.085705 0.000000 -0.019383
-0.011877 0.039907 0.000000 -0.066334
-0.043293 0.115570 0.000000 -0.054701
-0.011443 0.084835 0.000000 -0.053981
-0.036910 0.092596 0.000000 -0.042719
-0.038602 0.115067 0.000000 -0.061379
-0.023617 0.040664 0.000000 -0.083028
-0.038411 0.089859 0.000000 -0.065424
-0.059357 0.175816 0.000000 -0.026878
-0.084845 0.216211 0.000000 -0.015498
-0.061972 0.189822 0.000000 -0.047738
-0.082846 0.193115 0.000000 -0.028908
-0.096469 0.384241 0.000000 0.127256
-0.097678 0.306178 0.000000 0.027004
-0.110660 0.271484 0.000000 0.017697
-0.130802 0.309878 0.000000 0.011862
-0.021737 0.174010 0.000000 -0.014815
-0.043850 0.185156 0.000000 -0.042654
-0.066073 0.249366 0.000000 -0.014239
-0.066045 0.173417 0.000000 -0.025952
-0.111992 0.246613 0.000000 -0.020454
-0.100201 0.249365 0.000000 -0.014042
-0.083939 0.185692 0.000000 -0.035586
-0.084528 0.246618 0.000000 -0.020072
0.006757 0.329372 0.000000 0.074860
0.002159 0.324594 0.000000 0.042193
-0.073204 0.297751 0.000000 0.018196
-0.065260 0.330224 0.000000 0.078007
0.000000 0.319766 0.000000 -0.000000
-0.042351 0.289102 0.000000 -0.001653
0.000443 0.322712 0.000000 0.019088
-0.041732 0.322844 0.000000 0.018319
-0.057889 0.183601 0.000000 -0.002759
-0.074567 0.243674 0.000000 -0.007190
-0.063362 0.244533 0.000000 -0.003026
-0.057909 0.243662 0.000000 -0.005199
-0.048980 0.324778 0.000000 0.043404
-0.063114 0.291548 0.000000 0.007059
-0.073595 0.297913 0.000000 0.016589
-0.051404 0.291458 0.000000 0.008765
0.000000 0.319766 0.000000 -0.000000
0.000443 0.322712 0.000000 -0.019088
-0.042351 0.289102 0.000000 0.001653
-0.041732 0.322844 0.000000 -0.018319
0.006757 0.329372 0.000000 -0.074860
-0.073204 0.297751 0.000000 -0.018196
0.002159 0.324594 0.000000 -0.042193
-0.065260 0.330224 0.000000 -0.078007
-0.057889 0.183601 0.000000 0.002759
-0.063362 0.244533 0.000000 0.003026
-0.074567 0.243674 0.000000 0.007190
-0.057909 0.243662 0.000000 0.005199
-0.048980 0.324778 0.000000 -0.043404
-0.073595 0.297913 0.000000 -0.016589
-0.063114 0.291548 0.000000 -0.007059
-0.051404 0.291458 0.000000 -0.008765
-0.096469 0.384241 0.000000 -0.127256
-0.110660 0.271484 0.000000 -0.017697
-0.097678 0.306178 0.000000 -0.027004
-0.130802 0.309878 0.000000 -0.011862
-0.059357 0.175816 0.000000 0.026878
-0.061972 0.189822 0.000000 0.047738
-0.084845 0.216211 0.000000 0.015498
-0.082846 0.193115 0.000000 0.028908
-0.021737 0.174010 0.000000 0.014815
-0.066073 0.249366 0.000000 0.014239
-0.043850 0.185156 0.000000 0.042654
-0.066045 0.173417 0.000000 0.025952
-0.111992 0.246613 0.000000 0.020454
-0.083939 0.185692 0.000000 0.035586
-0.100201 0.249365 0.000000 0.014042
-0.084528 0.246618 0.000000 0.020072
-0.056964 0.163068 0.000000 0.035550
-0.048383 0.129382 0.000000 0.034702
-0.060453 0.141331 0.000000 0.061368
-0.048294 0.146903 0.000000 0.036087
-0.021680 0.050890 0.000000 0.001150
-0.021762 0.048397 0.000000 0.066146
-0.038992 0.093076 0.000000 0.024050
-0.025955 0.046053 0.000000 0.040372
-0.021297 0.085705 0.000000 0.019383
-0.043293 0.115570 0.000000 0.054701
-0.011877 0.039907 0.000000 0.066334
-0.011443 0.084835 0.000000 0.053981
-0.036910 0.092596 0.000000 0.042719
-0.023617 0.040664 0.000000 0.083028
-0.038602 0.115067 0.000000 0.061379
-0.038411 0.089859 0.000000 0.065424

SCALARS sigma float 4
LOOKUP_TABLE default
0.160855 0.395034 0.152717 0.209826
-0.734019 -1.983830 -0.746662 1.964400
-0.876740 -1.160456 -0.559669 1.806286
0.146246 0.522400 0.183694 0.964908
-2.959618 -9.763500 -3.495362 1.468826
-0.218701 -4.794197 -1.377170 0.921787
-2.154124 -7.432298 -2.633633 3.641917
-1.144260 -7.524024 -2.381397 0.579243
1.098648 1.678561 0.762969 0.189591
0.082861 -0.545149 -0.127002 1.408873
0.886175 -0.928375 -0.011593 0.474160
0.302817 -0.368296 -0.017989 0.508763
0.273292 -1.692698 -0.389947 1.491084
-0.094116 -3.451975 -0.974201 0.678351
0.021938 -0.784869 -0.209596 1.336581
-0.988581 -3.884700 -1.338813 2.320748
-2.959618 -9.763500 -3.495362 -1.468826
-2.154124 -7.432298 -2.633633 -3.641917
-0.218701 -4.794197 -1.377170 -0.921787
-1.144260 -7.524024 -2.381397 -0.579243
0.160855 0.395034 0.152717 -0.209826
-0.876740 -1.160456 -0.559669 -1.806286
-0.734019 -1.983830 -0.746662 -1.964400
0.146246 0.522400 0.183694 -0.964908
1.098648 1.678561 0.762969 -0.189591
0.886175 -0.928375 -0.011593 -0.474160
0.082861 -0.545149 -0.127002 -1.408873
0.302817 -0.368296 -0.017989 -0.508763
0.273292 -1.692698 -0.389947 -1.491084
0.021938 -0.784869 -0.209596 -1.336581
-0.094116 -3.451975 -0.974201 -0.678351
-0.988581 -3.884700 -1.338813 -2.320748
-0.119758 1.051166 0.255881 -0.045593
-0.185714 1.944524 0.483190 -0.362464
-0.171175 0.890838 0.197710 -1.092962
-0.268843 0.889878 0.170614 -0.661844
-0.186771 3.334071 0.864643 -0.433143
-0.444327 2.825159 0.654075 -0.916579
-0.210028 2.666155 0.674760 -0.463707
-0.053967 3.076545 0.830378 -0.474354
0.232741 1.949254 0.599449 -0.289747
0.000801 0.833948 0.229327 -1.076803
-0.147105 2.411095 0.621975 -0.846297
0.470021 1.976107 0.672013 -0.865873
-0.190440 1.932781 0.478665 -0.643858
-0.026474 2.435044 0.661695 -0.960261
-0.337979 0.657483 0.087776 -1.365581
-0.267794 1.822658 0.427160 -1.034955
-0.100805 3.616566 0.965868 -0.303519
-0.406280 4.291587 1.067392 -0.165268
-0.008648 3.941176 1.080365 -0.697438
-0.582073 3.784702 0.879843 -0.357133
-0.142469 7.383648 1.989335 1.430282
-0.063203 6.074496 1.651454 0.312701
-0.704042 5.207635 1.237251 0.203261
-1.045201 5.744671 1.291063 0.009541
1.018451 4.027093 1.386139 -0.203343
0.485733 4.032863 1.241372 -0.643608
0.433386 5.231995 1.556423 -0.222433
-0.214658 3.545685 0.915117 -0.395104
-0.933354 4.664223 1.024964 -0.304568
-0.553729 4.858155 1.182535 -0.223205
-0.644448 3.622169 0.818055 -0.523076
-0.123533 4.971166 1.331767 -0.295917
2.879224 7.601152 2.879224 0.953238
2.842074 7.503076 2.842074 0.538824
0.606548 6.179422 1.864277 0.223487
0.880152 6.858607 2.126032 0.979862
2.804423 7.403676 2.804423 -0.000000
1.419797 6.332410 2.129727 -0.028334
2.827406 7.464352 2.827406 0.244038
1.689391 7.035528 2.396956 0.227245
0.117316 3.871748 1.095897 -0.048110
0.147003 5.019693 1.419422 -0.116345
0.473169 5.159688 1.547488 -0.053104
0.619388 5.199022 1.598464 -0.080261
1.450484 6.979157 2.315836 0.549602
0.856036 6.162624 1.928203 0.079024
0.596426 6.178020 1.861111 0.194851
1.184122 6.285581 2.052116 0.109730
2.804423 7.403676 2.804423 -0.000000
2.827406 7.464352 2.827406 -0.244038
1.419797 6.332410 2.129727 0.028334
1.689391 7.035528 2.396956 -0.227245
2.879224 7.601152 2.879224 -0.953238
0.606548 6.179422 1.864277 -0.223487
2.842074 7.503076 2.842074 -0.538824
0.880152 6.858607 2.126032 -0.979862
0.117316 3.871748 1.095897 0.048110
0.473169 5.159688 1.547488 0.053104
0.147003 5.019693 1.419422 0.116345
0.619388 5.199022 1.598464 0.080261
1.450484 6.979157 2.315836 -0.549602
0.596426 6.178020 1.861111 -0.194851
0.856036 6.162624 1.928203 -0.079024
1.184122 6.285581 2.052116 -0.109730
-0.142469 7.383648 1.989335 -1.430282
-0.704042 5.207635 1.237251 -0.203261
-0.063203 6.074496 1.651454 -0.312701
-1.045201 5.744671 1.291063 -0.009541
-0.100805 3.616566 0.965868 0.303519
-0.008648 3.941176 1.080365 0.697438
-0.406280 4.291587 1.067392 0.165268
-0.582073 3.784702 0.879843 0.357133
1.018451 4.027093 1.386139 0.203343
0.433386 5.231995 1.556423 0.222433
0.485733 4.032863 1.241372 0.643608
-0.214658 3.545685 0.915117 0.395104
-0.933354 4.664223 1.024964 0.304568
-0.644448 3.622169 0.818055 0.523076
-0.553729 4.858155 1.182535 0.223205
-0.123533 4.971166 1.331767 0.295917
-0.186771 3.334071 0.864643 0.433143
-0.210028 2.666155 0.674760 0.463707
-0.444327 2.825159 0.654075 0.916579
-0.053967 3.076545 0.830378 0.474354
-0.119758 1.051166 0.255881 0.045593
-0.171175 0.890838 0.197710 1.092962
-0.185714 1.944524 0.483190 0.362464
-0.268843 0.889878 0.170614 0.661844
0.232741 1.949254 0.599449 0.289747
-0.147105 2.411095 0.621975 0.846297
0.000801 0.833948 0.229327 1.076803
0.470021 1.976107 0.672013 0.865873
-0.190440 1.932781 0.478665 0.643858
-0.337979 0.657483 0.087776 1.365581
-0.026474 2.435044 0.661695 0.960261
-0.267794 1.822658 0.427160 1.034955

