# vtk DataFile Version 2.0
Unstructured Grid Example
ASCII
DATASET UNSTRUCTURED_GRID

POINTS 16641 float
0.000371 -0.215640 0.000000 
0.999629 -0.215640 0.000000 
1.000000 1.000000 0.000000 
0.000000 1.000000 0.000000 
0.500000 -0.099988 0.000000 
0.976453 0.345634 0.000000 
0.500000 1.000000 0.000000 
0.023547 0.345634 0.000000 
0.500000 0.347200 0.000000 
0.249005 -0.162989 0.000000 
0.500000 0.092268 0.000000 
0.239337 0.070748 0.000000 
0.750995 -0.162989 0.000000 
0.760663 0.070748 0.000000 
1.003793 0.056296 0.000000 
0.742194 0.340641 0.000000 
0.955110 0.651204 0.000000 
0.731947 0.653723 0.000000 
0.750000 1.000000 0.000000 
0.500000 0.655914 0.000000 
0.250000 1.000000 0.000000 
0.268053 0.653723 0.000000 
0.044890 0.651204 0.000000 
0.257806 0.340641 0.000000 
-0.003793 0.056296 0.000000 
0.126889 -0.203637 0.000000 
0.235927 -0.049432 0.000000 
0.113797 -0.075045 0.000000 
0.500000 -0.011835 0.000000 
0.365486 -0.022323 0.000000 
0.368651 -0.117202 0.000000 
0.372775 0.208626 0.000000 
0.367821 0.085970 0.000000 
0.500000 0.212226 0.000000 
0.631349 -0.117202 0.000000 
0.634514 -0.022323 0.000000 
0.886203 -0.075045 0.000000 
0.764073 -0.049432 0.000000 
0.873111 -0.203637 0.000000 
0.632179 0.085970 0.000000 
0.627225 0.208626 0.000000 
1.006978 -0.084080 0.000000 
0.883915 0.057095 0.000000 
0.860024 0.338330 0.000000 
0.873155 0.194246 0.000000 
0.991642 0.199591 0.000000 
0.751951 0.200343 0.000000 
0.621983 0.345178 0.000000 
0.962834 0.495723 0.000000 
0.848934 0.490453 0.000000 
0.851319 0.822819 0.000000 
0.844081 0.651656 0.000000 
0.959785 0.813958 0.000000 
0.734529 0.491917 0.000000 
0.618065 0.494622 0.000000 
0.875000 1.000000 0.000000 
0.737219 0.824336 0.000000 
0.500000 0.824858 0.000000 
0.619389 0.824728 0.000000 
0.625000 1.000000 0.000000 
0.616889 0.655306 0.000000 
0.500000 0.495817 0.000000 
0.375000 1.000000 0.000000 
0.380611 0.824728 0.000000 
0.148681 0.822819 0.000000 
0.262781 0.824336 0.000000 
0.125000 1.000000 0.000000 
0.383111 0.655306 0.000000 
0.381935 0.494622 0.000000 
0.040215 0.813958 0.000000 
0.155919 0.651656 0.000000 
0.139976 0.338330 0.000000 
0.151066 0.490453 0.000000 
0.037166 0.495723 0.000000 
0.265471 0.491917 0.000000 
0.378017 0.345178 0.000000 
0.008358 0.199591 0.000000 
0.126845 0.194246 0.000000 
0.116085 0.057095 0.000000 
-0.006978 -0.084080 0.000000 
0.248049 0.200343 0.000000 
0.063116 -0.210910 0.000000 
0.118241 -0.140069 0.000000 
0.057292 -0.147242 0.000000 
0.238773 -0.106726 0.000000 
0.178237 -0.126778 0.000000 
0.190633 -0.189998 0.000000 
0.174367 -0.001158 0.000000 
0.174212 -0.064108 0.000000 
0.236602 0.009612 0.000000 
0.500000 -0.057936 0.000000 
0.432703 -0.061338 0.000000 
0.433431 -0.104404 0.000000 
0.432783 0.036111 0.000000 
0.432417 -0.014519 0.000000 
0.500000 0.038220 0.000000 
0.307015 -0.137204 0.000000 
0.366358 -0.071242 0.000000 
0.301617 -0.086830 0.000000 
0.437587 0.277215 0.000000 
0.436212 0.211286 0.000000 
0.500000 0.277922 0.000000 
0.302930 0.078950 0.000000 
0.370144 0.145519 0.000000 
0.306218 0.140272 0.000000 
0.500000 0.150297 0.000000 
0.434862 0.149054 0.000000 
0.433664 0.090637 0.000000 
0.299797 -0.034485 0.000000 
0.366126 0.030026 0.000000 
0.300574 0.020718 0.000000 
0.566569 -0.104404 0.000000 
0.567297 -0.061338 0.000000 
0.698383 -0.086830 0.000000 
0.633642 -0.071242 0.000000 
0.692985 -0.137204 0.000000 
0.567583 -0.014519 0.000000 
0.567217 0.036111 0.000000 
0.942708 -0.147242 0.000000 
0.881759 -0.140069 0.000000 
0.936884 -0.210910 0.000000 
0.763398 0.009612 0.000000 
0.825788 -0.064108 0.000000 
0.825633 -0.001158 0.000000 
0.809367 -0.189998 0.000000 
0.821763 -0.126778 0.000000 
0.761227 -0.106726 0.000000 
0.563788 0.211286 0.000000 
0.562413 0.277215 0.000000 
0.566336 0.090637 0.000000 
0.565138 0.149054 0.000000 
0.693782 0.140272 0.000000 
0.629856 0.145519 0.000000 
0.697070 0.078950 0.000000 
0.700203 -0.034485 0.000000 
0.699426 0.020718 0.000000 
0.633874 0.030026 0.000000 
1.004044 -0.151514 0.000000 
0.946562 -0.081330 0.000000 
0.944177 0.054532 0.000000 
0.946947 -0.013969 0.000000 
1.006879 -0.014449 0.000000 
0.886585 -0.009422 0.000000 
0.822867 0.062928 0.000000 
0.918301 0.340225 0.000000 
0.925509 0.266845 0.000000 
0.984111 0.272183 0.000000 
0.807132 0.266471 0.000000 
0.866586 0.265345 0.000000 
0.801380 0.338803 0.000000 
0.998442 0.127668 0.000000 
0.932649 0.194855 0.000000 
0.939119 0.124121 0.000000 
0.624532 0.275215 0.000000 
0.561118 0.346691 0.000000 
0.756660 0.134259 0.000000 
0.690013 0.204723 0.000000 
0.682385 0.342993 0.000000 
0.686113 0.272308 0.000000 
0.746996 0.269119 0.000000 
0.879162 0.124893 0.000000 
0.812975 0.196475 0.000000 
0.818413 0.128694 0.000000 
0.969190 0.420077 0.000000 
0.911558 0.415140 0.000000 
0.901509 0.570242 0.000000 
0.905778 0.491752 0.000000 
0.957922 0.572710 0.000000 
0.853979 0.413325 0.000000 
0.796170 0.413551 0.000000 
0.918251 0.909487 0.000000 
0.905985 0.819999 0.000000 
0.971146 0.900076 0.000000 
0.788374 0.652709 0.000000 
0.845723 0.736001 0.000000 
0.790137 0.737298 0.000000 
0.955282 0.731454 0.000000 
0.900446 0.733931 0.000000 
0.899422 0.650852 0.000000 
0.619765 0.418374 0.000000 
0.559996 0.419527 0.000000 
0.737916 0.414917 0.000000 
0.679110 0.416707 0.000000 
0.675026 0.572714 0.000000 
0.676566 0.493335 0.000000 
0.732410 0.571568 0.000000 
0.845421 0.569848 0.000000 
0.789167 0.570493 0.000000 
0.791942 0.490770 0.000000 
0.937500 1.000000 0.000000 
0.861523 0.911379 0.000000 
0.742945 0.911800 0.000000 
0.802718 0.911746 0.000000 
0.812500 1.000000 0.000000 
0.794928 0.823890 0.000000 
0.733490 0.738121 0.000000 
0.500000 0.911785 0.000000 
0.561015 0.911784 0.000000 
0.562500 1.000000 0.000000 
0.558948 0.739369 0.000000 
0.559788 0.824823 0.000000 
0.500000 0.739459 0.000000 
0.687500 1.000000 0.000000 
0.621923 0.911786 0.000000 
0.682612 0.911794 0.000000 
0.559145 0.495504 0.000000 
0.500000 0.419936 0.000000 
0.674747 0.654608 0.000000 
0.617055 0.573695 0.000000 
0.500000 0.574583 0.000000 
0.558644 0.574351 0.000000 
0.558565 0.655756 0.000000 
0.678608 0.824574 0.000000 
0.617666 0.739111 0.000000 
0.675925 0.738698 0.000000 
0.437500 1.000000 0.000000 
0.438985 0.911784 0.000000 
0.317388 0.911794 0.000000 
0.378077 0.911786 0.000000 
0.312500 1.000000 0.000000 
0.440212 0.824823 0.000000 
0.441052 0.739369 0.000000 
0.081749 0.909487 0.000000 
0.138477 0.911379 0.000000 
0.062500 1.000000 0.000000 
0.266510 0.738121 0.000000 
0.205072 0.823890 0.000000 
0.209863 0.737298 0.000000 
0.187500 1.000000 0.000000 
0.197282 0.911746 0.000000 
0.257055 0.911800 0.000000 
0.440855 0.495504 0.000000 
0.440004 0.419527 0.000000 
0.441435 0.655756 0.000000 
0.441356 0.574351 0.000000 
0.324974 0.572714 0.000000 
0.382945 0.573695 0.000000 
0.325253 0.654608 0.000000 
0.321392 0.824574 0.000000 
0.324075 0.738698 0.000000 
0.382334 0.739111 0.000000 
0.028854 0.900076 0.000000 
0.094015 0.819999 0.000000 
0.100578 0.650852 0.000000 
0.099554 0.733931 0.000000 
0.044718 0.731454 0.000000 
0.154277 0.736001 0.000000 
0.211626 0.652709 0.000000 
0.081699 0.340225 0.000000 
0.088442 0.415140 0.000000 
0.030810 0.420077 0.000000 
0.203830 0.413551 0.000000 
0.146021 0.413325 0.000000 
0.198620 0.338803 0.000000 
0.042078 0.572710 0.000000 
0.094222 0.491752 0.000000 
0.098491 0.570242 0.000000 
0.380235 0.418374 0.000000 
0.438882 0.346691 0.000000 
0.267590 0.571568 0.000000 
0.323434 0.493335 0.000000 
0.317615 0.342993 0.000000 
0.320890 0.416707 0.000000 
0.262084 0.414917 0.000000 
0.154579 0.569848 0.000000 
0.208058 0.490770 0.000000 
0.210833 0.570493 0.000000 
0.015889 0.272183 0.000000 
0.074491 0.266845 0.000000 
0.060881 0.124121 0.000000 
0.067351 0.194855 0.000000 
0.001558 0.127668 0.000000 
0.133414 0.265345 0.000000 
0.192868 0.266471 0.000000 
0.053438 -0.081330 0.000000 
-0.004044 -0.151514 0.000000 
0.177133 0.062928 0.000000 
0.113415 -0.009422 0.000000 
-0.006879 -0.014449 0.000000 
0.053053 -0.013969 0.000000 
0.055823 0.054532 0.000000 
0.375468 0.275215 0.000000 
0.253004 0.269119 0.000000 
0.313887 0.272308 0.000000 
0.309987 0.204723 0.000000 
0.243340 0.134259 0.000000 
0.120838 0.124893 0.000000 
0.181587 0.128694 0.000000 
0.187025 0.196475 0.000000 
0.031622 -0.213381 0.000000 
0.060172 -0.179423 0.000000 
0.029122 -0.181815 0.000000 
0.122161 -0.172189 0.000000 
0.091224 -0.176362 0.000000 
0.094902 -0.207803 0.000000 
0.085284 -0.111628 0.000000 
0.087866 -0.144225 0.000000 
0.115455 -0.107636 0.000000 
0.242541 -0.134845 0.000000 
0.212545 -0.147375 0.000000 
0.220889 -0.177890 0.000000 
0.205881 -0.087210 0.000000 
0.208226 -0.117260 0.000000 
0.236763 -0.078276 0.000000 
0.158908 -0.197939 0.000000 
0.182900 -0.158369 0.000000 
0.152796 -0.166410 0.000000 
0.206446 0.035134 0.000000 
0.205281 0.004036 0.000000 
0.237770 0.039899 0.000000 
0.143937 -0.070174 0.000000 
0.173890 -0.032730 0.000000 
0.143427 -0.038015 0.000000 
0.235942 -0.020151 0.000000 
0.204690 -0.026667 0.000000 
0.204819 -0.057052 0.000000 
0.148349 -0.134375 0.000000 
0.175547 -0.095408 0.000000 
0.145496 -0.102274 0.000000 
0.500000 -0.079490 0.000000 
0.466440 -0.080460 0.000000 
0.466600 -0.101099 0.000000 
0.466190 -0.036139 0.000000 
0.466289 -0.058792 0.000000 
0.500000 -0.035379 0.000000 
0.400717 -0.109816 0.000000 
0.433050 -0.083347 0.000000 
0.399989 -0.088081 0.000000 
0.466553 0.064275 0.000000 
0.466356 0.037688 0.000000 
0.500000 0.064744 0.000000 
0.398831 -0.017815 0.000000 
0.432523 0.010312 0.000000 
0.398972 0.007391 0.000000 
0.500000 0.012695 0.000000 
0.466224 0.012095 0.000000 
0.466167 -0.012511 0.000000 
0.277577 -0.149450 0.000000 
0.303876 -0.112146 0.000000 
0.272977 -0.122945 0.000000 
0.367387 -0.094553 0.000000 
0.335336 -0.102628 0.000000 
0.337384 -0.126393 0.000000 
0.332808 -0.053533 0.000000 
0.333763 -0.078394 0.000000 
0.365713 -0.047189 0.000000 
0.432479 -0.038397 0.000000 
0.398960 -0.042107 0.000000 
0.399361 -0.065517 0.000000 
[...]
POINT_DATA 16641

SCALARS u_h float 2
LOOKUP_TABLE default
0.000371 -0.215640 
-0.000371 -0.215640 
0.000000 0.000000 
0.000000 0.000000 
-0.000000 -0.099988 
-0.023547 -0.154366 
0.000000 0.000000 
0.023547 -0.154366 
-0.000000 -0.152800 
-0.000995 -0.162989 
-0.000000 -0.157732 
-0.010663 -0.179252 
0.000995 -0.162989 
0.010663 -0.179252 
0.003793 -0.193704 
-0.007806 -0.159359 
-0.044890 -0.098796 
-0.018053 -0.096277 
0.000000 0.000000 
-0.000000 -0.094086 
0.000000 0.000000 
0.018053 -0.096277 
0.044890 -0.098796 
0.007806 -0.159359 
-0.003793 -0.193704 
0.001889 -0.203637 
-0.014073 -0.174432 
-0.011203 -0.200045 
-0.000000 -0.136835 
-0.009514 -0.147323 
-0.006349 -0.117202 
-0.002225 -0.166374 
-0.007179 -0.164030 
-0.000000 -0.162774 
0.006349 -0.117202 
0.009514 -0.147323 
0.011203 -0.200045 
0.014073 -0.174432 
-0.001889 -0.203637 
0.007179 -0.164030 
0.002225 -0.166374 
0.006978 -0.209080 
0.008915 -0.192905 
-0.014976 -0.161670 
-0.001845 -0.180754 
-0.008358 -0.175409 
0.001951 -0.174657 
-0.003017 -0.154822 
-0.037166 -0.129277 
-0.026066 -0.134547 
-0.023681 -0.052181 
-0.030919 -0.098344 
-0.040215 -0.061042 
-0.015471 -0.133083 
-0.006935 -0.130378 
0.000000 0.000000 
-0.012781 -0.050664 
-0.000000 -0.050142 
-0.005611 -0.050272 
0.000000 0.000000 
-0.008111 -0.094694 
-0.000000 -0.129183 
0.000000 0.000000 
0.005611 -0.050272 
0.023681 -0.052181 
0.012781 -0.050664 
0.000000 0.000000 
0.008111 -0.094694 
0.006935 -0.130378 
0.040215 -0.061042 
0.030919 -0.098344 
0.014976 -0.161670 
0.026066 -0.134547 
0.037166 -0.129277 
0.015471 -0.133083 
0.003017 -0.154822 
0.008358 -0.175409 
0.001845 -0.180754 
-0.008915 -0.192905 
-0.006978 -0.209080 
-0.001951 -0.174657 
0.000616 -0.210910 
-0.006759 -0.202569 
-0.005208 -0.209742 
-0.011227 -0.169226 
-0.009263 -0.189278 
0.003133 -0.189998 
-0.013133 -0.188658 
-0.013288 -0.189108 
-0.013398 -0.177888 
-0.000000 -0.120436 
-0.004797 -0.123838 
-0.004069 -0.104404 
-0.004717 -0.151389 
-0.005083 -0.139519 
-0.000000 -0.149280 
-0.005485 -0.137204 
-0.008642 -0.133742 
-0.010883 -0.149330 
0.000087 -0.160285 
-0.001288 -0.163714 
-0.000000 -0.159578 
-0.009570 -0.171050 
-0.004856 -0.166981 
-0.006282 -0.172228 
-0.000000 -0.162203 
-0.002638 -0.163446 
-0.003836 -0.159363 
-0.012703 -0.159485 
-0.008874 -0.157474 
-0.011926 -0.166782 
0.004069 -0.104404 
0.004797 -0.123838 
0.010883 -0.149330 
0.008642 -0.133742 
0.005485 -0.137204 
0.005083 -0.139519 
0.004717 -0.151389 
0.005208 -0.209742 
0.006759 -0.202569 
-0.000616 -0.210910 
0.013398 -0.177888 
0.013288 -0.189108 
0.013133 -0.188658 
-0.003133 -0.189998 
0.009263 -0.189278 
0.011227 -0.169226 
0.001288 -0.163714 
-0.000087 -0.160285 
0.003836 -0.159363 
0.002638 -0.163446 
0.006282 -0.172228 
0.004856 -0.166981 
0.009570 -0.171050 
0.012703 -0.159485 
0.011926 -0.166782 
0.008874 -0.157474 
0.004044 -0.214014 
0.009062 -0.206330 
0.006677 -0.195468 
0.009447 -0.201469 
0.006879 -0.201949 
0.011585 -0.196922 
0.010367 -0.187072 
-0.019199 -0.159775 
-0.011991 -0.170655 
-0.015889 -0.165317 
-0.005368 -0.171029 
-0.008414 -0.172155 
-0.011120 -0.161197 
-0.001558 -0.184832 
-0.004851 -0.180145 
0.001619 -0.188379 
-0.000468 -0.162285 
-0.001382 -0.153309 
0.006660 -0.178241 
0.002513 -0.170277 
-0.005115 -0.157007 
-0.001387 -0.165192 
-0.003004 -0.168381 
0.004162 -0.187607 
0.000475 -0.178525 
0.005913 -0.183806 
-0.030810 -0.142423 
-0.025942 -0.147360 
-0.035991 -0.117258 
-0.031722 -0.133248 
-0.042078 -0.114790 
-0.021021 -0.149175 
-0.016330 -0.148949 
-0.019249 -0.028013 
-0.031515 -0.055001 
-0.028854 -0.037424 
-0.024126 -0.097291 
-0.029277 -0.076499 
-0.022363 -0.075202 
-0.044718 -0.081046 
-0.037054 -0.078569 
-0.038078 -0.099148 
-0.005235 -0.144126 
-0.002504 -0.142973 
-0.012084 -0.147583 
-0.008390 -0.145793 
-0.012474 -0.114786 
-0.010934 -0.131665 
-0.017590 -0.115932 
-0.029579 -0.117652 
-0.023333 -0.117007 
-0.020558 -0.134230 
0.000000 0.000000 
-0.013477 -0.026121 
-0.007055 -0.025700 
-0.009782 -0.025754 
0.000000 0.000000 
-0.017572 -0.051110 
-0.016510 -0.074379 
-0.000000 -0.025715 
-0.001485 -0.025716 
0.000000 0.000000 
-0.003552 -0.073131 
-0.002712 -0.050177 
-0.000000 -0.073041 
0.000000 0.000000 
-0.003077 -0.025714 
-0.004888 -0.025706 
-0.003355 -0.129496 
-0.000000 -0.142564 
-0.012753 -0.095392 
-0.007945 -0.113805 
-0.000000 -0.112917 
-0.003856 -0.113149 
-0.003935 -0.094244 
-0.008892 -0.050426 
-0.007334 -0.073389 
-0.011575 -0.073802 
0.000000 0.000000 
0.001485 -0.025716 
0.004888 -0.025706 
0.003077 -0.025714 
0.000000 0.000000 
0.002712 -0.050177 
0.003552 -0.073131 
0.019249 -0.028013 
0.013477 -0.026121 
0.000000 0.000000 
0.016510 -0.074379 
0.017572 -0.051110 
0.022363 -0.075202 
0.000000 0.000000 
0.009782 -0.025754 
0.007055 -0.025700 
0.003355 -0.129496 
0.002504 -0.142973 
0.003935 -0.094244 
0.003856 -0.113149 
0.012474 -0.114786 
0.007945 -0.113805 
0.012753 -0.095392 
0.008892 -0.050426 
0.011575 -0.073802 
0.007334 -0.073389 
0.028854 -0.037424 
0.031515 -0.055001 
0.038078 -0.099148 
0.037054 -0.078569 
0.044718 -0.081046 
0.029277 -0.076499 
0.024126 -0.097291 
0.019199 -0.159775 
0.025942 -0.147360 
0.030810 -0.142423 
0.016330 -0.148949 
0.021021 -0.149175 
0.011120 -0.161197 
0.042078 -0.114790 
0.031722 -0.133248 
0.035991 -0.117258 
0.005235 -0.144126 
0.001382 -0.153309 
0.017590 -0.115932 
0.010934 -0.131665 
0.005115 -0.157007 
0.008390 -0.145793 
0.012084 -0.147583 
0.029579 -0.117652 
0.020558 -0.134230 
0.023333 -0.117007 
0.015889 -0.165317 
0.011991 -0.170655 
-0.001619 -0.188379 
0.004851 -0.180145 
0.001558 -0.184832 
0.008414 -0.172155 
0.005368 -0.171029 
-0.009062 -0.206330 
-0.004044 -0.214014 
-0.010367 -0.187072 
-0.011585 -0.196922 
-0.006879 -0.201949 
-0.009447 -0.201469 
-0.006677 -0.195468 
0.000468 -0.162285 
0.003004 -0.168381 
0.001387 -0.165192 
-0.002513 -0.170277 
-0.006660 -0.178241 
-0.004162 -0.187607 
-0.005913 -0.183806 
-0.000475 -0.178525 
0.000372 -0.213381 
-0.002328 -0.210673 
-0.002128 -0.213065 
-0.002839 -0.203439 
-0.002526 -0.207612 
0.001152 -0.207803 
-0.008466 -0.205378 
-0.005884 -0.206725 
-0.009545 -0.201386 
-0.007459 -0.166095 
-0.006205 -0.178625 
0.002139 -0.177890 
-0.012869 -0.180960 
-0.010524 -0.179760 
-0.013237 -0.172026 
0.002658 -0.197939 
-0.004600 -0.189619 
-0.003454 -0.197660 
-0.012304 -0.183616 
-0.013469 -0.183464 
-0.012230 -0.178851 
-0.012313 -0.195174 
-0.013610 -0.188980 
-0.012823 -0.194265 
-0.014058 -0.176401 
-0.014060 -0.182917 
-0.013931 -0.182052 
-0.007901 -0.196875 
-0.011953 -0.189158 
-0.010754 -0.196024 
-0.000000 -0.110740 
-0.002310 -0.111710 
-0.002150 -0.101099 
-0.002560 -0.129889 
-0.002461 -0.121292 
-0.000000 -0.129129 
-0.005533 -0.109816 
-0.004450 -0.114597 
-0.006261 -0.119331 
-0.002197 -0.154475 
-0.002394 -0.149812 
-0.000000 -0.154006 
-0.007419 -0.142815 
-0.004977 -0.145938 
-0.007278 -0.148859 
-0.000000 -0.143555 
-0.002526 -0.144155 
-0.002583 -0.137511 
-0.003673 -0.149450 
-0.008624 -0.143396 
-0.008273 -0.154195 
-0.007613 -0.125803 
-0.008414 -0.133878 
-0.006366 -0.126393 
-0.010942 -0.147283 
-0.009987 -0.140894 
-0.009287 -0.140939 
-0.005021 -0.132147 
-0.007290 -0.135857 
-0.006889 -0.128017 
0.000356 -0.156771 
0.000024 -0.159756 
-0.000000 -0.156620 
-0.001821 -0.164851 
-0.000597 -0.162453 
-0.000793 -0.163440 
-0.000000 -0.161637 
-0.000319 -0.161843 
-0.000666 -0.163012 
-0.010292 -0.175095 
-0.008011 -0.172028 
-0.008553 -0.175504 
-0.006073 -0.165954 
-0.007174 -0.168797 
-0.008519 -0.167308 
-0.004105 -0.169245 
-0.005688 -0.169441 
-0.003562 -0.167118 
-0.000000 -0.160462 
-0.001662 -0.160822 
-0.001949 -0.158144 
-0.001011 -0.163242 
-0.001346 -0.162517 
-0.000000 -0.162969 
-0.005599 -0.161348 
-0.003265 -0.161888 
-0.004754 -0.163620 
-0.002838 -0.165361 
-0.003824 -0.164954 
-0.001973 -0.164051 
-0.011310 -0.158870 
-0.011299 -0.152931 
-0.012198 -0.154740 
-0.012990 -0.163100 
-0.013651 -0.166761 
-0.004328 -0.155865 
-0.008129 -0.161204 
-0.006327 -0.158132 
-0.006900 -0.153968 
-0.009357 -0.152843 
-0.011761 -0.173997 
-0.013555 -0.169811 
-0.012881 -0.172230 
-0.010898 -0.169299 
-0.009672 -0.164974 
-0.011143 -0.157778 
-0.010571 -0.161796 
-0.012565 -0.163507 
0.002150 -0.101099 
0.002310 -0.111710 
0.006261 -0.119331 
0.004450 -0.114597 
0.005533 -0.109816 
0.002461 -0.121292 
0.002560 -0.129889 
0.008273 -0.154195 
0.008624 -0.143396 
0.003673 -0.149450 
0.009287 -0.140939 
0.009987 -0.140894 
0.010942 -0.147283 
0.006366 -0.126393 
0.008414 -0.133878 
0.007613 -0.125803 
0.002394 -0.149812 
0.002197 -0.154475 
0.002583 -0.137511 
0.002526 -0.144155 
0.007278 -0.148859 
0.004977 -0.145938 
0.007419 -0.142815 
0.006889 -0.128017 
0.007290 -0.135857 
0.005021 -0.132147 
0.002128 -0.213065 
0.002328 -0.210673 
-0.000372 -0.213381 
0.009545 -0.201386 
0.005884 -0.206725 
0.008466 -0.205378 
-0.001152 -0.207803 
0.002526 -0.207612 
0.002839 -0.203439 
0.012230 -0.178851 
0.013469 -0.183464 
0.012304 -0.183616 
0.013931 -0.182052 
0.014060 -0.182917 
0.014058 -0.176401 
0.012823 -0.194265 
0.013610 -0.188980 
0.012313 -0.195174 
-0.002139 -0.177890 
0.006205 -0.178625 
0.007459 -0.166095 
0.003454 -0.197660 
0.004600 -0.189619 
-0.002658 -0.197939 
0.013237 -0.172026 
0.010524 -0.179760 
0.012869 -0.180960 
0.010754 -0.196024 
0.011953 -0.189158 
0.007901 -0.196875 
-0.000024 -0.159756 
-0.000356 -0.156771 
0.000666 -0.163012 
0.000319 -0.161843 
0.000793 -0.163440 
0.000597 -0.162453 
0.001821 -0.164851 
0.001949 -0.158144 
0.001662 -0.160822 
0.004754 -0.163620 
0.003265 -0.161888 
0.005599 -0.161348 
0.001346 -0.162517 
0.001011 -0.163242 
0.008553 -0.175504 
0.008011 -0.172028 
0.010292 -0.175095 
0.003562 -0.167118 
0.005688 -0.169441 
0.004105 -0.169245 
0.008519 -0.167308 
0.007174 -0.168797 
0.006073 -0.165954 
0.001973 -0.164051 
0.003824 -0.164954 
0.002838 -0.165361 
0.011310 -0.158870 
0.013651 -0.166761 
0.012990 -0.163100 
0.012198 -0.154740 
0.011299 -0.152931 
0.011761 -0.173997 
0.009672 -0.164974 
0.010898 -0.169299 
0.012881 -0.172230 
0.013555 -0.169811 
0.004328 -0.155865 
0.009357 -0.152843 
0.006900 -0.153968 
0.006327 -0.158132 
0.008129 -0.161204 
0.012565 -0.163507 
0.010571 -0.161796 
0.011143 -0.157778 
0.001864 -0.215250 
0.004632 -0.212023 
0.008059 -0.208049 
0.006704 -0.210317 
0.005839 -0.211909 
0.007538 -0.208254 
0.010101 -0.203723 
0.005322 -0.195200 
0.007125 -0.198844 
0.005670 -0.197922 
0.009554 -0.197312 
0.008406 -0.198604 
0.007877 -0.194661 
0.007331 -0.205707 
0.008242 -0.202235 
0.008575 -0.205325 
0.012011 -0.188047 
0.010681 -0.183315 
0.011840 -0.198569 
0.012472 -0.193208 
0.009761 -0.190326 
0.011409 -0.191919 
0.010568 -0.195051 
0.009692 -0.204053 
0.010560 -0.199692 
0.010777 -0.201824 
-0.021375 -0.157589 
-0.017666 -0.163216 
-0.019737 -0.159963 
-0.013631 -0.166661 
-0.015620 -0.165398 
-0.017055 -0.161087 
-0.012072 -0.170457 
-0.013916 -0.168545 
-0.010187 -0.173592 
-0.006783 -0.165433 
-0.008284 -0.166411 
-0.009388 -0.160391 
-0.005097 -0.176682 
-0.006814 -0.171849 
-0.003675 -0.176140 
-0.012989 -0.161663 
-0.009938 -0.167028 
-0.011728 -0.167156 
0.001348 -0.189335 
0.000104 -0.187234 
0.002945 -0.191326 
-0.006554 -0.178379 
-0.003094 -0.182921 
-0.004824 -0.180194 
-0.000028 -0.184845 
-0.001489 -0.184411 
-0.003273 -0.180881 
-0.010148 -0.171807 
-0.006672 -0.176541 
-0.008378 -0.175565 
-0.000750 -0.157230 
-0.000675 -0.152911 
0.000873 -0.164758 
-0.000224 -0.161141 
-0.002154 -0.153958 
-0.001212 -0.157974 
-0.001773 -0.158967 
0.008782 -0.179058 
0.006612 -0.175210 
0.002346 -0.172465 
0.004525 -0.174200 
0.004363 -0.176780 
0.004435 -0.171644 
0.002466 -0.168211 
-0.006382 -0.158200 
-0.004284 -0.162865 
-0.005448 -0.164215 
-0.002458 -0.160158 
-0.003290 -0.161483 
-0.003998 -0.155857 
-0.000522 -0.171860 
-0.002102 -0.166799 
0.000122 -0.169999 
0.000804 -0.166347 
0.000560 -0.168125 
-0.000848 -0.163659 
0.004376 -0.192061 
0.001269 -0.184388 
0.002977 -0.188449 
0.005647 -0.191714 
0.006744 -0.190436 
-0.004094 -0.169831 
0.001326 -0.176723 
-0.001373 -0.173591 
-0.002428 -0.175063 
-0.000588 -0.179917 
0.008693 -0.182509 
0.007641 -0.188371 
0.008303 -0.185674 
0.006423 -0.181162 
0.003945 -0.179241 
0.002379 -0.183199 
0.003278 -0.181432 
0.005150 -0.186008 
-0.027262 -0.148538 
-0.024974 -0.151642 
-0.031596 -0.138705 
-0.028402 -0.145354 
-0.034133 -0.136009 
-0.022660 -0.153769 
-0.020354 -0.155068 
-0.040661 -0.108039 
-0.039108 -0.116368 
-0.043795 -0.106994 
-0.028897 -0.134159 
-0.034083 -0.125501 
-0.031074 -0.126172 
-0.039840 -0.122211 
-0.037023 -0.124236 
-0.034493 -0.131674 
-0.013820 -0.155379 
-0.011857 -0.154701 
-0.018093 -0.155681 
-0.015905 -0.155743 
-0.021107 -0.142191 
-0.018631 -0.149256 
-0.023700 -0.142136 
-0.028985 -0.140527 
-0.026339 -0.141623 
-0.023470 -0.148586 
-0.013101 -0.015560 
-0.023653 -0.031066 
-0.018731 -0.022783 
-0.027378 -0.053263 
-0.026389 -0.041919 
-0.022439 -0.040193 
-0.035644 -0.049851 
-0.030960 -0.045016 
-0.035926 -0.057612 
-0.020991 -0.096772 
-0.023599 -0.086528 
-0.020461 -0.086028 
-0.030529 -0.087742 
-0.026962 -0.087096 
-0.027446 -0.097822 
-0.023530 -0.063886 
-0.025686 -0.075771 
-0.027034 -0.064627 
-0.045246 -0.090163 
-0.041741 -0.089837 
-0.041579 -0.099211 
-0.039144 -0.069154 
-0.040994 -0.079849 
-0.043123 -0.071377 
-0.034490 -0.098813 
-0.038027 -0.089195 
-0.034248 -0.088457 
-0.030870 -0.065697 
-0.033097 -0.077428 
-0.034966 -0.067198 
-0.001972 -0.148548 
-0.000972 -0.148201 
-0.004180 -0.149868 
-0.003032 -0.149114 
-0.004523 -0.137044 
-0.003827 -0.143467 
-0.006161 -0.137621 
-0.010033 -0.153814 
-0.008356 -0.152811 
-0.011771 -0.139888 
-0.010166 -0.146703 
-0.013912 -0.140670 
-0.006826 -0.151772 
-0.005439 -0.150771 
-0.015334 -0.105881 
-0.014953 -0.115351 
-0.018052 -0.106405 
-0.008873 -0.130985 
-0.011846 -0.123557 
-0.009628 -0.122958 
-0.016713 -0.124832 
-0.014206 -0.124193 
-0.013131 -0.132379 
-0.006750 -0.144917 
-0.009770 -0.139085 
-0.007904 -0.138313 
-0.037357 -0.108486 
-0.030567 -0.108308 
-0.033966 -0.108528 
-0.032793 -0.117637 
-0.028051 -0.126392 
-0.020947 -0.106938 
-0.019368 -0.125429 
-0.020387 -0.116497 
-0.024013 -0.107457 
-0.027231 -0.107929 
-0.014142 -0.148359 
-0.023274 -0.134535 
-0.018595 -0.141901 
-0.016190 -0.141366 
-0.017950 -0.133721 
-0.026409 -0.117413 
-0.022159 -0.125933 
-0.025064 -0.126280 
0.000000 0.000000 
-0.010057 -0.013739 
-0.006937 -0.012967 
-0.008241 -0.013171 
0.000000 0.000000 
-0.015976 -0.026697 
-0.019146 -0.039277 
-0.003637 -0.012920 
-0.004294 -0.012900 
0.000000 0.000000 
-0.011955 -0.038386 
-0.008330 -0.025711 
-0.010136 -0.038301 
0.000000 0.000000 
-0.005040 -0.012888 
-0.005904 -0.012899 
-0.019309 -0.074750 
-0.017550 -0.085586 
-0.020431 -0.051520 
-0.020363 -0.063369 
-0.014918 -0.062715 
-0.017504 -0.062997 
-0.015041 -0.050846 
-0.011466 -0.025864 
-0.014014 -0.038531 
-0.016379 -0.038792 
-0.000000 -0.013008 
-0.000379 -0.013007 
0.000000 0.000000 
-0.001061 -0.038106 
-0.000736 -0.025716 
-0.000000 -0.038102 
0.000000 0.000000 
-0.000765 -0.013004 
-0.001164 -0.012998 
-0.001886 -0.083849 
-0.001762 -0.073065 
-0.000000 -0.083817 
-0.004127 -0.050217 
-0.003187 -0.061862 
-0.004846 -0.061934 
-0.000000 -0.061802 
-0.001580 -0.061818 
-0.001345 -0.050152 
0.000000 0.000000 
-0.002519 -0.012960 
-0.003050 -0.012941 
-0.001585 -0.012989 
-0.002034 -0.012976 
0.000000 0.000000 
-0.005682 -0.038177 
-0.003947 -0.025710 
-0.004431 -0.038152 
-0.002141 -0.038116 
-0.003258 -0.038132 
-0.002261 -0.025715 
-0.001238 -0.142667 
-0.000000 -0.148086 
-0.005104 -0.129874 
-0.002968 -0.136611 
-0.000000 -0.136252 
-0.001470 -0.136344 
-0.001663 -0.129263 
-0.015311 -0.095815 
-0.012786 -0.105386 
-0.008141 -0.104546 
-0.010394 -0.104936 
-0.010360 -0.095015 
-0.010143 -0.114264 
-0.007537 -0.122428 
-0.000000 -0.103801 
-0.001961 -0.103851 
-0.001952 -0.094127 
-0.001812 -0.121461 
-0.001913 -0.112977 
-0.000000 -0.121392 
-0.005978 -0.094435 
-0.003952 -0.103995 
-0.006002 -0.104229 
-0.005553 -0.121990 
-0.005857 -0.113429 
-0.003654 -0.121663 
-0.005916 -0.025701 
-0.007191 -0.050341 
-0.007033 -0.038208 
-0.008507 -0.038247 
-0.010744 -0.050531 
-0.003802 -0.083941 
-0.007843 -0.084292 
-0.005778 -0.084089 
-0.005400 -0.073240 
-0.006586 -0.062033 
-0.014854 -0.085194 
-0.012567 -0.062492 
-0.013942 -0.074067 
-0.012354 -0.084847 
-0.010026 -0.084546 
-0.008433 -0.062158 
-0.009382 -0.073577 
-0.010417 -0.062309 
0.000000 0.000000 
0.000379 -0.013007 
0.001164 -0.012998 
0.000765 -0.013004 
0.000000 0.000000 
0.000736 -0.025716 
0.001061 -0.038106 
0.003050 -0.012941 
0.002519 -0.012960 
0.000000 0.000000 
0.004431 -0.038152 
0.003947 -0.025710 
0.005682 -0.038177 
0.000000 0.000000 
0.002034 -0.012976 
0.001585 -0.012989 
0.001762 -0.073065 
0.001886 -0.083849 
0.001345 -0.050152 
0.001580 -0.061818 
0.004846 -0.061934 
0.003187 -0.061862 
0.004127 -0.050217 
0.002261 -0.025715 
0.003258 -0.038132 
0.002141 -0.038116 
0.013101 -0.015560 
0.010057 -0.013739 
0.000000 0.000000 
0.019146 -0.039277 
0.015976 -0.026697 
0.022439 -0.040193 
0.000000 0.000000 
0.008241 -0.013171 
0.006937 -0.012967 
0.017550 -0.085586 
0.019309 -0.074750 
0.020461 -0.086028 
0.015041 -0.050846 
0.017504 -0.062997 
0.014918 -0.062715 
0.023530 -0.063886 
0.020363 -0.063369 
0.020431 -0.051520 
0.000000 0.000000 
0.004294 -0.012900 
0.003637 -0.012920 
0.005904 -0.012899 
0.005040 -0.012888 
0.000000 0.000000 
0.010136 -0.038301 
0.008330 -0.025711 
0.011955 -0.038386 
0.016379 -0.038792 
0.014014 -0.038531 
0.011466 -0.025864 
0.001238 -0.142667 
0.000972 -0.148201 
0.001663 -0.129263 
0.001470 -0.136344 
0.004523 -0.137044 
0.002968 -0.136611 
0.005104 -0.129874 
0.001952 -0.094127 
0.001961 -0.103851 
0.006002 -0.104229 
0.003952 -0.103995 
0.005978 -0.094435 
0.001913 -0.112977 
0.001812 -0.121461 
0.015334 -0.105881 
0.012786 -0.105386 
0.015311 -0.095815 
0.007537 -0.122428 
0.010143 -0.114264 
0.009628 -0.122958 
0.010360 -0.095015 
0.010394 -0.104936 
0.008141 -0.104546 
0.003654 -0.121663 
0.005857 -0.113429 
0.005553 -0.121990 
0.005916 -0.025701 
0.010744 -0.050531 
0.008507 -0.038247 
0.007033 -0.038208 
0.007191 -0.050341 
0.014854 -0.085194 
0.010026 -0.084546 
0.012354 -0.084847 
0.013942 -0.074067 
0.012567 -0.062492 
0.003802 -0.083941 
0.006586 -0.062033 
0.005400 -0.073240 
0.005778 -0.084089 
0.007843 -0.084292 
0.010417 -0.062309 
0.009382 -0.073577 
0.008433 -0.062158 
0.018731 -0.022783 
0.023653 -0.031066 
0.035926 -0.057612 
0.030960 -0.045016 
0.035644 -0.049851 
0.026389 -0.041919 
0.027378 -0.053263 
0.041579 -0.099211 
0.041741 -0.089837 
0.045246 -0.090163 
0.034248 -0.088457 
0.038027 -0.089195 
0.034490 -0.098813 
0.043123 -0.071377 
0.040994 -0.079849 
0.039144 -0.069154 
0.023599 -0.086528 
0.020991 -0.096772 
0.027034 -0.064627 
0.025686 -0.075771 
0.027446 -0.097822 
0.026962 -0.087096 
0.030529 -0.087742 
0.034966 -0.067198 
0.033097 -0.077428 
0.030870 -0.065697 
0.021375 -0.157589 
0.024974 -0.151642 
0.027262 -0.148538 
0.020354 -0.155068 
0.022660 -0.153769 
0.017055 -0.161087 
0.034133 -0.136009 
0.028402 -0.145354 
0.031596 -0.138705 
0.011857 -0.154701 
0.013820 -0.155379 
0.009388 -0.160391 
0.023700 -0.142136 
0.018631 -0.149256 
0.021107 -0.142191 
0.012989 -0.161663 
0.015905 -0.155743 
0.018093 -0.155681 
0.043795 -0.106994 
0.039108 -0.116368 
0.040661 -0.108039 
0.034493 -0.131674 
0.037023 -0.124236 
0.039840 -0.122211 
0.031074 -0.126172 
0.034083 -0.125501 
0.028897 -0.134159 
0.023470 -0.148586 
0.026339 -0.141623 
0.028985 -0.140527 
0.001972 -0.148548 
0.000675 -0.152911 
0.006161 -0.137621 
0.003827 -0.143467 
0.002154 -0.153958 
0.003032 -0.149114 
0.004180 -0.149868 
0.018052 -0.106405 
0.014953 -0.115351 
0.013131 -0.132379 
0.014206 -0.124193 
0.016713 -0.124832 
0.011846 -0.123557 
0.008873 -0.130985 
0.006382 -0.158200 
0.008356 -0.152811 
0.010033 -0.153814 
0.005439 -0.150771 
0.006826 -0.151772 
0.003998 -0.155857 
0.013912 -0.140670 