# vtk DataFile Version 2.0
Unstructured Grid Example
ASCII
DATASET UNSTRUCTURED_GRID

POINTS 4225 float
0.000491 -0.215689 0.000000 
0.999509 -0.215689 0.000000 
1.000000 1.000000 0.000000 
0.000000 1.000000 0.000000 
0.500000 -0.099954 0.000000 
0.976459 0.345691 0.000000 
0.500000 1.000000 0.000000 
0.023541 0.345691 0.000000 
0.500000 0.347181 0.000000 
0.248972 -0.162981 0.000000 
0.500000 0.092353 0.000000 
0.239355 0.070798 0.000000 
0.751028 -0.162981 0.000000 
0.760645 0.070798 0.000000 
1.003753 0.056332 0.000000 
0.742199 0.340708 0.000000 
0.955185 0.651208 0.000000 
0.731993 0.653774 0.000000 
0.750000 1.000000 0.000000 
0.500000 0.655965 0.000000 
0.250000 1.000000 0.000000 
0.268007 0.653774 0.000000 
0.044815 0.651208 0.000000 
0.257801 0.340708 0.000000 
-0.003753 0.056332 0.000000 
0.126900 -0.203520 0.000000 
0.235958 -0.049405 0.000000 
0.113822 -0.074988 0.000000 
0.500000 -0.011746 0.000000 
0.365494 -0.022257 0.000000 
0.368731 -0.117150 0.000000 
0.372768 0.208695 0.000000 
0.367822 0.086041 0.000000 
0.500000 0.212289 0.000000 
0.631269 -0.117150 0.000000 
0.634506 -0.022257 0.000000 
0.886178 -0.074988 0.000000 
0.764042 -0.049405 0.000000 
0.873100 -0.203520 0.000000 
0.632178 0.086041 0.000000 
0.627232 0.208695 0.000000 
1.006989 -0.083986 0.000000 
0.883877 0.057131 0.000000 
0.860022 0.338384 0.000000 
0.873138 0.194293 0.000000 
0.991615 0.199605 0.000000 
0.751948 0.200405 0.000000 
0.621992 0.345243 0.000000 
0.962870 0.495732 0.000000 
0.848962 0.490506 0.000000 
0.851434 0.822872 0.000000 
0.844148 0.651711 0.000000 
0.959938 0.813991 0.000000 
0.734550 0.491979 0.000000 
0.618072 0.494678 0.000000 
0.875000 1.000000 0.000000 
0.737270 0.824363 0.000000 
0.500000 0.824886 0.000000 
0.619408 0.824748 0.000000 
0.625000 1.000000 0.000000 
0.616909 0.655349 0.000000 
0.500000 0.495870 0.000000 
0.375000 1.000000 0.000000 
0.380592 0.824748 0.000000 
0.148566 0.822872 0.000000 
0.262730 0.824363 0.000000 
0.125000 1.000000 0.000000 
0.383091 0.655349 0.000000 
0.381928 0.494678 0.000000 
0.040062 0.813991 0.000000 
0.155852 0.651711 0.000000 
0.139978 0.338384 0.000000 
0.151038 0.490506 0.000000 
0.037130 0.495732 0.000000 
0.265450 0.491979 0.000000 
0.378008 0.345243 0.000000 
0.008385 0.199605 0.000000 
0.126862 0.194293 0.000000 
0.116123 0.057131 0.000000 
-0.006989 -0.083986 0.000000 
0.248052 0.200405 0.000000 
0.063185 -0.210842 0.000000 
0.118218 -0.139955 0.000000 
0.057263 -0.147154 0.000000 
0.238793 -0.106725 0.000000 
0.178281 -0.126747 0.000000 
0.190408 -0.189810 0.000000 
0.174406 -0.001131 0.000000 
0.174261 -0.064090 0.000000 
0.236627 0.009654 0.000000 
0.500000 -0.057859 0.000000 
0.432718 -0.061270 0.000000 
0.433494 -0.104362 0.000000 
0.432783 0.036190 0.000000 
0.432421 -0.014443 0.000000 
0.500000 0.038310 0.000000 
0.307082 -0.137151 0.000000 
0.366378 -0.071180 0.000000 
0.301633 -0.086786 0.000000 
0.437577 0.277272 0.000000 
0.436206 0.211352 0.000000 
0.500000 0.277964 0.000000 
0.302938 0.079012 0.000000 
0.370141 0.145590 0.000000 
0.306220 0.140338 0.000000 
0.500000 0.150373 0.000000 
0.434858 0.149127 0.000000 
0.433662 0.090714 0.000000 
0.299812 -0.034436 0.000000 
0.366130 0.030095 0.000000 
0.300586 0.020775 0.000000 
0.566506 -0.104362 0.000000 
0.567282 -0.061270 0.000000 
0.698367 -0.086786 0.000000 
0.633622 -0.071180 0.000000 
0.692918 -0.137151 0.000000 
0.567579 -0.014443 0.000000 
0.567217 0.036190 0.000000 
0.942737 -0.147154 0.000000 
0.881782 -0.139955 0.000000 
0.936815 -0.210842 0.000000 
0.763373 0.009654 0.000000 
0.825739 -0.064090 0.000000 
0.825594 -0.001131 0.000000 
0.809592 -0.189810 0.000000 
0.821719 -0.126747 0.000000 
0.761207 -0.106725 0.000000 
0.563794 0.211352 0.000000 
0.562423 0.277272 0.000000 
0.566338 0.090714 0.000000 
0.565142 0.149127 0.000000 
0.693780 0.140338 0.000000 
0.629859 0.145590 0.000000 
0.697062 0.079012 0.000000 
0.700188 -0.034436 0.000000 
0.699414 0.020775 0.000000 
0.633870 0.030095 0.000000 
1.004068 -0.151449 0.000000 
0.946566 -0.081259 0.000000 
0.944136 0.054573 0.000000 
0.946917 -0.013917 0.000000 
1.006855 -0.014382 0.000000 
0.886545 -0.009386 0.000000 
0.822837 0.062966 0.000000 
0.918298 0.340268 0.000000 
0.925500 0.266886 0.000000 
0.984097 0.272206 0.000000 
0.807130 0.266529 0.000000 
0.866579 0.265396 0.000000 
0.801381 0.338865 0.000000 
0.998405 0.127686 0.000000 
0.932627 0.194893 0.000000 
0.939084 0.124158 0.000000 
0.624541 0.275282 0.000000 
0.561124 0.346742 0.000000 
0.756650 0.134315 0.000000 
0.690016 0.204791 0.000000 
0.682394 0.343062 0.000000 
0.686120 0.272376 0.000000 
0.746999 0.269184 0.000000 
0.879132 0.124934 0.000000 
0.812964 0.196529 0.000000 
0.818393 0.128741 0.000000 
0.969208 0.420098 0.000000 
0.911570 0.415181 0.000000 
0.901558 0.570281 0.000000 
0.905809 0.491790 0.000000 
0.957976 0.572715 0.000000 
0.853991 0.413379 0.000000 
0.796183 0.413613 0.000000 
0.918443 0.909557 0.000000 
0.906131 0.820070 0.000000 
0.971393 0.900248 0.000000 
0.788433 0.652764 0.000000 
0.845815 0.736058 0.000000 
0.790212 0.737347 0.000000 
0.955386 0.731464 0.000000 
0.900547 0.733986 0.000000 
0.899494 0.650896 0.000000 
0.619769 0.418434 0.000000 
0.559994 0.419577 0.000000 
0.737928 0.414982 0.000000 
0.679120 0.416772 0.000000 
0.675050 0.572768 0.000000 
0.676581 0.493395 0.000000 
0.732443 0.571625 0.000000 
0.845467 0.569901 0.000000 
0.789208 0.570550 0.000000 
0.791968 0.490830 0.000000 
0.937500 1.000000 0.000000 
0.861619 0.911406 0.000000 
0.742976 0.911811 0.000000 
0.802771 0.911761 0.000000 
0.812500 1.000000 0.000000 
0.795006 0.823926 0.000000 
0.733544 0.738163 0.000000 
0.500000 0.911799 0.000000 
0.561020 0.911794 0.000000 
0.562500 1.000000 0.000000 
0.558958 0.739402 0.000000 
0.559797 0.824844 0.000000 
0.500000 0.739500 0.000000 
0.687500 1.000000 0.000000 
0.621934 0.911795 0.000000 
0.682631 0.911803 0.000000 
0.559146 0.495554 0.000000 
0.500000 0.419975 0.000000 
0.674780 0.654655 0.000000 
0.617070 0.573746 0.000000 
0.500000 0.574638 0.000000 
0.558650 0.574400 0.000000 
0.558574 0.655799 0.000000 
0.678640 0.824596 0.000000 
0.617689 0.739143 0.000000 
0.675961 0.738733 0.000000 
0.437500 1.000000 0.000000 
0.438980 0.911794 0.000000 
0.317369 0.911803 0.000000 
0.378066 0.911795 0.000000 
0.312500 1.000000 0.000000 
0.440203 0.824844 0.000000 
0.441042 0.739402 0.000000 
0.081557 0.909557 0.000000 
0.138381 0.911406 0.000000 
0.062500 1.000000 0.000000 
0.266456 0.738163 0.000000 
0.204994 0.823926 0.000000 
0.209788 0.737347 0.000000 
0.187500 1.000000 0.000000 
0.197229 0.911761 0.000000 
0.257024 0.911811 0.000000 
0.440854 0.495554 0.000000 
0.440006 0.419577 0.000000 
0.441426 0.655799 0.000000 
0.441350 0.574400 0.000000 
0.324950 0.572768 0.000000 
0.382930 0.573746 0.000000 
0.325220 0.654655 0.000000 
0.321360 0.824596 0.000000 
0.324039 0.738733 0.000000 
0.382311 0.739143 0.000000 
0.028607 0.900248 0.000000 
0.093869 0.820070 0.000000 
0.100506 0.650896 0.000000 
0.099453 0.733986 0.000000 
0.044614 0.731464 0.000000 
0.154185 0.736058 0.000000 
0.211567 0.652764 0.000000 
0.081702 0.340268 0.000000 
0.088430 0.415181 0.000000 
0.030792 0.420098 0.000000 
0.203817 0.413613 0.000000 
0.146009 0.413379 0.000000 
0.198619 0.338865 0.000000 
0.042024 0.572715 0.000000 
0.094191 0.491790 0.000000 
0.098442 0.570281 0.000000 
0.380231 0.418434 0.000000 
0.438876 0.346742 0.000000 
0.267557 0.571625 0.000000 
0.323419 0.493395 0.000000 
0.317606 0.343062 0.000000 
0.320880 0.416772 0.000000 
0.262072 0.414982 0.000000 
0.154533 0.569901 0.000000 
0.208032 0.490830 0.000000 
0.210792 0.570550 0.000000 
0.015903 0.272206 0.000000 
0.074500 0.266886 0.000000 
0.060916 0.124158 0.000000 
0.067373 0.194893 0.000000 
0.001595 0.127686 0.000000 
0.133421 0.265396 0.000000 
0.192870 0.266529 0.000000 
0.053434 -0.081259 0.000000 
-0.004068 -0.151449 0.000000 
0.177163 0.062966 0.000000 
0.113455 -0.009386 0.000000 
-0.006855 -0.014382 0.000000 
0.053083 -0.013917 0.000000 
0.055864 0.054573 0.000000 
0.375459 0.275282 0.000000 
0.253001 0.269184 0.000000 
0.313880 0.272376 0.000000 
0.309984 0.204791 0.000000 
0.243350 0.134315 0.000000 
0.120868 0.124934 0.000000 
0.181607 0.128741 0.000000 
0.187036 0.196529 0.000000 
0.031713 -0.213340 0.000000 
0.060171 -0.179338 0.000000 
0.029130 -0.181758 0.000000 
0.122116 -0.172054 0.000000 
0.091204 -0.176254 0.000000 
0.094947 -0.207713 0.000000 
0.085271 -0.111540 0.000000 
0.087836 -0.144119 0.000000 
0.115461 -0.107554 0.000000 
0.242529 -0.134863 0.000000 
0.212573 -0.147456 0.000000 
0.220578 -0.178038 0.000000 
0.205928 -0.087209 0.000000 
0.208275 -0.117286 0.000000 
0.236792 -0.078259 0.000000 
0.158850 -0.197784 0.000000 
0.182874 -0.158271 0.000000 
0.152735 -0.166258 0.000000 
0.206474 0.035172 0.000000 
0.205314 0.004069 0.000000 
0.237791 0.039945 0.000000 
0.143980 -0.070137 0.000000 
0.173934 -0.032708 0.000000 
0.143471 -0.037985 0.000000 
0.235970 -0.020116 0.000000 
0.204727 -0.026642 0.000000 
0.204861 -0.057037 0.000000 
0.148352 -0.134278 0.000000 
0.175600 -0.095392 0.000000 
0.145529 -0.102217 0.000000 
0.500000 -0.079428 0.000000 
0.466457 -0.080401 0.000000 
0.466640 -0.101062 0.000000 
0.466194 -0.036060 0.000000 
0.466296 -0.058720 0.000000 
0.500000 -0.035294 0.000000 
0.400792 -0.109769 0.000000 
0.433080 -0.083289 0.000000 
0.400027 -0.088022 0.000000 
0.466552 0.064358 0.000000 
0.466356 0.037772 0.000000 
0.500000 0.064832 0.000000 
0.398837 -0.017743 0.000000 
0.432525 0.010390 0.000000 
0.398976 0.007464 0.000000 
0.500000 0.012786 0.000000 
0.466224 0.012179 0.000000 
0.466168 -0.012429 0.000000 
0.277617 -0.149406 0.000000 
0.303900 -0.112098 0.000000 
0.272983 -0.122915 0.000000 
0.367426 -0.094495 0.000000 
0.335371 -0.102572 0.000000 
0.337462 -0.126339 0.000000 
0.332821 -0.053477 0.000000 
0.333782 -0.078339 0.000000 
0.365725 -0.047125 0.000000 
0.432486 -0.038324 0.000000 
0.398970 -0.042038 0.000000 
0.399380 -0.065452 0.000000 
[...]
POINT_DATA 4225

SCALARS u_h float 2
LOOKUP_TABLE default
0.000491 -0.215689 
-0.000491 -0.215689 
0.000000 0.000000 
0.000000 0.000000 
0.000000 -0.099954 
-0.023541 -0.154309 
0.000000 0.000000 
0.023541 -0.154309 
0.000000 -0.152819 
-0.001028 -0.162981 
0.000000 -0.157647 
-0.010645 -0.179202 
0.001028 -0.162981 
0.010645 -0.179202 
0.003753 -0.193668 
-0.007801 -0.159292 
-0.044815 -0.098792 
-0.018007 -0.096226 
0.000000 0.000000 
0.000000 -0.094035 
0.000000 0.000000 
0.018007 -0.096226 
0.044815 -0.098792 
0.007801 -0.159292 
-0.003753 -0.193668 
0.001900 -0.203520 
-0.014042 -0.174405 
-0.011178 -0.199988 
0.000000 -0.136746 
-0.009506 -0.147257 
-0.006269 -0.117150 
-0.002232 -0.166305 
-0.007178 -0.163959 
0.000000 -0.162711 
0.006269 -0.117150 
0.009506 -0.147257 
0.011178 -0.199988 
0.014042 -0.174405 
-0.001900 -0.203520 
0.007178 -0.163959 
0.002232 -0.166305 
0.006989 -0.208986 
0.008877 -0.192869 
-0.014978 -0.161616 
-0.001862 -0.180707 
-0.008385 -0.175395 
0.001948 -0.174595 
-0.003008 -0.154757 
-0.037130 -0.129268 
-0.026038 -0.134494 
-0.023566 -0.052128 
-0.030852 -0.098289 
-0.040062 -0.061009 
-0.015450 -0.133021 
-0.006928 -0.130322 
0.000000 0.000000 
-0.012730 -0.050637 
0.000000 -0.050114 
-0.005592 -0.050252 
0.000000 0.000000 
-0.008091 -0.094651 
0.000000 -0.129130 
0.000000 0.000000 
0.005592 -0.050252 
0.023566 -0.052128 
0.012730 -0.050637 
0.000000 0.000000 
0.008091 -0.094651 
0.006928 -0.130322 
0.040062 -0.061009 
0.030852 -0.098289 
0.014978 -0.161616 
0.026038 -0.134494 
0.037130 -0.129268 
0.015450 -0.133021 
0.003008 -0.154757 
0.008385 -0.175395 
0.001862 -0.180707 
-0.008877 -0.192869 
-0.006989 -0.208986 
-0.001948 -0.174595 
0.000685 -0.210842 
-0.006782 -0.202455 
-0.005237 -0.209654 
-0.011207 -0.169225 
-0.009219 -0.189247 
0.002908 -0.189810 
-0.013094 -0.188631 
-0.013239 -0.189090 
-0.013373 -0.177846 
0.000000 -0.120359 
-0.004782 -0.123770 
-0.004006 -0.104362 
-0.004717 -0.151310 
-0.005079 -0.139443 
0.000000 -0.149190 
-0.005418 -0.137151 
-0.008622 -0.133680 
-0.010867 -0.149286 
0.000077 -0.160228 
-0.001294 -0.163648 
0.000000 -0.159536 
-0.009562 -0.170988 
-0.004859 -0.166910 
-0.006280 -0.172162 
0.000000 -0.162127 
-0.002642 -0.163373 
-0.003838 -0.159286 
-0.012688 -0.159436 
-0.008870 -0.157405 
-0.011914 -0.166725 
0.004006 -0.104362 
0.004782 -0.123770 
0.010867 -0.149286 
0.008622 -0.133680 
0.005418 -0.137151 
0.005079 -0.139443 
0.004717 -0.151310 
0.005237 -0.209654 
0.006782 -0.202455 
-0.000685 -0.210842 
0.013373 -0.177846 
0.013239 -0.189090 
0.013094 -0.188631 
-0.002908 -0.189810 
0.009219 -0.189247 
0.011207 -0.169225 
0.001294 -0.163648 
-0.000077 -0.160228 
0.003838 -0.159286 
0.002642 -0.163373 
0.006280 -0.172162 
0.004859 -0.166910 
0.009562 -0.170988 
0.012688 -0.159436 
0.011914 -0.166725 
0.008870 -0.157405 
0.004068 -0.213949 
0.009066 -0.206259 
0.006636 -0.195427 
0.009417 -0.201417 
0.006855 -0.201882 
0.011545 -0.196886 
0.010337 -0.187034 
-0.019202 -0.159732 
-0.012000 -0.170614 
-0.015903 -0.165294 
-0.005370 -0.170971 
-0.008421 -0.172104 
-0.011119 -0.161135 
-0.001595 -0.184814 
-0.004873 -0.180107 
0.001584 -0.188342 
-0.000459 -0.162218 
-0.001376 -0.153258 
0.006650 -0.178185 
0.002516 -0.170209 
-0.005106 -0.156938 
-0.001380 -0.165124 
-0.003001 -0.168316 
0.004132 -0.187566 
0.000464 -0.178471 
0.005893 -0.183759 
-0.030792 -0.142402 
-0.025930 -0.147319 
-0.035942 -0.117219 
-0.031691 -0.133210 
-0.042024 -0.114785 
-0.021009 -0.149121 
-0.016317 -0.148887 
-0.019057 -0.027943 
-0.031369 -0.054930 
-0.028607 -0.037252 
-0.024067 -0.097236 
-0.029185 -0.076442 
-0.022288 -0.075153 
-0.044614 -0.081036 
-0.036953 -0.078514 
-0.038006 -0.099104 
-0.005231 -0.144066 
-0.002506 -0.142923 
-0.012072 -0.147518 
-0.008380 -0.145728 
-0.012450 -0.114732 
-0.010919 -0.131605 
-0.017557 -0.115875 
-0.029533 -0.117599 
-0.023292 -0.116950 
-0.020532 -0.134170 
0.000000 0.000000 
-0.013381 -0.026094 
-0.007024 -0.025689 
-0.009729 -0.025739 
0.000000 0.000000 
-0.017494 -0.051074 
-0.016456 -0.074337 
0.000000 -0.025701 
-0.001480 -0.025706 
0.000000 0.000000 
-0.003542 -0.073098 
-0.002703 -0.050156 
0.000000 -0.073000 
0.000000 0.000000 
-0.003066 -0.025705 
-0.004869 -0.025697 
-0.003354 -0.129446 
0.000000 -0.142525 
-0.012720 -0.095345 
-0.007930 -0.113754 
0.000000 -0.112862 
-0.003850 -0.113100 
-0.003926 -0.094201 
-0.008860 -0.050404 
-0.007311 -0.073357 
-0.011539 -0.073767 
0.000000 0.000000 
0.001480 -0.025706 
0.004869 -0.025697 
0.003066 -0.025705 
0.000000 0.000000 
0.002703 -0.050156 
0.003542 -0.073098 
0.019057 -0.027943 
0.013381 -0.026094 
0.000000 0.000000 
0.016456 -0.074337 
0.017494 -0.051074 
0.022288 -0.075153 
0.000000 0.000000 
0.009729 -0.025739 
0.007024 -0.025689 
0.003354 -0.129446 
0.002506 -0.142923 
0.003926 -0.094201 
0.003850 -0.113100 
0.012450 -0.114732 
0.007930 -0.113754 
0.012720 -0.095345 
0.008860 -0.050404 
0.011539 -0.073767 
0.007311 -0.073357 
0.028607 -0.037252 
0.031369 -0.054930 
0.038006 -0.099104 
0.036953 -0.078514 
0.044614 -0.081036 
0.029185 -0.076442 
0.024067 -0.097236 
0.019202 -0.159732 
0.025930 -0.147319 
0.030792 -0.142402 
0.016317 -0.148887 
0.021009 -0.149121 
0.011119 -0.161135 
0.042024 -0.114785 
0.031691 -0.133210 
0.035942 -0.117219 
0.005231 -0.144066 
0.001376 -0.153258 
0.017557 -0.115875 
0.010919 -0.131605 
0.005106 -0.156938 
0.008380 -0.145728 
0.012072 -0.147518 
0.029533 -0.117599 
0.020532 -0.134170 
0.023292 -0.116950 
0.015903 -0.165294 
0.012000 -0.170614 
-0.001584 -0.188342 
0.004873 -0.180107 
0.001595 -0.184814 
0.008421 -0.172104 
0.005370 -0.170971 
-0.009066 -0.206259 
-0.004068 -0.213949 
-0.010337 -0.187034 
-0.011545 -0.196886 
-0.006855 -0.201882 
-0.009417 -0.201417 
-0.006636 -0.195427 
0.000459 -0.162218 
0.003001 -0.168316 
0.001380 -0.165124 
-0.002516 -0.170209 
-0.006650 -0.178185 
-0.004132 -0.187566 
-0.005893 -0.183759 
-0.000464 -0.178471 
0.000463 -0.213340 
-0.002329 -0.210588 
-0.002120 -0.213008 
-0.002884 -0.203304 
-0.002546 -0.207504 
0.001197 -0.207713 
-0.008479 -0.205290 
-0.005914 -0.206619 
-0.009539 -0.201304 
-0.007471 -0.166113 
-0.006177 -0.178706 
0.001828 -0.178038 
-0.012822 -0.180959 
-0.010475 -0.179786 
-0.013208 -0.172009 
0.002600 -0.197784 
-0.004626 -0.189521 
-0.003515 -0.197508 
-0.012276 -0.183578 
-0.013436 -0.183431 
-0.012209 -0.178805 
-0.012270 -0.195137 
-0.013566 -0.188958 
-0.012779 -0.194235 
-0.014030 -0.176366 
-0.014023 -0.182892 
-0.013889 -0.182037 
-0.007898 -0.196778 
-0.011900 -0.189142 
-0.010721 -0.195967 
0.000000 -0.110678 
-0.002293 -0.111651 
-0.002110 -0.101062 
-0.002556 -0.129810 
-0.002454 -0.121220 
0.000000 -0.129044 
-0.005458 -0.109769 
-0.004420 -0.114539 
-0.006223 -0.119272 
-0.002198 -0.154392 
-0.002394 -0.149728 
0.000000 -0.153918 
-0.007413 -0.142743 
-0.004975 -0.145860 
-0.007274 -0.148786 
0.000000 -0.143464 
-0.002526 -0.144071 
-0.002582 -0.137429 
-0.003633 -0.149406 
-0.008600 -0.143348 
-0.008267 -0.154165 
-0.007574 -0.125745 
-0.008379 -0.133822 
-0.006288 -0.126339 
-0.010929 -0.147227 
-0.009968 -0.140839 
-0.009275 -0.140875 
-0.005014 -0.132074 
-0.007280 -0.135788 
-0.006870 -0.127952 
0.000347 -0.156731 
0.000017 -0.159707 
0.000000 -0.156598 
-0.001828 -0.164784 
-0.000605 -0.162392 
-0.000802 -0.163375 
0.000000 -0.161583 
-0.000324 -0.161786 
-0.000671 -0.162948 
-0.010280 -0.175038 
-0.008006 -0.171964 
-0.008545 -0.175445 
-0.006075 -0.165883 
-0.007172 -0.168729 
-0.008515 -0.167241 
-0.004109 -0.169176 
-0.005689 -0.169373 
-0.003567 -0.167048 
0.000000 -0.160381 
-0.001664 -0.160744 
-0.001951 -0.158063 
-0.001014 -0.163172 
-0.001348 -0.162443 
0.000000 -0.162899 
-0.005600 -0.161274 
-0.003268 -0.161812 
-0.004756 -0.163547 
-0.002844 -0.165291 
-0.003828 -0.164882 
-0.001978 -0.163981 
-0.011297 -0.158844 
-0.011288 -0.152873 
-0.012183 -0.154695 
-0.012971 -0.163069 
-0.013630 -0.166722 
-0.004329 -0.155786 
-0.008127 -0.161134 
-0.006327 -0.158058 
-0.006899 -0.153894 
-0.009351 -0.152776 
-0.011746 -0.173944 
-0.013535 -0.169767 
-0.012863 -0.172180 
-0.010888 -0.169239 
-0.009666 -0.164909 
-0.011134 -0.157718 
-0.010564 -0.161733 
-0.012551 -0.163454 
0.002110 -0.101062 
0.002293 -0.111651 
0.006223 -0.119272 
0.004420 -0.114539 
0.005458 -0.109769 
0.002454 -0.121220 
0.002556 -0.129810 
0.008267 -0.154165 
0.008600 -0.143348 
0.003633 -0.149406 
0.009275 -0.140875 
0.009968 -0.140839 
0.010929 -0.147227 
0.006288 -0.126339 
0.008379 -0.133822 
0.007574 -0.125745 
0.002394 -0.149728 
0.002198 -0.154392 
0.002582 -0.137429 
0.002526 -0.144071 
0.007274 -0.148786 
0.004975 -0.145860 
0.007413 -0.142743 
0.006870 -0.127952 
0.007280 -0.135788 
0.005014 -0.132074 
0.002120 -0.213008 
0.002329 -0.210588 
-0.000463 -0.213340 
0.009539 -0.201304 
0.005914 -0.206619 
0.008479 -0.205290 
-0.001197 -0.207713 
0.002546 -0.207504 
0.002884 -0.203304 
0.012209 -0.178805 
0.013436 -0.183431 
0.012276 -0.183578 
0.013889 -0.182037 
0.014023 -0.182892 
0.014030 -0.176366 
0.012779 -0.194235 
0.013566 -0.188958 
0.012270 -0.195137 
-0.001828 -0.178038 
0.006177 -0.178706 
0.007471 -0.166113 
0.003515 -0.197508 
0.004626 -0.189521 
-0.002600 -0.197784 
0.013208 -0.172009 
0.010475 -0.179786 
0.012822 -0.180959 
0.010721 -0.195967 
0.011900 -0.189142 
0.007898 -0.196778 
-0.000017 -0.159707 
-0.000347 -0.156731 
0.000671 -0.162948 
0.000324 -0.161786 
0.000802 -0.163375 
0.000605 -0.162392 
0.001828 -0.164784 
0.001951 -0.158063 
0.001664 -0.160744 
0.004756 -0.163547 
0.003268 -0.161812 
0.005600 -0.161274 
0.001348 -0.162443 
0.001014 -0.163172 
0.008545 -0.175445 
0.008006 -0.171964 
0.010280 -0.175038 
0.003567 -0.167048 
0.005689 -0.169373 
0.004109 -0.169176 
0.008515 -0.167241 
0.007172 -0.168729 
0.006075 -0.165883 
0.001978 -0.163981 
0.003828 -0.164882 
0.002844 -0.165291 
0.011297 -0.158844 
0.013630 -0.166722 
0.012971 -0.163069 
0.012183 -0.154695 
0.011288 -0.152873 
0.011746 -0.173944 
0.009666 -0.164909 
0.010888 -0.169239 
0.012863 -0.172180 
0.013535 -0.169767 
0.004329 -0.155786 
0.009351 -0.152776 
0.006899 -0.153894 
0.006327 -0.158058 
0.008127 -0.161134 
0.012551 -0.163454 
0.010564 -0.161733 
0.011134 -0.157718 
0.001848 -0.215239 
0.004660 -0.211954 
0.008068 -0.207975 
0.006730 -0.210241 
0.005865 -0.211819 
0.007561 -0.208172 
0.010093 -0.203655 
0.005281 -0.195158 
0.007089 -0.198795 
0.005636 -0.197872 
0.009514 -0.197272 
0.008368 -0.198559 
0.007837 -0.194622 
0.007323 -0.205624 
0.008215 -0.202175 
0.008564 -0.205257 
0.011977 -0.188014 
0.010657 -0.183271 
0.011804 -0.198526 
0.012430 -0.193179 
0.009726 -0.190291 
0.011370 -0.191888 
0.010528 -0.195017 
0.009676 -0.203992 
0.010525 -0.199647 
0.010752 -0.201770 
-0.021375 -0.157548 
-0.017669 -0.163177 
-0.019742 -0.159928 
-0.013635 -0.166613 
-0.015624 -0.165355 
-0.017058 -0.161038 
-0.012093 -0.170441 
-0.013926 -0.168510 
-0.010205 -0.173562 
-0.006781 -0.165370 
-0.008284 -0.166351 
-0.009384 -0.160327 
-0.005109 -0.176633 
-0.006818 -0.171794 
-0.003684 -0.176088 
-0.012990 -0.161605 
-0.009940 -0.166971 
-0.011732 -0.167104 
0.001308 -0.189310 
0.000067 -0.187203 
0.002904 -0.191291 
-0.006579 -0.178350 
-0.003126 -0.182892 
-0.004857 -0.180180 
-0.000055 -0.184804 
-0.001519 -0.184374 
-0.003293 -0.180839 
-0.010156 -0.171760 
-0.006686 -0.176497 
-0.008393 -0.175526 
-0.000740 -0.157176 
-0.000671 -0.152876 
0.000881 -0.164691 
-0.000214 -0.161078 
-0.002145 -0.153898 
-0.001203 -0.157913 
-0.001763 -0.158902 
0.008768 -0.179004 
0.006606 -0.175148 
0.002346 -0.172400 
0.004523 -0.174136 
0.004357 -0.176721 
0.004435 -0.171578 
0.002471 -0.168143 
-0.006375 -0.158133 
-0.004278 -0.162798 
-0.005443 -0.164149 
-0.002449 -0.160091 
-0.003282 -0.161415 
-0.003989 -0.155790 
-0.000521 -0.171797 
-0.002098 -0.166732 
0.000125 -0.169932 
0.000811 -0.166278 
0.000565 -0.168057 
-0.000840 -0.163591 
0.004337 -0.192023 
0.001245 -0.184345 
0.002944 -0.188410 
0.005609 -0.191676 
0.006709 -0.190398 
-0.004094 -0.169769 
0.001319 -0.176665 
-0.001376 -0.173531 
-0.002434 -0.175006 
-0.000602 -0.179867 
0.008674 -0.182462 
0.007611 -0.188332 
0.008278 -0.185631 
0.006408 -0.181110 
0.003934 -0.179186 
0.002359 -0.183152 
0.003263 -0.181381 
0.005125 -0.185964 
-0.027253 -0.148505 
-0.024969 -0.151604 
-0.031573 -0.138676 
-0.028388 -0.145321 
-0.034106 -0.135995 
-0.022655 -0.153727 
-0.020350 -0.155020 
-0.040599 -0.108013 
-0.039056 -0.116343 
-0.043730 -0.106990 
-0.028868 -0.134112 
-0.034043 -0.125463 
-0.031036 -0.126125 
-0.039795 -0.122204 
-0.036981 -0.124211 
-0.034460 -0.131647 
-0.013813 -0.155317 
-0.011849 -0.154637 
-0.018088 -0.155628 
-0.015899 -0.155685 
-0.021088 -0.142133 
-0.018618 -0.149198 
-0.023680 -0.142082 
-0.028963 -0.140487 
-0.026318 -0.141576 
-0.023458 -0.148538 
-0.012837 -0.015442 
-0.023413 -0.030952 
-0.018473 -0.022302 
-0.027245 -0.053201 
-0.026214 -0.041843 
-0.022294 -0.040135 
-0.035451 -0.049781 
-0.030769 -0.044919 
-0.035775 -0.057538 
-0.020938 -0.096719 
-0.023532 -0.086475 
-0.020402 -0.085978 
-0.030450 -0.087686 
-0.026888 -0.087041 
-0.027382 -0.097766 
-0.023438 -0.063836 
-0.025602 -0.075717 
-0.026929 -0.064571 
-0.045158 -0.090157 
-0.041655 -0.089803 
-0.041507 -0.099182 
-0.039021 -0.069098 
-0.040893 -0.079806 
-0.042998 -0.071359 
-0.034421 -0.098761 
-0.037943 -0.089147 
-0.034165 -0.088403 
-0.030755 -0.065636 
-0.032999 -0.077370 
-0.034844 -0.067135 
-0.001973 -0.148499 
-0.000977 -0.148164 
-0.004175 -0.149805 
-0.003029 -0.149056 
-0.004522 -0.136989 
-0.003827 -0.143411 
-0.006156 -0.137563 
-0.010025 -0.153748 
-0.008347 -0.152744 
-0.011757 -0.139825 
-0.010155 -0.146638 
-0.013896 -0.140606 
-0.006818 -0.151705 
-0.005431 -0.150706 
-0.015299 -0.105828 
-0.014924 -0.115296 
-0.018012 -0.106351 
-0.008861 -0.130927 
-0.011827 -0.123500 
-0.009613 -0.122903 
-0.016686 -0.124772 
-0.014182 -0.124135 
-0.013113 -0.132318 
-0.006743 -0.144853 
-0.009759 -0.139022 
-0.007896 -0.138253 
-0.037298 -0.108446 
-0.030510 -0.108255 
-0.033907 -0.108479 
-0.032745 -0.117590 
-0.028014 -0.126339 
-0.020902 -0.106882 
-0.019338 -0.125369 
-0.020349 -0.116439 
-0.023963 -0.107400 
-0.027178 -0.107873 
-0.014129 -0.148296 
-0.023246 -0.134478 
-0.018576 -0.141840 
-0.016172 -0.141303 
-0.017927 -0.133660 
-0.026365 -0.117357 
-0.022126 -0.125874 
-0.025029 -0.126223 
0.000000 0.000000 
-0.009921 -0.013707 
-0.006883 -0.012959 
-0.008159 -0.013157 
0.000000 0.000000 
-0.015841 -0.026656 
-0.019030 -0.039234 
-0.003621 -0.012916 
-0.004273 -0.012895 
0.000000 0.000000 
-0.011901 -0.038365 
-0.008291 -0.025699 
-0.010093 -0.038283 
0.000000 0.000000 
-0.005012 -0.012883 
-0.005866 -0.012893 
-0.019245 -0.074704 
-0.017499 -0.085539 
-0.020335 -0.051476 
-0.020284 -0.063325 
-0.014864 -0.062680 
-0.017438 -0.062958 
-0.014978 -0.050815 
-0.011396 -0.025845 
-0.013945 -0.038505 
-0.016290 -0.038759 
0.000000 -0.013001 
-0.000377 -0.013002 
0.000000 0.000000 
-0.001057 -0.038089 
-0.000733 -0.025704 
0.000000 -0.038081 
0.000000 0.000000 
-0.000762 -0.012999 
-0.001160 -0.012994 
-0.001881 -0.083808 
-0.001756 -0.073029 
0.000000 -0.083771 
-0.004113 -0.050197 
-0.003176 -0.061835 
-0.004831 -0.061908 
0.000000 -0.061767 
-0.001575 -0.061788 
-0.001340 -0.050128 
0.000000 0.000000 
-0.002510 -0.012956 
-0.003038 -0.012937 
-0.001579 -0.012985 
-0.002026 -0.012972 
0.000000 0.000000 
-0.005662 -0.038163 
-0.003933 -0.025702 
-0.004416 -0.038138 
-0.002133 -0.038101 
-0.003246 -0.038118 
-0.002253 -0.025707 
-0.001241 -0.142625 
0.000000 -0.148065 
-0.005100 -0.129821 
-0.002969 -0.136561 
0.000000 -0.136205 
-0.001471 -0.136296 
-0.001663 -0.129213 
-0.015272 -0.095766 
-0.012757 -0.105335 
-0.008124 -0.104500 
-0.010371 -0.104888 
-0.010334 -0.094971 
-0.010124 -0.114211 
-0.007526 -0.122375 
0.000000 -0.103747 
-0.001957 -0.103802 
-0.001948 -0.094081 
-0.001811 -0.121410 
-0.001910 -0.112926 
0.000000 -0.121337 
-0.005964 -0.094392 
-0.003944 -0.103948 
-0.005990 -0.104183 
-0.005546 -0.121938 
-0.005847 -0.113379 
-0.003650 -0.121613 
-0.005892 -0.025691 
-0.007166 -0.050321 
-0.007006 -0.038193 
-0.008474 -0.038231 
-0.010704 -0.050507 
-0.003792 -0.083902 
-0.007821 -0.084255 
-0.005762 -0.084052 
-0.005384 -0.073208 
-0.006564 -0.062007 
-0.014811 -0.085150 
-0.012523 -0.062461 
-0.013897 -0.074029 
-0.012318 -0.084806 
-0.009997 -0.084507 
-0.008405 -0.062131 
-0.009353 -0.073543 
-0.010381 -0.062281 
0.000000 0.000000 
0.000377 -0.013002 
0.001160 -0.012994 
0.000762 -0.012999 
0.000000 0.000000 
0.000733 -0.025704 
0.001057 -0.038089 
0.003038 -0.012937 
0.002510 -0.012956 
0.000000 0.000000 
0.004416 -0.038138 
0.003933 -0.025702 
0.005662 -0.038163 
0.000000 0.000000 
0.002026 -0.012972 
0.001579 -0.012985 
0.001756 -0.073029 
0.001881 -0.083808 
0.001340 -0.050128 
0.001575 -0.061788 
0.004831 -0.061908 
0.003176 -0.061835 
0.004113 -0.050197 
0.002253 -0.025707 
0.003246 -0.038118 
0.002133 -0.038101 
0.012837 -0.015442 
0.009921 -0.013707 
0.000000 0.000000 
0.019030 -0.039234 
0.015841 -0.026656 
0.022294 -0.040135 
0.000000 0.000000 
0.008159 -0.013157 
0.006883 -0.012959 
0.017499 -0.085539 
0.019245 -0.074704 
0.020402 -0.085978 
0.014978 -0.050815 
0.017438 -0.062958 
0.014864 -0.062680 
0.023438 -0.063836 
0.020284 -0.063325 
0.020335 -0.051476 
0.000000 0.000000 
0.004273 -0.012895 
0.003621 -0.012916 
0.005866 -0.012893 
0.005012 -0.012883 
0.000000 0.000000 
0.010093 -0.038283 
0.008291 -0.025699 
0.011901 -0.038365 
0.016290 -0.038759 
0.013945 -0.038505 
0.011396 -0.025845 
0.001241 -0.142625 
0.000977 -0.148164 
0.001663 -0.129213 
0.001471 -0.136296 
0.004522 -0.136989 
0.002969 -0.136561 
0.005100 -0.129821 
0.001948 -0.094081 
0.001957 -0.103802 
0.005990 -0.104183 
0.003944 -0.103948 
0.005964 -0.094392 
0.001910 -0.112926 
0.001811 -0.121410 
0.015299 -0.105828 
0.012757 -0.105335 
0.015272 -0.095766 
0.007526 -0.122375 
0.010124 -0.114211 
0.009613 -0.122903 
0.010334 -0.094971 
0.010371 -0.104888 
0.008124 -0.104500 
0.003650 -0.121613 
0.005847 -0.113379 
0.005546 -0.121938 
0.005892 -0.025691 
0.010704 -0.050507 
0.008474 -0.038231 
0.007006 -0.038193 
0.007166 -0.050321 
0.014811 -0.085150 
0.009997 -0.084507 
0.012318 -0.084806 
0.013897 -0.074029 
0.012523 -0.062461 
0.003792 -0.083902 
0.006564 -0.062007 
0.005384 -0.073208 
0.005762 -0.084052 
0.007821 -0.084255 
0.010381 -0.062281 
0.009353 -0.073543 
0.008405 -0.062131 
0.018473 -0.022302 
0.023413 -0.030952 
0.035775 -0.057538 
0.030769 -0.044919 
0.035451 -0.049781 
0.026214 -0.041843 
0.027245 -0.053201 
0.041507 -0.099182 
0.041655 -0.089803 
0.045158 -0.090157 
0.034165 -0.088403 
0.037943 -0.089147 
0.034421 -0.098761 
0.042998 -0.071359 
0.040893 -0.079806 
0.039021 -0.069098 
0.023532 -0.086475 
0.020938 -0.096719 
0.026929 -0.064571 
0.025602 -0.075717 
0.027382 -0.097766 
0.026888 -0.087041 
0.030450 -0.087686 
0.034844 -0.067135 
0.032999 -0.077370 
0.030755 -0.065636 
0.021375 -0.157548 
0.024969 -0.151604 
0.027253 -0.148505 
0.020350 -0.155020 
0.022655 -0.153727 
0.017058 -0.161038 
0.034106 -0.135995 
0.028388 -0.145321 
0.031573 -0.138676 
0.011849 -0.154637 
0.013813 -0.155317 
0.009384 -0.160327 
0.023680 -0.142082 
0.018618 -0.149198 
0.021088 -0.142133 
0.012990 -0.161605 
0.015899 -0.155685 
0.018088 -0.155628 
0.043730 -0.106990 
0.039056 -0.116343 
0.040599 -0.108013 
0.034460 -0.131647 
0.036981 -0.124211 
0.039795 -0.122204 
0.031036 -0.126125 
0.034043 -0.125463 
0.028868 -0.134112 
0.023458 -0.148538 
0.026318 -0.141576 
0.028963 -0.140487 
0.001973 -0.148499 
0.000671 -0.152876 
0.006156 -0.137563 
0.003827 -0.143411 
0.002145 -0.153898 
0.003029 -0.149056 
0.004175 -0.149805 
0.018012 -0.106351 
0.014924 -0.115296 
0.013113 -0.132318 
0.014182 -0.124135 
0.016686 -0.124772 
0.011827 -0.123500 
0.008861 -0.130927 
0.006375 -0.158133 
0.008347 -0.152744 
0.010025 -0.153748 
0.005431 -0.150706 
0.006818 -0.151705 
0.003989 -0.155790 
0.013896 -0.140606 
0.010155 -0.146638 