# vtk DataFile Version 2.0
Unstructured Grid Example
ASCII
DATASET UNSTRUCTURED_GRID

POINTS 9 float
0.014313 -0.208166 0.000000 
0.985687 -0.208166 0.000000 
1.000000 1.000000 0.000000 
0.000000 1.000000 0.000000 
0.500000 -0.060719 0.000000 
0.968222 0.352770 0.000000 
0.500000 1.000000 0.000000 
0.031778 0.352770 0.000000 
0.500000 0.373453 0.000000 

CELLS 8 32
3  0 4 8 
3  4 1 8 
3  1 5 8 
3  5 2 8 
3  2 6 8 
3  6 3 8 
3  3 7 8 
3  7 0 8 

CELL_TYPES 8
5
5
5
5
5
5
5
5

POINT_DATA 9

SCALARS u_h float 2
LOOKUP_TABLE default
0.014313 -0.208166 
-0.014313 -0.208166 
0.000000 0.000000 
0.000000 0.000000 
0.000000 -0.060719 
-0.031778 -0.147230 
0.000000 0.000000 
0.031778 -0.147230 
0.000000 -0.126547 

CELL_DATA 8

SCALARS epsilon float 4
LOOKUP_TABLE default
-0.029036 -0.079009 0.000000 0.169655
-0.029036 -0.079009 0.000000 -0.169655
-0.066382 0.113950 0.000000 -0.036782
-0.062041 0.255984 0.000000 0.016243
0.000000 0.222372 0.000000 -0.000000
0.000000 0.222372 0.000000 -0.000000
-0.062041 0.255984 0.000000 -0.016243
-0.066382 0.113950 0.000000 0.036782

SCALARS sigma float 4
LOOKUP_TABLE default
-2.294196 -4.297406 -1.810880 2.866836
-2.294196 -4.297406 -1.810880 -2.866836
-0.756526 2.142096 0.380651 -0.596327
0.560753 5.393955 1.635909 0.149778
2.019752 5.332146 2.019752 -0.000000
2.019752 5.332146 2.019752 -0.000000
0.560753 5.393955 1.635909 -0.149778
-0.756526 2.142096 0.380651 0.596327

