# vtk DataFile Version 2.0
Unstructured Grid Example
ASCII
DATASET UNSTRUCTURED_GRID

POINTS 25 float
-0.009724 -0.196915 0.000000 
1.009724 -0.196915 0.000000 
1.000000 1.000000 0.000000 
0.000000 1.000000 0.000000 
0.500000 -0.088582 0.000000 
0.975633 0.352512 0.000000 
0.500000 1.000000 0.000000 
0.024367 0.352512 0.000000 
0.500000 0.350223 0.000000 
0.237983 -0.157687 0.000000 
0.500000 0.103198 0.000000 
0.242313 0.076237 0.000000 
0.762017 -0.157687 0.000000 
0.757687 0.076237 0.000000 
1.000917 0.065794 0.000000 
0.740488 0.348013 0.000000 
0.961661 0.653506 0.000000 
0.734875 0.658886 0.000000 
0.750000 1.000000 0.000000 
0.500000 0.661697 0.000000 
0.250000 1.000000 0.000000 
0.265125 0.658886 0.000000 
0.038339 0.653506 0.000000 
0.259512 0.348013 0.000000 
-0.000917 0.065794 0.000000 

CELLS 32 128
3  0 9 11 
3  4 10 9 
3  8 11 10 
3  9 10 11 
3  4 12 10 
3  1 13 12 
3  8 10 13 
3  12 13 10 
3  1 14 13 
3  5 15 14 
3  8 13 15 
3  14 15 13 
3  5 16 15 
3  2 17 16 
3  8 15 17 
3  16 17 15 
3  2 18 17 
3  6 19 18 
3  8 17 19 
3  18 19 17 
3  6 20 19 
3  3 21 20 
3  8 19 21 
3  20 21 19 
3  3 22 21 
3  7 23 22 
3  8 21 23 
3  22 23 21 
3  7 24 23 
3  0 11 24 
3  8 23 11 
3  24 11 23 

CELL_TYPES 32
5
5
5
5
5
5
5
5
5
5
5
5
5
5
5
5
5
5
5
5
5
5
5
5
5
5
5
5
5
5
5
5

POINT_DATA 25

SCALARS u_h float 2
LOOKUP_TABLE default
-0.009724 -0.196915 
0.009724 -0.196915 
0.000000 0.000000 
0.000000 0.000000 
0.000000 -0.088582 
-0.024367 -0.147488 
0.000000 0.000000 
0.024367 -0.147488 
-0.000000 -0.149777 
-0.012017 -0.157687 
-0.000000 -0.146802 
-0.007687 -0.173763 
0.012017 -0.157687 
0.007687 -0.173763 
0.000917 -0.184206 
-0.009512 -0.151987 
-0.038339 -0.096494 
-0.015125 -0.091114 
0.000000 0.000000 
-0.000000 -0.088303 
0.000000 0.000000 
0.015125 -0.091114 
0.038339 -0.096494 
0.009512 -0.151987 
-0.000917 -0.184206 

CELL_DATA 32

SCALARS epsilon float 4
LOOKUP_TABLE default
-0.011975 -0.054876 0.000000 0.092531
0.046915 -0.198395 0.000000 0.179787
0.030275 -0.006364 0.000000 0.054523
0.028500 -0.062015 0.000000 0.065942
0.046915 -0.198395 0.000000 -0.179787
-0.011975 -0.054876 0.000000 -0.092531
0.030275 -0.006364 0.000000 -0.054523
0.028500 -0.062015 0.000000 -0.065942
-0.028289 0.048947 0.000000 -0.037922
-0.055120 0.138060 0.000000 -0.045045
-0.037184 0.082793 0.000000 -0.039590
-0.028037 0.081416 0.000000 -0.054337
-0.059080 0.184757 0.000000 -0.021406
-0.087128 0.319827 0.000000 0.070197
-0.038759 0.214849 0.000000 -0.014773
-0.097348 0.214752 0.000000 -0.020465
0.000983 0.302782 0.000000 0.028092
0.000000 0.295084 0.000000 0.000000
-0.062324 0.216885 0.000000 -0.004494
-0.060683 0.303313 0.000000 0.025791
0.000000 0.295084 0.000000 0.000000
0.000983 0.302782 0.000000 -0.028092
-0.062324 0.216885 0.000000 0.004494
-0.060683 0.303313 0.000000 -0.025791
-0.087128 0.319827 0.000000 -0.070197
-0.059080 0.184757 0.000000 0.021406
-0.038759 0.214849 0.000000 0.014773
-0.097348 0.214752 0.000000 0.020465
-0.055120 0.138060 0.000000 0.045045
-0.028289 0.048947 0.000000 0.037922
-0.037184 0.082793 0.000000 0.039590
-0.028037 0.081416 0.000000 0.054337

SCALARS sigma float 4
LOOKUP_TABLE default
-1.041404 -2.019504 -0.840909 1.545572
-1.824969 -7.555764 -2.577124 2.819216
0.667097 -0.019623 0.177877 0.868273
0.029852 -1.589569 -0.428494 1.066223
-1.824969 -7.555764 -2.577124 -2.819216
-1.041404 -2.019504 -0.840909 -1.545572
0.667097 -0.019623 0.177877 -0.868273
0.029852 -1.589569 -0.428494 -1.066223
-0.303844 0.947793 0.176909 -0.618465
-0.325236 2.805805 0.681475 -0.630945
-0.264221 1.699616 0.394339 -0.609107
-0.032522 1.742814 0.469860 -0.859558
0.058621 3.869768 1.079228 -0.274158
0.177602 6.407170 1.809003 0.857605
0.908065 4.768642 1.559535 -0.214567
-0.760156 4.131965 0.926321 -0.319797
2.671082 7.051657 2.671082 0.363595
2.610185 6.890887 2.610185 0.000000
0.273536 4.566397 1.329652 -0.078770
0.989784 6.423591 2.036642 0.314917
2.610185 6.890887 2.610185 0.000000
2.671082 7.051657 2.671082 -0.363595
0.273536 4.566397 1.329652 0.078770
0.989784 6.423591 2.036642 -0.314917
0.177602 6.407170 1.809003 -0.857605
0.058621 3.869768 1.079228 0.274158
0.908065 4.768642 1.559535 0.214567
-0.760156 4.131965 0.926321 0.319797
-0.325236 2.805805 0.681475 0.630945
-0.303844 0.947793 0.176909 0.618465
-0.264221 1.699616 0.394339 0.609107
-0.032522 1.742814 0.469860 0.859558

