# vtk DataFile Version 2.0
Unstructured Grid Example
ASCII
DATASET UNSTRUCTURED_GRID

POINTS 64 float
-1.000000 -0.006039 0.000000 
-0.937500 0.000349 0.000000 
-0.937500 -0.002708 0.000000 
-0.875000 0.000074 0.000000 
-0.875000 -0.001424 0.000000 
-0.812500 0.000290 0.000000 
-0.812500 -0.000563 0.000000 
-0.750000 0.000282 0.000000 
-0.625000 0.000000 0.000000 
-0.562500 0.000000 0.000000 
-0.562500 0.000000 0.000000 
-0.500000 0.000000 0.000000 
-0.750000 0.000000 0.000000 
-0.687500 0.000000 0.000000 
-0.687500 0.000000 0.000000 
-0.625000 0.000000 0.000000 
-0.125000 -0.232612 0.000000 
-0.062500 -0.459503 0.000000 
-0.062500 -0.371582 0.000000 
0.000000 -0.408455 0.000000 
-0.250000 0.140877 0.000000 
-0.187500 -0.350027 0.000000 
-0.187500 -0.064543 0.000000 
-0.125000 -0.430092 0.000000 
-0.500000 0.000000 0.000000 
-0.437500 0.000000 0.000000 
-0.437500 0.000000 0.000000 
-0.375000 0.000000 0.000000 
-0.375000 0.000000 0.000000 
-0.312500 0.000000 0.000000 
-0.312500 0.022758 0.000000 
-0.250000 -0.045515 0.000000 
0.000000 -0.448936 0.000000 
0.062500 -0.290620 0.000000 
0.062500 -0.445325 0.000000 
0.125000 -0.139527 0.000000 
0.125000 -0.362837 0.000000 
0.187500 0.001295 0.000000 
0.187500 -0.234703 0.000000 
0.250000 0.109160 0.000000 
0.375000 0.014578 0.000000 
0.437500 -0.029156 0.000000 
0.437500 0.000773 0.000000 
0.500000 -0.045279 0.000000 
0.250000 -0.010922 0.000000 
0.312500 0.005461 0.000000 
0.312500 0.000000 0.000000 
0.375000 0.000000 0.000000 
0.875000 0.000571 0.000000 
0.937500 -0.001530 0.000000 
0.937500 0.000847 0.000000 
1.000000 -0.004183 0.000000 
0.750000 0.000000 0.000000 
0.812500 0.000000 0.000000 
0.812500 0.000129 0.000000 
0.875000 -0.000259 0.000000 
0.500000 -0.055378 0.000000 
0.562500 0.020972 0.000000 
0.562500 -0.008155 0.000000 
0.625000 0.002875 0.000000 
0.625000 -0.001603 0.000000 
0.687500 0.000802 0.000000 
0.687500 0.000000 0.000000 
0.750000 0.000000 0.000000 

CELLS 32 96
2  0 1 
2  2 3 
2  4 5 
2  6 7 
2  8 9 
2  10 11 
2  12 13 
2  14 15 
2  16 17 
2  18 19 
2  20 21 
2  22 23 
2  24 25 
2  26 27 
2  28 29 
2  30 31 
2  32 33 
2  34 35 
2  36 37 
2  38 39 
2  40 41 
2  42 43 
2  44 45 
2  46 47 
2  48 49 
2  50 51 
2  52 53 
2  54 55 
2  56 57 
2  58 59 
2  60 61 
2  62 63 

CELL_TYPES 32
3
3
3
3
3
3
3
3
3
3
3
3
3
3
3
3
3
3
3
3
3
3
3
3
3
3
3
3
3
3
3
3

POINT_DATA 64

SCALARS lambda_h float 1
LOOKUP_TABLE default
-0.006039 
0.000349 
-0.002708 
0.000074 
-0.001424 
0.000290 
-0.000563 
0.000282 
0.000000 
0.000000 
0.000000 
0.000000 
0.000000 
0.000000 
0.000000 
0.000000 
-0.232612 
-0.459503 
-0.371582 
-0.408455 
0.140877 
-0.350027 
-0.064543 
-0.430092 
0.000000 
0.000000 
0.000000 
0.000000 
0.000000 
0.000000 
0.022758 
-0.045515 
-0.448936 
-0.290620 
-0.445325 
-0.139527 
-0.362837 
0.001295 
-0.234703 
0.109160 
0.014578 
-0.029156 
0.000773 
-0.045279 
-0.010922 
0.005461 
0.000000 
0.000000 
0.000571 
-0.001530 
0.000847 
-0.004183 
0.000000 
0.000000 
0.000129 
-0.000259 
-0.055378 
0.020972 
-0.008155 
0.002875 
-0.001603 
0.000802 
0.000000 
0.000000 

