# vtk DataFile Version 2.0
Unstructured Grid Example
ASCII
DATASET UNSTRUCTURED_GRID

POINTS 16 float
-1.000000 0.000000 0.000000 
-0.750000 0.000000 0.000000 
-0.750000 0.000000 0.000000 
-0.500000 0.000000 0.000000 
-0.500000 0.000000 0.000000 
-0.250000 0.000000 0.000000 
-0.250000 0.628674 0.000000 
0.000000 -1.257347 0.000000 
0.000000 -1.257347 0.000000 
0.250000 0.628674 0.000000 
0.250000 0.000000 0.000000 
0.500000 0.000000 0.000000 
0.500000 0.000000 0.000000 
0.750000 0.000000 0.000000 
0.750000 0.000000 0.000000 
1.000000 0.000000 0.000000 

CELLS 8 24
2  0 1 
2  2 3 
2  4 5 
2  6 7 
2  8 9 
2  10 11 
2  12 13 
2  14 15 

CELL_TYPES 8
3
3
3
3
3
3
3
3

POINT_DATA 16

SCALARS lambda_h float 1
LOOKUP_TABLE default
0.000000 
0.000000 
0.000000 
0.000000 
0.000000 
0.000000 
0.628674 
-1.257347 
-1.257347 
0.628674 
0.000000 
0.000000 
0.000000 
0.000000 
0.000000 
0.000000 

