# vtk DataFile Version 2.0
Unstructured Grid Example
ASCII
DATASET UNSTRUCTURED_GRID

POINTS 32 float
-1.000000 0.000000 0.000000 
-0.875000 0.000000 0.000000 
-0.875000 0.000000 0.000000 
-0.750000 0.000000 0.000000 
-0.750000 0.000000 0.000000 
-0.625000 0.000000 0.000000 
-0.625000 0.000000 0.000000 
-0.500000 0.000000 0.000000 
-0.250000 0.356798 0.000000 
-0.125000 -0.713596 0.000000 
-0.125000 -0.172447 0.000000 
0.000000 -0.725500 0.000000 
-0.500000 0.000000 0.000000 
-0.375000 0.000000 0.000000 
-0.375000 0.000000 0.000000 
-0.250000 0.000000 0.000000 
0.000000 -0.898731 0.000000 
0.125000 0.174015 0.000000 
0.125000 -0.367134 0.000000 
0.250000 0.183567 0.000000 
0.250000 0.000000 0.000000 
0.375000 0.000000 0.000000 
0.375000 0.004168 0.000000 
0.500000 -0.008337 0.000000 
0.750000 0.000000 0.000000 
0.875000 0.000000 0.000000 
0.875000 0.006486 0.000000 
1.000000 -0.012971 0.000000 
0.500000 -0.008337 0.000000 
0.625000 0.004168 0.000000 
0.625000 0.000000 0.000000 
0.750000 0.000000 0.000000 

CELLS 16 48
2  0 1 
2  2 3 
2  4 5 
2  6 7 
2  8 9 
2  10 11 
2  12 13 
2  14 15 
2  16 17 
2  18 19 
2  20 21 
2  22 23 
2  24 25 
2  26 27 
2  28 29 
2  30 31 

CELL_TYPES 16
3
3
3
3
3
3
3
3
3
3
3
3
3
3
3
3

POINT_DATA 32

SCALARS lambda_h float 1
LOOKUP_TABLE default
0.000000 
0.000000 
0.000000 
0.000000 
0.000000 
0.000000 
0.000000 
0.000000 
0.356798 
-0.713596 
-0.172447 
-0.725500 
0.000000 
0.000000 
0.000000 
0.000000 
-0.898731 
0.174015 
-0.367134 
0.183567 
0.000000 
0.000000 
0.004168 
-0.008337 
0.000000 
0.000000 
0.006486 
-0.012971 
-0.008337 
0.004168 
0.000000 
0.000000 

