# vtk DataFile Version 2.0
Unstructured Grid Example
ASCII
DATASET UNSTRUCTURED_GRID

POINTS 117 float
-0.996527 0.000516 0.000000 
-0.005223 0.039370 0.000000 
1.000189 0.002364 0.000000 
-1.000005 1.001537 0.000000 
0.003962 1.043314 0.000000 
1.001563 1.002691 0.000000 
-1.000359 2.001262 0.000000 
0.002144 2.077071 0.000000 
1.001965 2.002477 0.000000 
-1.000000 3.000000 0.000000 
0.000000 3.000000 0.000000 
1.000000 3.000000 0.000000 
-0.495924 0.004445 0.000000 
-0.499473 0.501988 0.000000 
-0.999685 0.501076 0.000000 
0.004307 0.538998 0.000000 
-0.500215 1.003071 0.000000 
0.500517 0.003079 0.000000 
0.501577 0.504533 0.000000 
1.002079 0.502766 0.000000 
0.501592 1.001626 0.000000 
-0.500051 1.502369 0.000000 
-1.000601 1.501376 0.000000 
-0.004751 1.546750 0.000000 
-0.500840 2.004723 0.000000 
0.502301 1.504468 0.000000 
1.001369 1.502652 0.000000 
0.501658 2.009820 0.000000 
-0.499360 2.514119 0.000000 
-0.998932 2.501195 0.000000 
0.001531 2.570206 0.000000 
-0.500000 3.000000 0.000000 
0.499609 2.510945 0.000000 
1.001220 2.501964 0.000000 
0.500000 3.000000 0.000000 
-0.746424 0.002071 0.000000 
-0.748768 0.251922 0.000000 
-0.998598 0.250619 0.000000 
-0.270572 0.267965 0.000000 
-0.498868 0.253546 0.000000 
-0.252642 0.016015 0.000000 
-0.999952 0.751419 0.000000 
-0.749793 0.501873 0.000000 
-0.749943 0.751828 0.000000 
-0.000544 0.283731 0.000000 
-0.272215 0.515309 0.000000 
-0.228900 1.011777 0.000000 
-0.251726 0.761454 0.000000 
0.006841 0.793510 0.000000 
-0.500050 0.752185 0.000000 
-0.749998 1.001952 0.000000 
0.261789 0.018757 0.000000 
0.275759 0.263829 0.000000 
0.751648 0.253435 0.000000 
0.501999 0.254856 0.000000 
0.750124 0.003234 0.000000 
0.272686 0.510137 0.000000 
0.249461 0.763082 0.000000 
1.001572 0.252583 0.000000 
0.752029 0.503238 0.000000 
0.751559 1.002387 0.000000 
0.751872 0.752735 0.000000 
1.001948 0.752767 0.000000 
0.501343 0.752853 0.000000 
0.228764 1.020682 0.000000 
-0.750196 1.251907 0.000000 
-1.000250 1.251503 0.000000 
-0.226764 1.268915 0.000000 
-0.500061 1.253183 0.000000 
-1.000716 1.751266 0.000000 
-0.750484 1.501500 0.000000 
-0.750608 1.750969 0.000000 
-0.001695 1.292015 0.000000 
-0.247747 1.530216 0.000000 
-0.273761 2.046368 0.000000 
-0.271151 1.790473 0.000000 
-0.002556 1.810408 0.000000 
-0.500422 1.752220 0.000000 
-0.750339 2.000723 0.000000 
0.231158 1.277938 0.000000 
0.751369 1.252459 0.000000 
0.502055 1.252196 0.000000 
0.254117 1.531976 0.000000 
0.274388 1.784709 0.000000 
1.001307 1.252653 0.000000 
0.751406 1.502782 0.000000 
0.751837 2.002732 0.000000 
0.751596 1.752963 0.000000 
1.001671 1.752602 0.000000 
0.502139 1.757324 0.000000 
0.271085 2.039864 0.000000 
-0.749667 2.250993 0.000000 
-0.999613 2.251314 0.000000 
-0.252865 2.297273 0.000000 
-0.500594 2.259952 0.000000 
-0.999079 2.750691 0.000000 
-0.748931 2.501602 0.000000 
-0.748874 2.751643 0.000000 
0.004149 2.334345 0.000000 
-0.228744 2.540984 0.000000 
-0.250000 3.000000 0.000000 
-0.224807 2.771630 0.000000 
-0.001918 2.782262 0.000000 
-0.498133 2.760325 0.000000 
-0.750000 3.000000 0.000000 
0.246535 2.296531 0.000000 
0.751864 2.252256 0.000000 
0.500903 2.261469 0.000000 
0.224282 2.545403 0.000000 
0.226574 2.774866 0.000000 
1.001923 2.252328 0.000000 
0.751065 2.501787 0.000000 
0.750000 3.000000 0.000000 
0.749052 2.750905 0.000000 
0.999711 2.750870 0.000000 
0.497898 2.755560 0.000000 
0.250000 3.000000 0.000000 

CELLS 192 768
3  0 35 37 
3  12 36 35 
3  14 37 36 
3  35 36 37 
3  1 38 40 
3  13 39 38 
3  12 40 39 
3  38 39 40 
3  3 41 43 
3  14 42 41 
3  13 43 42 
3  41 42 43 
3  12 39 36 
3  13 42 39 
3  14 36 42 
3  39 42 36 
3  1 44 38 
3  15 45 44 
3  13 38 45 
3  44 45 38 
3  4 46 48 
3  16 47 46 
3  15 48 47 
3  46 47 48 
3  3 43 50 
3  13 49 43 
3  16 50 49 
3  43 49 50 
3  15 47 45 
3  16 49 47 
3  13 45 49 
3  47 49 45 
3  1 51 44 
3  17 52 51 
3  15 44 52 
3  51 52 44 
3  2 53 55 
3  18 54 53 
3  17 55 54 
3  53 54 55 
3  4 48 57 
3  15 56 48 
3  18 57 56 
3  48 56 57 
3  17 54 52 
3  18 56 54 
3  15 52 56 
3  54 56 52 
3  2 58 53 
3  19 59 58 
3  18 53 59 
3  58 59 53 
3  5 60 62 
3  20 61 60 
3  19 62 61 
3  60 61 62 
3  4 57 64 
3  18 63 57 
3  20 64 63 
3  57 63 64 
3  19 61 59 
3  20 63 61 
3  18 59 63 
3  61 63 59 
3  3 50 66 
3  16 65 50 
3  22 66 65 
3  50 65 66 
3  4 67 46 
3  21 68 67 
3  16 46 68 
3  67 68 46 
3  6 69 71 
3  22 70 69 
3  21 71 70 
3  69 70 71 
3  16 68 65 
3  21 70 68 
3  22 65 70 
3  68 70 65 
3  4 72 67 
3  23 73 72 
3  21 67 73 
3  72 73 67 
3  7 74 76 
3  24 75 74 
3  23 76 75 
3  74 75 76 
3  6 71 78 
3  21 77 71 
3  24 78 77 
3  71 77 78 
3  23 75 73 
3  24 77 75 
3  21 73 77 
3  75 77 73 
3  4 64 72 
3  20 79 64 
3  23 72 79 
3  64 79 72 
3  5 80 60 
3  25 81 80 
3  20 60 81 
3  80 81 60 
3  7 76 83 
3  23 82 76 
3  25 83 82 
3  76 82 83 
3  20 81 79 
3  25 82 81 
3  23 79 82 
3  81 82 79 
3  5 84 80 
3  26 85 84 
3  25 80 85 
3  84 85 80 
3  8 86 88 
3  27 87 86 
3  26 88 87 
3  86 87 88 
3  7 83 90 
3  25 89 83 
3  27 90 89 
3  83 89 90 
3  26 87 85 
3  27 89 87 
3  25 85 89 
3  87 89 85 
3  6 78 92 
3  24 91 78 
3  29 92 91 
3  78 91 92 
3  7 93 74 
3  28 94 93 
3  24 74 94 
3  93 94 74 
3  9 95 97 
3  29 96 95 
3  28 97 96 
3  95 96 97 
3  24 94 91 
3  28 96 94 
3  29 91 96 
3  94 96 91 
3  7 98 93 
3  30 99 98 
3  28 93 99 
3  98 99 93 
3  10 100 102 
3  31 101 100 
3  30 102 101 
3  100 101 102 
3  9 97 104 
3  28 103 97 
3  31 104 103 
3  97 103 104 
3  30 101 99 
3  31 103 101 
3  28 99 103 
3  101 103 99 
3  7 90 98 
3  27 105 90 
3  30 98 105 
3  90 105 98 
3  8 106 86 
3  32 107 106 
3  27 86 107 
3  106 107 86 
3  10 102 109 
3  30 108 102 
3  32 109 108 
3  102 108 109 
3  27 107 105 
3  32 108 107 
3  30 105 108 
3  107 108 105 
3  8 110 106 
3  33 111 110 
3  32 106 111 
3  110 111 106 
3  11 112 114 
3  34 113 112 
3  33 114 113 
3  112 113 114 
3  10 109 116 
3  32 115 109 
3  34 116 115 
3  109 115 116 
3  33 113 111 
3  34 115 113 
3  32 111 115 
3  113 115 111 

CELL_TYPES 192
5
5
5
5
5
5
5
5
5
5
5
5
5
5
5
5
5
5
5
5
5
5
5
5
5
5
5
5
5
5
5
5
5
5
5
5
5
5
5
5
5
5
5
5
5
5
5
5
5
5
5
5
5
5
5
5
5
5
5
5
5
5
5
5
5
5
5
5
5
5
5
5
5
5
5
5
5
5
5
5
5
5
5
5
5
5
5
5
5
5
5
5
5
5
5
5
5
5
5
5
5
5
5
5
5
5
5
5
5
5
5
5
5
5
5
5
5
5
5
5
5
5
5
5
5
5
5
5
5
5
5
5
5
5
5
5
5
5
5
5
5
5
5
5
5
5
5
5
5
5
5
5
5
5
5
5
5
5
5
5
5
5
5
5
5
5
5
5
5
5
5
5
5
5
5
5
5
5
5
5
5
5
5
5
5
5
5
5
5
5
5
5

POINT_DATA 117

SCALARS u_h float 2
LOOKUP_TABLE default
0.003473 0.000516 
-0.005223 0.039370 
0.000189 0.002364 
-0.000005 0.001537 
0.003962 0.043314 
0.001563 0.002691 
-0.000359 0.001262 
0.002144 0.077071 
0.001965 0.002477 
0.000000 0.000000 
0.000000 0.000000 
0.000000 0.000000 
0.004076 0.004445 
0.000527 0.001988 
0.000315 0.001076 
0.004307 0.038998 
-0.000215 0.003071 
0.000517 0.003079 
0.001577 0.004533 
0.002079 0.002766 
0.001592 0.001626 
-0.000051 0.002369 
-0.000601 0.001376 
-0.004751 0.046750 
-0.000840 0.004723 
0.002301 0.004468 
0.001369 0.002652 
0.001658 0.009820 
0.000640 0.014119 
0.001068 0.001195 
0.001531 0.070206 
0.000000 0.000000 
-0.000391 0.010945 
0.001220 0.001964 
0.000000 0.000000 
0.003576 0.002071 
0.001232 0.001922 
0.001402 0.000619 
-0.020572 0.017965 
0.001132 0.003546 
-0.002642 0.016015 
0.000048 0.001419 
0.000207 0.001873 
0.000057 0.001828 
-0.000544 0.033731 
-0.022215 0.015309 
0.021100 0.011777 
-0.001726 0.011454 
0.006841 0.043510 
-0.000050 0.002185 
0.000002 0.001952 
0.011789 0.018757 
0.025759 0.013829 
0.001648 0.003435 
0.001999 0.004856 
0.000124 0.003234 
0.022686 0.010137 
-0.000539 0.013082 
0.001572 0.002583 
0.002029 0.003238 
0.001559 0.002387 
0.001872 0.002735 
0.001948 0.002767 
0.001343 0.002853 
-0.021236 0.020682 
-0.000196 0.001907 
-0.000250 0.001503 
0.023236 0.018915 
-0.000061 0.003183 
-0.000716 0.001266 
-0.000484 0.001500 
-0.000608 0.000969 
-0.001695 0.042015 
0.002253 0.030216 
-0.023761 0.046368 
-0.021151 0.040473 
-0.002556 0.060408 
-0.000422 0.002220 
-0.000339 0.000723 
-0.018842 0.027938 
0.001369 0.002459 
0.002055 0.002196 
0.004117 0.031976 
0.024388 0.034709 
0.001307 0.002653 
0.001406 0.002782 
0.001837 0.002732 
0.001596 0.002963 
0.001671 0.002602 
0.002139 0.007324 
0.021085 0.039864 
0.000333 0.000993 
0.000387 0.001314 
-0.002865 0.047273 
-0.000594 0.009952 
0.000921 0.000691 
0.001069 0.001602 
0.001126 0.001643 
0.004149 0.084345 
0.021256 0.040984 
0.000000 0.000000 
0.025193 0.021630 
-0.001918 0.032262 
0.001867 0.010325 
0.000000 0.000000 
-0.003465 0.046531 
0.001864 0.002256 
0.000903 0.011469 
-0.025718 0.045403 
-0.023426 0.024866 
0.001923 0.002328 
0.001065 0.001787 
0.000000 0.000000 
-0.000948 0.000905 
-0.000289 0.000870 
-0.002102 0.005560 
0.000000 0.000000 

CELL_DATA 192

SCALARS epsilon float 4
LOOKUP_TABLE default
0.000499 0.000484 0.000000 -0.001032
0.002132 -0.000461 0.000000 0.000072
-0.000650 0.001861 0.000000 0.000425
-0.000589 -0.000532 0.000000 -0.002085
-0.001130 0.018792 0.000000 0.010123
-0.090395 -0.004080 0.000000 0.027431
-0.026600 -0.001901 0.000000 0.017157
-0.083096 0.014200 0.000000 -0.010880
0.000038 0.000471 0.000000 0.000713
-0.000429 0.001381 0.000000 0.001058
0.001279 -0.000180 0.000000 -0.000070
0.000039 -0.000178 0.000000 0.000518
-0.000250 -0.003502 0.000000 -0.002630
0.001283 -0.006252 0.000000 -0.000980
-0.000411 -0.000177 0.000000 -0.000456
-0.000362 -0.000147 0.000000 0.001198
0.075966 -0.022143 0.000000 0.040745
0.099049 0.022750 0.000000 0.054756
-0.094652 -0.008540 0.000000 0.023045
0.077326 -0.008555 0.000000 0.028649
-0.069261 0.009933 0.000000 0.056618
0.082288 -0.001123 0.000000 0.059354
0.032493 0.024084 0.000000 0.067809
0.026295 -0.002237 0.000000 0.108135
0.000029 0.000497 0.000000 0.000721
-0.000420 0.000792 0.000000 -0.000440
-0.000868 0.003553 0.000000 0.001899
-0.000426 0.000496 0.000000 0.000604
0.096293 -0.018853 0.000000 0.084765
-0.006703 0.004257 0.000000 0.018138
-0.094927 0.002637 0.000000 0.025087
-0.006307 -0.017927 0.000000 0.060067
0.067371 -0.018227 0.000000 -0.033241
-0.040604 -0.013943 0.000000 -0.002674
0.101229 0.024697 0.000000 -0.029845
0.105105 -0.013133 0.000000 -0.014931
0.000301 0.000833 0.000000 0.001309
-0.001413 -0.001285 0.000000 -0.003688
-0.001560 0.007077 0.000000 0.003276
-0.001352 0.000857 0.000000 0.000214
-0.031329 0.005670 0.000000 -0.066772
0.071931 0.024521 0.000000 -0.051707
-0.085147 0.009755 0.000000 -0.061708
-0.036941 0.007992 0.000000 -0.107901
-0.099256 0.008089 0.000000 -0.014349
-0.088006 -0.001033 0.000000 -0.012048
0.069554 -0.010246 0.000000 -0.064046
-0.099902 -0.014560 0.000000 -0.024804
-0.000269 0.000902 0.000000 0.001064
0.000205 0.000736 0.000000 0.000069
0.001815 -0.000768 0.000000 -0.001830
-0.000296 -0.000778 0.000000 -0.000943
0.000018 -0.000300 0.000000 -0.000163
-0.000130 -0.001382 0.000000 0.000899
0.000306 0.000005 0.000000 -0.000196
0.000307 -0.001390 0.000000 -0.000561
-0.109765 0.026673 0.000000 -0.089296
0.007465 -0.005944 0.000000 -0.021060
0.087245 -0.002388 0.000000 -0.037576
0.007435 0.027454 0.000000 -0.060911
0.000198 -0.002015 0.000000 -0.001261
0.002113 -0.004920 0.000000 0.000259
0.001801 -0.006733 0.000000 -0.003074
0.002111 -0.002016 0.000000 -0.000551
0.000031 -0.000132 0.000000 0.000341
-0.000868 -0.000168 0.000000 0.001843
0.000219 -0.000506 0.000000 0.000105
0.000217 -0.000179 0.000000 0.000411
-0.071968 0.035712 0.000000 0.065564
0.088877 -0.001597 0.000000 0.031357
0.081630 0.000941 0.000000 0.017579
0.088433 0.029238 0.000000 0.034276
0.000432 -0.000011 0.000000 0.000120
0.000467 -0.000440 0.000000 0.000020
0.001735 -0.002120 0.000000 0.001493
0.000429 -0.002127 0.000000 -0.000842
0.000534 0.000456 0.000000 0.002860
0.001733 -0.003256 0.000000 0.001763
0.000468 -0.001625 0.000000 -0.000327
0.000544 -0.001607 0.000000 0.001980
-0.102015 0.002421 0.000000 0.033330
-0.027515 0.021802 0.000000 0.026143
0.021105 0.058467 0.000000 0.011797
-0.092607 0.057117 0.000000 -0.002749
0.096478 0.067946 0.000000 0.065566
-0.093930 0.041164 0.000000 0.074833
0.071040 0.055006 0.000000 0.041703
0.072423 0.026686 0.000000 0.033907
0.000086 -0.000981 0.000000 -0.000540
0.000754 -0.000574 0.000000 0.001762
-0.001979 0.010112 0.000000 0.007083
0.000741 -0.000979 0.000000 0.003044
-0.018083 0.048383 0.000000 -0.016309
-0.086049 0.023871 0.000000 0.074220
0.009337 0.005666 0.000000 0.054988
-0.066868 0.067510 0.000000 0.022192
-0.107753 -0.002357 0.000000 -0.057485
0.087856 0.031552 0.000000 -0.032390
-0.071565 0.019798 0.000000 -0.034038
-0.070317 0.030888 0.000000 -0.022078
0.000016 0.000289 0.000000 0.000228
-0.002750 0.009048 0.000000 0.001015
-0.000138 0.002277 0.000000 0.002445
-0.002749 0.000288 0.000000 0.000145
0.103769 0.069838 0.000000 -0.039266
0.035351 0.055080 0.000000 -0.023757
0.004767 0.025625 0.000000 -0.013598
0.111947 0.022436 0.000000 -0.013708
0.080292 0.006946 0.000000 -0.050205
-0.007182 0.015187 0.000000 -0.054022
0.043752 0.022727 0.000000 0.015292
0.092031 0.028869 0.000000 -0.007948
-0.000246 -0.000153 0.000000 -0.000124
-0.000150 -0.000002 0.000000 -0.000136
-0.003586 0.001314 0.000000 -0.003294
-0.000247 0.001291 0.000000 0.000462
0.000511 -0.000497 0.000000 0.000078
0.000746 -0.000496 0.000000 -0.013707
0.000301 -0.000200 0.000000 -0.000119
0.000300 -0.000923 0.000000 -0.000241
0.071197 0.027833 0.000000 -0.078706
-0.092997 0.018348 0.000000 -0.053991
-0.080951 0.018012 0.000000 -0.060111
-0.094362 0.025809 0.000000 -0.060383
-0.000149 0.000725 0.000000 0.000121
-0.002204 0.010050 0.000000 -0.009600
-0.003591 0.011375 0.000000 -0.003662
-0.002159 0.000890 0.000000 -0.008335
0.000094 0.000216 0.000000 0.000414
-0.002047 0.001166 0.000000 0.009337
-0.000210 -0.000471 0.000000 0.000720
-0.000210 0.001085 0.000000 0.000703
0.091961 0.000566 0.000000 0.098605
-0.009845 0.026794 0.000000 0.075902
-0.096018 0.036662 0.000000 0.081292
-0.018126 0.002543 0.000000 0.116510
0.000843 -0.002745 0.000000 0.000071
0.000007 -0.002018 0.000000 0.000521
-0.001729 0.001413 0.000000 0.025144
0.000821 0.000173 0.000000 0.002019
-0.003748 0.021284 0.000000 0.018044
-0.001950 0.017504 0.000000 0.027095
0.000006 0.002428 0.000000 0.002284
-0.003815 0.002970 0.000000 0.019351
0.026565 0.037392 0.000000 0.075894
-0.080517 -0.047724 0.000000 0.055846
0.073521 -0.030049 0.000000 0.099377
0.018057 -0.028570 0.000000 0.122889
0.000039 -0.137193 0.000000 0.003751
0.006085 -0.090231 0.000000 -0.049934
-0.113307 -0.160595 0.000000 0.017211
-0.101488 -0.083678 0.000000 -0.033102
0.000010 -0.006596 0.000000 -0.002252
0.002799 -0.014846 0.000000 0.020076
0.000030 -0.042150 0.000000 -0.003727
0.003127 -0.005832 0.000000 0.015232
-0.083966 -0.073042 0.000000 0.071344
0.089328 -0.040898 0.000000 0.020003
0.078600 -0.010701 0.000000 0.056512
0.088404 -0.080085 0.000000 0.031484
0.074007 0.038765 0.000000 -0.068218
-0.087630 0.022036 0.000000 -0.111193
-0.032584 -0.046154 0.000000 -0.085450
-0.040915 0.023182 0.000000 -0.124136
0.000509 -0.001902 0.000000 -0.000457
0.003661 -0.001612 0.000000 -0.021042
0.000638 0.006887 0.000000 -0.015592
0.003842 -0.001223 0.000000 -0.018408
-0.089370 -0.136224 0.000000 -0.012731
-0.116468 -0.156031 0.000000 -0.065067
0.097499 -0.074984 0.000000 -0.070301
-0.089319 -0.084554 0.000000 -0.010999
0.016910 0.015546 0.000000 -0.071128
0.095586 0.005127 0.000000 -0.070833
-0.119555 -0.008145 0.000000 -0.098881
0.008878 -0.007095 0.000000 -0.114168
0.000235 -0.000596 0.000000 0.000060
0.000625 -0.001457 0.000000 -0.001052
0.005698 -0.001329 0.000000 -0.019938
0.000241 -0.001877 0.000000 -0.001453
0.000001 -0.003488 0.000000 0.000577
0.000007 -0.003628 0.000000 0.001896
0.002651 -0.004383 0.000000 -0.003080
0.002642 -0.003628 0.000000 0.001821
0.005413 -0.104349 0.000000 0.046280
0.081206 -0.019624 0.000000 -0.042371
0.000037 -0.022487 0.000000 0.004201
0.093535 -0.093980 0.000000 0.000154
0.000657 -0.003528 0.000000 -0.003670
0.004801 -0.022149 0.000000 -0.005339
0.005580 -0.021335 0.000000 -0.022118
0.004487 -0.003511 0.000000 -0.013350

SCALARS sigma float 4
LOOKUP_TABLE default
0.008926 0.008926 0.005356 -0.007933
0.025162 0.005224 0.009116 0.000456
0.001767 0.021040 0.006842 0.003310
-0.011677 -0.011004 -0.006805 -0.016046
0.033213 0.172044 0.061577 0.083130
-1.312827 -0.629873 -0.582810 0.234136
-0.381548 -0.196960 -0.173552 0.136796
-1.143573 -0.356261 -0.449950 -0.058424
0.003215 0.006534 0.002925 0.005481
0.002156 0.016037 0.005458 0.008148
0.016164 0.004945 0.006333 -0.000544
-0.000520 -0.002197 -0.000815 0.003985
-0.024674 -0.049363 -0.022211 -0.020382
-0.018969 -0.077053 -0.028807 -0.007599
-0.006696 -0.004866 -0.003469 -0.003503
-0.005955 -0.004399 -0.003106 0.009225
0.844742 0.095827 0.282171 0.298255
1.381159 0.801134 0.654688 0.389414
-1.401040 -0.714151 -0.634557 0.199673
0.943577 0.290668 0.370274 0.203226
-0.963731 -0.404509 -0.410472 0.472998
1.011729 0.415571 0.428190 0.447721
0.525194 0.406560 0.279526 0.506019
0.238733 -0.009001 0.068920 0.824645
0.003252 0.006835 0.003026 0.005549
-0.001133 0.008203 0.002121 -0.003378
0.008708 0.042602 0.015393 0.014634
-0.002878 0.004207 0.000399 0.004648
1.071319 0.206870 0.383457 0.628589
-0.070014 0.009102 -0.018274 0.140492
-1.339791 -0.564062 -0.571156 0.215493
-0.241736 -0.310490 -0.165668 0.469586
0.751797 0.085171 0.251090 -0.234474
-0.677091 -0.469342 -0.343930 -0.027957
1.424897 0.852141 0.683111 -0.204897
1.239338 0.356014 0.478606 -0.083875
0.008572 0.012759 0.006399 0.010054
-0.026569 -0.025699 -0.015680 -0.028412
0.019438 0.085823 0.031579 0.025040
-0.013611 0.003400 -0.003063 0.001598
-0.442417 -0.214138 -0.196967 -0.529162
1.043568 0.653596 0.509149 -0.370219
-1.220219 -0.419478 -0.491909 -0.479869
-0.570308 -0.242996 -0.243991 -0.850422
-1.368251 -0.506314 -0.562369 -0.126427
-1.249718 -0.550255 -0.539992 -0.101389
0.810634 0.167715 0.293505 -0.465136
-1.510505 -0.817595 -0.698430 -0.207975
0.001343 0.010416 0.003528 0.008164
0.006968 0.011056 0.005407 0.000530
0.019882 -0.000064 0.005946 -0.014037
-0.008529 -0.012269 -0.006240 -0.007252
-0.001512 -0.003959 -0.001641 -0.001259
-0.009761 -0.019429 -0.008757 0.006910
0.004148 0.001835 0.001795 -0.001510
-0.003906 -0.016960 -0.006260 -0.004321
-1.506479 -0.408397 -0.574463 -0.725315
0.060860 -0.048677 0.003655 -0.160857
1.099189 0.417644 0.455050 -0.266422
0.208760 0.378761 0.176256 -0.459800
-0.008986 -0.026040 -0.010508 -0.009705
-0.000056 -0.054227 -0.016285 0.002015
-0.014838 -0.080749 -0.028676 -0.023635
0.016747 -0.015002 0.000523 -0.004242
-0.000355 -0.001614 -0.000591 0.002624
-0.012718 -0.007406 -0.006037 0.014190
0.000008 -0.005568 -0.001668 0.000802
0.001880 -0.001175 0.000212 0.003161
-0.853144 -0.072581 -0.277718 0.541350
1.128645 0.447775 0.472926 0.222276
1.059805 0.458887 0.455607 0.125534
1.299134 0.856745 0.646764 0.244599
0.005738 0.002333 0.002421 0.000924
0.003738 -0.003240 0.000150 0.000155
0.011052 -0.018649 -0.002279 0.011457
-0.006518 -0.026204 -0.009816 -0.006478
0.009744 0.009044 0.005636 0.021986
0.004453 -0.033997 -0.008863 0.013541
-0.003098 -0.019200 -0.006689 -0.002526
-0.002042 -0.018689 -0.006219 0.015212
-1.472943 -0.662913 -0.640757 0.298932
-0.264835 0.099557 -0.049583 0.209200
0.538106 0.798251 0.400907 0.099236
-1.074287 0.100803 -0.292045 0.034326
1.589789 1.347754 0.881263 0.463592
-1.187656 -0.235771 -0.427028 0.644727
1.219652 1.085514 0.691550 0.300667
1.078585 0.723552 0.540641 0.242198
-0.004531 -0.012756 -0.005186 -0.004152
0.006750 -0.003559 0.000957 0.013539
0.030636 0.122319 0.045886 0.054666
0.004242 -0.009081 -0.001452 0.023404
-0.042704 0.478946 0.130872 -0.103809
-1.154274 -0.382784 -0.461118 0.628227
0.122614 0.047818 0.051129 0.419038
-0.690836 0.293012 -0.119347 0.235744
-1.586749 -0.762774 -0.704857 -0.487652
1.300752 0.874336 0.652527 -0.228117
-0.898643 -0.188698 -0.326202 -0.277941
-0.817287 -0.034327 -0.255484 -0.187431
0.001874 0.003967 0.001752 0.001753
0.014879 0.105351 0.036069 0.007783
0.011211 0.029749 0.012288 0.018797
-0.035397 -0.012008 -0.014222 0.001127
1.698864 1.431569 0.939130 -0.272963
0.768780 0.903672 0.501736 -0.177136
0.133657 0.271894 0.121665 -0.109963
1.504015 0.843715 0.704319 -0.074021
1.054757 0.478969 0.460118 -0.358025
-0.044447 0.081114 0.011000 -0.418630
0.648715 0.508207 0.347077 0.119064
1.284276 0.817179 0.630436 -0.038546
-0.004201 -0.003483 -0.002305 -0.000951
-0.002028 -0.000890 -0.000876 -0.001045
-0.040918 -0.003355 -0.013282 -0.025431
0.004109 0.015930 0.006012 0.003552
0.003995 -0.003754 0.000072 0.000605
0.004855 -0.007794 -0.000882 -0.105357
0.002876 -0.000977 0.000570 -0.000915
-0.001303 -0.010719 -0.003607 -0.001848
1.032020 0.644965 0.503095 -0.568664
-1.251527 -0.413106 -0.499390 -0.460001
-1.082236 -0.357893 -0.432039 -0.504270
-1.230403 -0.322113 -0.465755 -0.508577
0.002164 0.008886 0.003315 0.000927
0.027111 0.119881 0.044097 -0.073920
0.016694 0.131211 0.044371 -0.028232
-0.024846 -0.002548 -0.008218 -0.064265
0.002432 0.003387 0.001746 0.003186
-0.021640 0.002128 -0.005854 0.071939
-0.005596 -0.007587 -0.003955 0.005540
0.003382 0.013362 0.005023 0.005395
1.116829 0.415859 0.459806 0.723405
-0.042915 0.153868 0.033286 0.589218
-1.244193 -0.309989 -0.466255 0.695130
-0.348252 -0.248735 -0.179096 0.912049
-0.004654 -0.032279 -0.011080 0.000497
-0.011567 -0.027168 -0.011620 0.004000
-0.022406 -0.007896 -0.009091 0.193746
0.012001 0.006965 0.005690 0.015518
0.067446 0.253673 0.096336 0.139230
0.066776 0.206157 0.081880 0.208494
0.013999 0.032634 0.013990 0.017542
-0.038114 0.009193 -0.008676 0.149357
0.509395 0.516970 0.307910 0.568872
-1.469724 -1.272223 -0.822584 0.470342
0.694487 -0.097807 0.179004 0.750714
-0.056891 -0.471222 -0.158434 0.952955
-0.854831 -1.994606 -0.854831 0.033877
-0.546442 -1.275032 -0.546442 -0.424300
-2.652722 -3.093133 -1.723757 0.146008
-2.071738 -1.865758 -1.181249 -0.273628
-0.038178 -0.089082 -0.038178 -0.017440
-0.052452 -0.193752 -0.073861 0.154351
-0.248526 -0.579895 -0.248526 -0.029963
0.004623 -0.069002 -0.019314 0.116636
-1.682451 -1.669003 -1.005436 0.601625
0.906207 -0.081316 0.247467 0.138493
0.927533 0.222644 0.345053 0.405615
0.651611 -0.651247 0.000109 0.232662
1.130689 0.806754 0.581233 -0.488678
-1.239482 -0.380835 -0.486095 -0.898212
-0.803370 -1.023218 -0.547976 -0.681187
-0.568440 -0.120298 -0.206621 -0.978477
-0.004139 -0.022705 -0.008053 -0.003512
0.035802 -0.009833 0.007791 -0.161395
0.045855 0.090753 0.040982 -0.119799
0.040660 -0.003463 0.011159 -0.141054
-2.115866 -2.531453 -1.394196 -0.105858
-2.718842 -3.155022 -1.762159 -0.576159
0.745058 -0.649270 0.028736 -0.488929
-1.776681 -1.741096 -1.055333 -0.093576
0.261126 0.179423 0.132165 -0.538235
1.214486 0.490262 0.511424 -0.500801
-1.883147 -0.967883 -0.855309 -0.824391
-0.032406 -0.201445 -0.070155 -0.881408
-0.000273 -0.006669 -0.002083 0.000461
-0.000057 -0.016049 -0.004832 -0.008108
0.064908 0.005879 0.021236 -0.152597
-0.007660 -0.023927 -0.009476 -0.011203
-0.020157 -0.047033 -0.020157 0.004457
-0.020970 -0.048931 -0.020970 0.014638
0.010056 -0.043960 -0.010171 -0.023791
0.014449 -0.033745 -0.005789 0.014061
-0.637201 -1.486802 -0.637201 0.400199
0.921841 0.147552 0.320818 -0.304623
-0.131227 -0.306197 -0.131227 0.033071
0.559002 -0.884463 -0.097638 0.064377
-0.011987 -0.043980 -0.016790 -0.028346
-0.066309 -0.276584 -0.102868 -0.039976
-0.053940 -0.267910 -0.096555 -0.169941
0.038543 -0.024039 0.004351 -0.102489

