# vtk DataFile Version 2.0
Unstructured Grid Example
ASCII
DATASET UNSTRUCTURED_GRID

POINTS 425 float
-0.999865 0.000324 0.000000 
-0.003428 0.036510 0.000000 
0.998941 -0.000000 0.000000 
-1.000533 1.000982 0.000000 
0.000964 1.038747 0.000000 
0.999822 1.000222 0.000000 
-1.000305 2.000690 0.000000 
0.000795 2.075269 0.000000 
1.000448 2.000444 0.000000 
-1.000000 3.000000 0.000000 
0.000000 3.000000 0.000000 
1.000000 3.000000 0.000000 
-0.498935 0.002067 0.000000 
-0.500966 0.500839 0.000000 
-1.000832 0.500770 0.000000 
0.000777 0.533161 0.000000 
-0.500501 1.001460 0.000000 
0.498426 -0.000100 0.000000 
0.499760 0.501137 0.000000 
0.999767 0.500159 0.000000 
0.499654 0.999987 0.000000 
-0.500185 1.501387 0.000000 
-1.000529 1.500700 0.000000 
-0.002228 1.549878 0.000000 
-0.500605 2.005174 0.000000 
0.500489 1.501548 0.000000 
1.000047 1.500221 0.000000 
0.500539 2.006824 0.000000 
-0.499667 2.512923 0.000000 
-0.999686 2.500530 0.000000 
0.000607 2.567696 0.000000 
-0.500000 3.000000 0.000000 
0.499673 2.511368 0.000000 
1.000292 2.500528 0.000000 
0.500000 3.000000 0.000000 
-0.749720 0.000847 0.000000 
-0.750677 0.250831 0.000000 
-1.000551 0.250446 0.000000 
-0.273821 0.263849 0.000000 
-0.500757 0.251350 0.000000 
-0.253192 0.012585 0.000000 
-1.000717 0.750979 0.000000 
-0.750926 0.500919 0.000000 
-0.750740 0.750989 0.000000 
-0.001470 0.281221 0.000000 
-0.274209 0.512676 0.000000 
-0.227335 1.013208 0.000000 
-0.251149 0.761592 0.000000 
0.001969 0.786229 0.000000 
-0.500859 0.751066 0.000000 
-0.750494 1.001016 0.000000 
0.253735 0.013152 0.000000 
0.273708 0.260439 0.000000 
0.749502 0.250359 0.000000 
0.499858 0.250995 0.000000 
0.748864 0.000204 0.000000 
0.272819 0.509097 0.000000 
0.249131 0.761472 0.000000 
0.999426 0.250014 0.000000 
0.749802 0.500450 0.000000 
0.749792 1.000211 0.000000 
0.749824 0.750349 0.000000 
0.999848 0.750240 0.000000 
0.499574 0.750537 0.000000 
0.226231 1.016621 0.000000 
-0.750395 1.250892 0.000000 
-1.000480 1.250847 0.000000 
-0.226550 1.268928 0.000000 
-0.500186 1.251484 0.000000 
-1.000515 1.750649 0.000000 
-0.750450 1.500639 0.000000 
-0.750495 1.750425 0.000000 
-0.001153 1.292313 0.000000 
-0.249571 1.527791 0.000000 
-0.274119 2.045448 0.000000 
-0.273368 1.787403 0.000000 
-0.001209 1.812185 0.000000 
-0.500442 1.752252 0.000000 
-0.750337 2.000398 0.000000 
0.227112 1.272502 0.000000 
0.749880 1.250207 0.000000 
0.500045 1.250230 0.000000 
0.250989 1.528116 0.000000 
0.274025 1.784383 0.000000 
0.999868 1.250188 0.000000 
0.750104 1.500362 0.000000 
0.750468 2.000620 0.000000 
0.750338 1.750550 0.000000 
1.000282 1.750328 0.000000 
0.500686 1.753812 0.000000 
0.273107 2.042247 0.000000 
-0.749965 2.250530 0.000000 
-0.999948 2.250696 0.000000 
-0.250958 2.299357 0.000000 
-0.500332 2.259817 0.000000 
-0.999793 2.750220 0.000000 
-0.749623 2.500763 0.000000 
-0.749652 2.750821 0.000000 
0.001672 2.330595 0.000000 
-0.226734 2.544001 0.000000 
-0.250000 3.000000 0.000000 
-0.225292 2.772956 0.000000 
-0.000857 2.781681 0.000000 
-0.499250 2.758723 0.000000 
-0.750000 3.000000 0.000000 
0.248927 2.299008 0.000000 
0.750475 2.250568 0.000000 
0.500161 2.260058 0.000000 
0.225376 2.546209 0.000000 
0.225971 2.774662 0.000000 
1.000466 2.250522 0.000000 
0.750291 2.500595 0.000000 
0.750000 3.000000 0.000000 
0.749711 2.750541 0.000000 
0.999923 2.750330 0.000000 
0.499252 2.756731 0.000000 
0.250000 3.000000 0.000000 
-0.874846 0.000601 0.000000 
-0.875258 0.125589 0.000000 
-1.000235 0.125343 0.000000 
-0.625283 0.126087 0.000000 
-0.750266 0.125786 0.000000 
-0.624423 0.001213 0.000000 
-1.000756 0.375606 0.000000 
-0.875609 0.250652 0.000000 
-0.875821 0.375747 0.000000 
-0.140819 0.151529 0.000000 
-0.264566 0.138799 0.000000 
-0.131005 0.027835 0.000000 
-0.500905 0.375996 0.000000 
-0.382157 0.254177 0.000000 
-0.383731 0.377986 0.000000 
-0.374247 0.005242 0.000000 
-0.378910 0.130190 0.000000 
-0.500322 0.126766 0.000000 
-1.000616 0.876004 0.000000 
-0.875729 0.750955 0.000000 
-0.875611 0.875974 0.000000 
-0.875883 0.500837 0.000000 
-0.875836 0.625908 0.000000 
-1.000804 0.625900 0.000000 
-0.625888 0.625972 0.000000 
-0.750860 0.625953 0.000000 
-0.625957 0.500958 0.000000 
-0.625764 0.251066 0.000000 
-0.625940 0.376003 0.000000 
-0.750886 0.375883 0.000000 
-0.002253 0.157156 0.000000 
-0.149097 0.276620 0.000000 
-0.147606 0.527717 0.000000 
-0.151795 0.402196 0.000000 
-0.000363 0.406820 0.000000 
-0.277528 0.388396 0.000000 
-0.383205 0.501972 0.000000 
-0.101842 1.029220 0.000000 
-0.111094 0.903436 0.000000 
0.001722 0.912524 0.000000 
-0.372492 0.876960 0.000000 
-0.237520 0.886923 0.000000 
-0.369046 1.003177 0.000000 
0.001628 0.659739 0.000000 
-0.124142 0.778160 0.000000 
-0.137500 0.653011 0.000000 
-0.750607 0.876016 0.000000 
-0.875515 1.000962 0.000000 
-0.500953 0.625884 0.000000 
-0.625766 0.751037 0.000000 
-0.625478 1.001153 0.000000 
-0.625620 0.876113 0.000000 
-0.500697 0.876288 0.000000 
-0.264573 0.636958 0.000000 
-0.376741 0.751344 0.000000 
-0.380658 0.626371 0.000000 
0.127106 0.027835 0.000000 
0.137759 0.149686 0.000000 
0.379911 0.128400 0.000000 
0.264615 0.137095 0.000000 
0.375528 0.002919 0.000000 
0.147103 0.273096 0.000000 
0.151072 0.397878 0.000000 
0.874176 0.125141 0.000000 
0.749206 0.125259 0.000000 
0.873931 0.000118 0.000000 
0.499854 0.376196 0.000000 
0.624620 0.250588 0.000000 
0.624762 0.375710 0.000000 
0.623701 0.000208 0.000000 
0.624303 0.125369 0.000000 
0.499616 0.125505 0.000000 
0.125987 0.778118 0.000000 
0.112717 0.905644 0.000000 
0.148127 0.523868 0.000000 
0.138950 0.650743 0.000000 
0.377839 0.626002 0.000000 
0.262689 0.634830 0.000000 
0.381226 0.501465 0.000000 
0.382450 0.252990 0.000000 
0.382913 0.377226 0.000000 
0.276824 0.384332 0.000000 
0.999172 0.124978 0.000000 
0.874450 0.250190 0.000000 
0.874789 0.500279 0.000000 
0.874660 0.375243 0.000000 
0.999632 0.375085 0.000000 
0.749698 0.375431 0.000000 
0.624802 0.500707 0.000000 
0.874814 1.000230 0.000000 
0.874830 0.875255 0.000000 
0.999836 0.875240 0.000000 
0.624724 0.875255 0.000000 
0.749801 0.875272 0.000000 
0.624738 1.000122 0.000000 
0.999833 0.625214 0.000000 
0.874849 0.750280 0.000000 
0.874844 0.625291 0.000000 
0.235782 0.888827 0.000000 
0.102709 1.033094 0.000000 
0.499650 0.625886 0.000000 
0.373660 0.751056 0.000000 
0.367357 1.003018 0.000000 
0.369818 0.876732 0.000000 
0.499570 0.875202 0.000000 
0.749835 0.625416 0.000000 
0.624748 0.750431 0.000000 
0.624785 0.625599 0.000000 
-0.875458 1.125919 0.000000 
-1.000488 1.125924 0.000000 
-0.625368 1.126123 0.000000 
-0.750421 1.125976 0.000000 
-1.000501 1.375766 0.000000 
-0.875446 1.250851 0.000000 
-0.875467 1.375768 0.000000 
-0.098862 1.155906 0.000000 
-0.223320 1.140562 0.000000 
-0.500141 1.376397 0.000000 
-0.367784 1.256824 0.000000 
-0.370301 1.383899 0.000000 
-0.367323 1.129859 0.000000 
-0.500316 1.126526 0.000000 
-1.000437 1.875664 0.000000 
-0.875511 1.750567 0.000000 
-0.875442 1.875550 0.000000 
-0.875503 1.500684 0.000000 
-0.875526 1.625613 0.000000 
-1.000542 1.625659 0.000000 
-0.625408 1.625354 0.000000 
-0.750488 1.625514 0.000000 
-0.625344 1.500579 0.000000 
-0.625308 1.251006 0.000000 
-0.625303 1.375814 0.000000 
-0.750411 1.375773 0.000000 
-0.000091 1.165206 0.000000 
-0.102947 1.283796 0.000000 
-0.126335 1.543452 0.000000 
-0.113002 1.413012 0.000000 
-0.001936 1.420457 0.000000 
-0.236159 1.398104 0.000000 
-0.374197 1.510982 0.000000 
-0.147582 2.068027 0.000000 
-0.151636 1.937803 0.000000 
-0.000194 1.944076 0.000000 
-0.383518 1.892622 0.000000 
-0.277372 1.916754 0.000000 
-0.382994 2.020291 0.000000 
-0.001959 1.680564 0.000000 
-0.148634 1.806458 0.000000 
-0.139375 1.674779 0.000000 
-0.750449 1.875386 0.000000 
-0.875313 2.000556 0.000000 
-0.500299 1.626616 0.000000 
-0.625466 1.750207 0.000000 
-0.625437 2.000452 0.000000 
-0.625484 1.875213 0.000000 
-0.500561 1.878424 0.000000 
-0.263191 1.657660 0.000000 
-0.381838 1.765238 0.000000 
-0.378422 1.638066 0.000000 
0.098659 1.160418 0.000000 
0.366951 1.129795 0.000000 
0.223052 1.144580 0.000000 
0.101661 1.287752 0.000000 
0.110919 1.415376 0.000000 
0.874824 1.125216 0.000000 
0.749816 1.125186 0.000000 
0.500282 1.375757 0.000000 
0.624906 1.250111 0.000000 
0.625044 1.375236 0.000000 
0.624800 1.125069 0.000000 
0.499822 1.124979 0.000000 
0.147294 1.802769 0.000000 
0.151314 1.933473 0.000000 
0.123956 1.543618 0.000000 
0.137274 1.672731 0.000000 
0.380488 1.638579 0.000000 
0.264421 1.656069 0.000000 
0.376527 1.511355 0.000000 
0.368728 1.256886 0.000000 
0.372227 1.384113 0.000000 
0.237335 1.400321 0.000000 
0.999829 1.125200 0.000000 
0.874870 1.250223 0.000000 
0.875066 1.500305 0.000000 
0.874954 1.375254 0.000000 
0.999943 1.375193 0.000000 
0.749981 1.375270 0.000000 
0.625191 1.500415 0.000000 
0.875462 2.000505 0.000000 
0.875400 1.875475 0.000000 
1.000380 1.875389 0.000000 
0.625510 1.876018 0.000000 
0.750419 1.875605 0.000000 
0.625545 2.001261 0.000000 
1.000165 1.625269 0.000000 
0.875305 1.750426 0.000000 
0.875189 1.625366 0.000000 
0.277214 1.913156 0.000000 
0.148228 2.064204 0.000000 
0.500631 1.627574 0.000000 
0.383054 1.765841 0.000000 
0.381786 2.020801 0.000000 
0.383534 1.893234 0.000000 
0.500651 1.880239 0.000000 
0.750229 1.625463 0.000000 
0.625436 1.750815 0.000000 
0.625327 1.625616 0.000000 
-0.875137 2.125574 0.000000 
-1.000133 2.125708 0.000000 
-0.625308 2.125976 0.000000 
-0.750167 2.125450 0.000000 
-0.999784 2.375639 0.000000 
-0.874939 2.250587 0.000000 
-0.874756 2.375577 0.000000 
-0.137552 2.196269 0.000000 
-0.264463 2.173153 0.000000 
-0.500024 2.386903 0.000000 
-0.376340 2.275795 0.000000 
-0.371913 2.402495 0.000000 
-0.380379 2.148144 0.000000 
-0.500533 2.132401 0.000000 
-0.999949 2.875091 0.000000 
-0.874735 2.750304 0.000000 
-0.874909 2.875156 0.000000 
-0.874637 2.500527 0.000000 
-0.874626 2.625432 0.000000 
-0.999687 2.625379 0.000000 
-0.624483 2.628941 0.000000 
[...]
POINT_DATA 425

SCALARS u_h float 2
LOOKUP_TABLE default
0.000135 0.000324 
-0.003428 0.036510 
-0.001059 -0.000000 
-0.000533 0.000982 
0.000964 0.038747 
-0.000178 0.000222 
-0.000305 0.000690 
0.000795 0.075269 
0.000448 0.000444 
0.000000 0.000000 
0.000000 0.000000 
0.000000 0.000000 
0.001065 0.002067 
-0.000966 0.000839 
-0.000832 0.000770 
0.000777 0.033161 
-0.000501 0.001460 
-0.001574 -0.000100 
-0.000240 0.001137 
-0.000233 0.000159 
-0.000346 -0.000013 
-0.000185 0.001387 
-0.000529 0.000700 
-0.002228 0.049878 
-0.000605 0.005174 
0.000489 0.001548 
0.000047 0.000221 
0.000539 0.006824 
0.000333 0.012923 
0.000314 0.000530 
0.000607 0.067696 
0.000000 0.000000 
-0.000327 0.011368 
0.000292 0.000528 
0.000000 0.000000 
0.000280 0.000847 
-0.000677 0.000831 
-0.000551 0.000446 
-0.023821 0.013849 
-0.000757 0.001350 
-0.003192 0.012585 
-0.000717 0.000979 
-0.000926 0.000919 
-0.000740 0.000989 
-0.001470 0.031221 
-0.024209 0.012676 
0.022665 0.013208 
-0.001149 0.011592 
0.001969 0.036229 
-0.000859 0.001066 
-0.000494 0.001016 
0.003735 0.013152 
0.023708 0.010439 
-0.000498 0.000359 
-0.000142 0.000995 
-0.001136 0.000204 
0.022819 0.009097 
-0.000869 0.011472 
-0.000574 0.000014 
-0.000198 0.000450 
-0.000208 0.000211 
-0.000176 0.000349 
-0.000152 0.000240 
-0.000426 0.000537 
-0.023769 0.016621 
-0.000395 0.000892 
-0.000480 0.000847 
0.023450 0.018928 
-0.000186 0.001484 
-0.000515 0.000649 
-0.000450 0.000639 
-0.000495 0.000425 
-0.001153 0.042313 
0.000429 0.027791 
-0.024119 0.045448 
-0.023368 0.037403 
-0.001209 0.062185 
-0.000442 0.002252 
-0.000337 0.000398 
-0.022888 0.022502 
-0.000120 0.000207 
0.000045 0.000230 
0.000989 0.028116 
0.024025 0.034383 
-0.000132 0.000188 
0.000104 0.000362 
0.000468 0.000620 
0.000338 0.000550 
0.000282 0.000328 
0.000686 0.003812 
0.023107 0.042247 
0.000035 0.000530 
0.000052 0.000696 
-0.000958 0.049357 
-0.000332 0.009817 
0.000207 0.000220 
0.000377 0.000763 
0.000348 0.000821 
0.001672 0.080595 
0.023266 0.044001 
0.000000 0.000000 
0.024708 0.022956 
-0.000857 0.031681 
0.000750 0.008723 
0.000000 0.000000 
-0.001073 0.049008 
0.000475 0.000568 
0.000161 0.010058 
-0.024624 0.046209 
-0.024029 0.024662 
0.000466 0.000522 
0.000291 0.000595 
0.000000 0.000000 
-0.000289 0.000541 
-0.000077 0.000330 
-0.000748 0.006731 
0.000000 0.000000 
0.000154 0.000601 
-0.000258 0.000589 
-0.000235 0.000343 
-0.000283 0.001087 
-0.000266 0.000786 
0.000577 0.001213 
-0.000756 0.000606 
-0.000609 0.000652 
-0.000821 0.000747 
-0.015819 0.026529 
-0.014566 0.013799 
-0.006005 0.027835 
-0.000905 0.000996 
-0.007157 0.004177 
-0.008731 0.002986 
0.000753 0.005242 
-0.003910 0.005190 
-0.000322 0.001766 
-0.000616 0.001004 
-0.000729 0.000955 
-0.000611 0.000974 
-0.000883 0.000837 
-0.000836 0.000908 
-0.000804 0.000900 
-0.000888 0.000972 
-0.000860 0.000953 
-0.000957 0.000958 
-0.000764 0.001066 
-0.000940 0.001003 
-0.000886 0.000883 
-0.002253 0.032156 
-0.024097 0.026620 
-0.022606 0.027717 
-0.026795 0.027196 
-0.000363 0.031820 
-0.027528 0.013396 
-0.008205 0.001972 
0.023158 0.029220 
0.013906 0.028436 
0.001722 0.037524 
0.002508 0.001960 
0.012480 0.011923 
0.005954 0.003177 
0.001628 0.034739 
0.000858 0.028160 
-0.012500 0.028011 
-0.000607 0.001016 
-0.000515 0.000962 
-0.000953 0.000884 
-0.000766 0.001037 
-0.000478 0.001153 
-0.000620 0.001113 
-0.000697 0.001288 
-0.014573 0.011958 
-0.001741 0.001344 
-0.005658 0.001371 
0.002106 0.027835 
0.012759 0.024686 
0.004911 0.003400 
0.014615 0.012095 
0.000528 0.002919 
0.022103 0.023096 
0.026072 0.022878 
-0.000824 0.000141 
-0.000794 0.000259 
-0.001069 0.000118 
-0.000146 0.001196 
-0.000380 0.000588 
-0.000238 0.000710 
-0.001299 0.000208 
-0.000697 0.000369 
-0.000384 0.000505 
0.000987 0.028118 
-0.012283 0.030644 
0.023127 0.023868 
0.013950 0.025743 
0.002839 0.001002 
0.012689 0.009830 
0.006226 0.001465 
0.007450 0.002990 
0.007913 0.002226 
0.026824 0.009332 
-0.000828 -0.000022 
-0.000550 0.000190 
-0.000211 0.000279 
-0.000340 0.000243 
-0.000368 0.000085 
-0.000302 0.000431 
-0.000198 0.000707 
-0.000186 0.000230 
-0.000170 0.000255 
-0.000164 0.000240 
-0.000276 0.000255 
-0.000199 0.000272 
-0.000262 0.000122 
-0.000167 0.000214 
-0.000151 0.000280 
-0.000156 0.000291 
-0.014218 0.013827 
-0.022291 0.033094 
-0.000350 0.000886 
-0.001340 0.001056 
-0.007643 0.003018 
-0.005182 0.001732 
-0.000430 0.000202 
-0.000165 0.000416 
-0.000252 0.000431 
-0.000215 0.000599 
-0.000458 0.000919 
-0.000488 0.000924 
-0.000368 0.001123 
-0.000421 0.000976 
-0.000501 0.000766 
-0.000446 0.000851 
-0.000467 0.000768 
0.026138 0.030906 
0.026680 0.015562 
-0.000141 0.001397 
0.007216 0.006824 
0.004699 0.008899 
0.007677 0.004859 
-0.000316 0.001526 
-0.000437 0.000664 
-0.000511 0.000567 
-0.000442 0.000550 
-0.000503 0.000684 
-0.000526 0.000613 
-0.000542 0.000659 
-0.000408 0.000354 
-0.000488 0.000514 
-0.000344 0.000579 
-0.000308 0.001006 
-0.000303 0.000814 
-0.000411 0.000773 
-0.000091 0.040206 
0.022053 0.033796 
-0.001335 0.043452 
0.011998 0.038012 
-0.001936 0.045457 
0.013841 0.023104 
0.000803 0.010982 
-0.022582 0.068027 
-0.026636 0.062803 
-0.000194 0.069076 
-0.008518 0.017622 
-0.027372 0.041754 
-0.007994 0.020291 
-0.001959 0.055564 
-0.023634 0.056458 
-0.014375 0.049779 
-0.000449 0.000386 
-0.000313 0.000556 
-0.000299 0.001616 
-0.000466 0.000207 
-0.000437 0.000452 
-0.000484 0.000213 
-0.000561 0.003424 
-0.013191 0.032660 
-0.006838 0.015238 
-0.003422 0.013066 
-0.026341 0.035418 
-0.008049 0.004795 
-0.026948 0.019580 
-0.023339 0.037752 
-0.014081 0.040376 
-0.000176 0.000216 
-0.000184 0.000186 
0.000282 0.000757 
-0.000094 0.000111 
0.000044 0.000236 
-0.000200 0.000069 
-0.000178 -0.000021 
0.022294 0.052769 
0.026314 0.058473 
-0.001044 0.043618 
0.012274 0.047731 
0.005488 0.013579 
0.014421 0.031069 
0.001527 0.011355 
-0.006272 0.006886 
-0.002773 0.009113 
-0.012665 0.025321 
-0.000171 0.000200 
-0.000130 0.000223 
0.000066 0.000305 
-0.000046 0.000254 
-0.000057 0.000193 
-0.000019 0.000270 
0.000191 0.000415 
0.000462 0.000505 
0.000400 0.000475 
0.000380 0.000389 
0.000510 0.001018 
0.000419 0.000605 
0.000545 0.001261 
0.000165 0.000269 
0.000305 0.000426 
0.000189 0.000366 
0.027214 0.038156 
0.023228 0.064204 
0.000631 0.002574 
0.008054 0.015841 
0.006786 0.020801 
0.008534 0.018234 
0.000651 0.005239 
0.000229 0.000463 
0.000436 0.000815 
0.000327 0.000616 
-0.000137 0.000574 
-0.000133 0.000708 
-0.000308 0.000976 
-0.000167 0.000450 
0.000216 0.000639 
0.000061 0.000587 
0.000244 0.000577 
-0.012552 0.071269 
-0.014463 0.048153 
-0.000024 0.011903 
-0.001340 0.025795 
0.003087 0.027495 
-0.005379 0.023144 
-0.000533 0.007401 
0.000051 0.000091 
0.000265 0.000304 
0.000091 0.000156 
0.000363 0.000527 
0.000374 0.000432 
0.000313 0.000379 
0.000517 0.003941 
0.000427 0.000870 
0.000369 0.003613 
-0.000107 0.001781 
0.000137 0.002750 
0.000231 0.000634 
0.001480 0.079559 
0.000785 0.071603 
0.023341 0.059753 
0.013896 0.068061 
0.001335 0.077018 
0.012828 0.048298 
0.006754 0.027174 
0.000000 0.000000 
0.013456 0.009668 
-0.000934 0.010663 
0.005467 0.006614 
0.015036 0.008527 
0.000000 0.000000 
-0.000237 0.052192 
0.023090 0.028272 
0.026680 0.046218 
0.000158 0.000466 
0.000000 0.000000 
0.000638 0.012046 
0.000505 0.003273 
0.000000 0.000000 
0.000292 0.001531 
0.000514 0.003547 
0.027617 0.035571 
0.008320 0.016415 
0.008694 0.023682 
0.013834 0.068932 
0.003250 0.023425 
0.012769 0.046164 
0.000620 0.071289 
-0.012891 0.069722 
0.000487 0.000514 
0.000486 0.000600 
-0.000074 0.011189 
0.000482 0.002060 
0.000355 0.002606 
0.000538 0.001597 
0.000370 0.008490 
-0.023940 0.030913 
-0.014119 0.010835 
-0.023072 0.062767 
-0.027151 0.049584 
-0.008935 0.022288 
-0.028040 0.037937 
-0.008170 0.026157 
-0.001169 0.025717 
-0.005333 0.026961 
-0.014751 0.049506 
0.000478 0.000489 
0.000469 0.000508 
0.000282 0.000446 
0.000405 0.000485 
0.000406 0.000538 
0.000421 0.000560 
0.000137 0.003055 
0.000000 0.000000 
-0.000304 0.000101 
-0.000193 0.000110 
-0.000731 0.000864 
-0.000506 0.000206 
0.000000 0.000000 
0.000120 0.000471 
-0.000148 0.000268 
0.000091 0.000380 
-0.013623 0.009146 
0.000000 0.000000 
-0.000572 0.009993 
-0.007401 0.014946 
0.000000 0.000000 
-0.003991 0.005622 
-0.000724 0.002316 
0.000047 0.000632 
-0.000557 0.002350 
-0.000185 0.003086 

CELL_DATA 768

SCALARS epsilon float 4
LOOKUP_TABLE default
0.000160 0.000158 0.000000 -0.000372
0.001020 -0.000085 0.000000 -0.000662
-0.000176 0.000835 0.000000 -0.000281
-0.000172 -0.000085 0.000000 -0.000660
0.003965 -0.000937 0.000000 -0.000007
-0.000120 0.000363 0.000000 -0.000443
0.002402 -0.000463 0.000000 -0.000714
-0.000093 -0.000987 0.000000 -0.002240
-0.000516 0.001314 0.000000 0.000260
-0.000459 0.001281 0.000000 0.000003
-0.000539 0.000759 0.000000 -0.000134
-0.000513 0.000758 0.000000 -0.000284
-0.000050 -0.000472 0.000000 -0.001395
-0.000533 0.000358 0.000000 -0.000932
-0.000454 0.000509 0.000000 -0.000583
-0.000058 0.000509 0.000000 -0.000618
0.028769 -0.002786 0.000000 -0.003422
0.000258 0.013193 0.000000 0.013503
-0.007420 0.028319 0.000000 0.013883
0.001209 0.002943 0.000000 0.011801
-0.064547 -0.001108 0.000000 0.007674
-0.052475 -0.002522 0.000000 0.010679
-0.140781 -0.004390 0.000000 0.030887
-0.064248 -0.009215 0.000000 0.001280
-0.002155 -0.001803 0.000000 0.007164
-0.029060 0.003681 0.000000 0.010097
-0.029012 -0.002832 0.000000 0.011940
-0.027328 0.001035 0.000000 -0.005516
-0.131959 0.010917 0.000000 -0.004870
-0.051502 -0.007223 0.000000 -0.002318
-0.077349 0.019171 0.000000 -0.015865
-0.086483 -0.003296 0.000000 0.020238
0.000034 -0.000177 0.000000 0.000208
-0.000102 0.000201 0.000000 0.000308
-0.000081 0.000151 0.000000 0.000610
0.000035 0.000152 0.000000 0.000351
-0.000413 0.001040 0.000000 0.000381
-0.000342 0.000568 0.000000 0.000520
-0.000256 0.000629 0.000000 0.000379
-0.000256 0.000568 0.000000 0.000223
-0.000066 0.000116 0.000000 -0.000199
-0.000227 0.000288 0.000000 0.000555
-0.000248 0.000274 0.000000 0.000420
-0.000228 0.000115 0.000000 0.000351
-0.000102 0.000374 0.000000 0.000328
-0.000193 0.000274 0.000000 0.000447
-0.000081 0.000287 0.000000 0.000618
-0.000193 0.000374 0.000000 0.000606
-0.000192 -0.002336 0.000000 -0.002828
0.000075 -0.003320 0.000000 -0.000597
-0.000683 -0.000156 0.000000 -0.000985
-0.000286 -0.000130 0.000000 0.000791
-0.000067 -0.001261 0.000000 -0.000716
-0.000248 -0.000360 0.000000 0.000084
0.000275 -0.002836 0.000000 -0.000619
0.000275 -0.000360 0.000000 -0.000095
-0.000412 0.000723 0.000000 0.000017
-0.000522 0.000419 0.000000 -0.000294
-0.000342 0.000292 0.000000 0.000169
-0.000524 0.000724 0.000000 0.000293
0.000065 -0.000502 0.000000 0.000437
-0.000427 0.000292 0.000000 0.000320
-0.000694 0.000422 0.000000 0.000104
-0.000425 -0.000506 0.000000 -0.000222
0.102347 -0.034946 0.000000 0.027333
0.164840 -0.007206 0.000000 0.020762
0.006716 0.012639 0.000000 0.017861
0.107129 0.004225 0.000000 -0.007604
0.169709 0.011004 0.000000 0.024856
0.009316 0.007242 0.000000 0.076455
0.189547 0.004966 0.000000 0.021503
0.189173 0.003604 0.000000 0.031696
-0.059616 -0.008133 0.000000 0.006786
-0.157896 0.004094 0.000000 0.023085
-0.138147 -0.003506 0.000000 0.057321
-0.161720 -0.003668 0.000000 0.043138
0.165837 0.005748 0.000000 0.008751
0.003266 -0.002590 0.000000 0.068715
0.001278 0.004659 0.000000 0.036407
0.008429 0.012892 0.000000 0.044210
-0.192019 0.014491 0.000000 0.032307
-0.002763 0.005015 0.000000 0.100505
-0.102014 0.013645 0.000000 0.034466
-0.104681 0.003552 0.000000 0.076656
0.050290 0.009412 0.000000 0.019889
0.073745 -0.002666 0.000000 0.090057
0.121786 0.006990 0.000000 0.075150
0.074925 0.010351 0.000000 0.052028
0.106404 0.013358 0.000000 0.029362
0.008683 0.013677 0.000000 0.033243
0.007576 -0.004097 0.000000 0.118771
0.106230 -0.002802 0.000000 0.074633
0.004002 0.008178 0.000000 0.105662
0.007529 -0.002938 0.000000 0.119743
0.007567 -0.002419 0.000000 0.083937
0.003097 -0.002767 0.000000 0.117505
0.000149 -0.000095 0.000000 0.000306
0.000032 0.000212 0.000000 0.000698
0.000164 -0.000000 0.000000 0.000668
0.000032 -0.000096 0.000000 0.000555
-0.000518 0.000362 0.000000 -0.000301
-0.000744 0.001451 0.000000 0.000491
-0.000213 0.000517 0.000000 0.000677
-0.000517 0.000518 0.000000 0.000136
-0.000182 0.001376 0.000000 0.002012
0.000130 0.000324 0.000000 0.001116
-0.000618 0.001777 0.000000 0.001350
-0.000618 0.000324 0.000000 0.001269
-0.000213 0.000212 0.000000 0.000719
-0.000743 0.000607 0.000000 0.000703
-0.000099 -0.000000 0.000000 0.000839
-0.000099 0.000607 0.000000 0.000973
0.169434 0.000061 0.000000 0.055256
0.008511 -0.008382 0.000000 0.117203
0.006473 -0.007735 0.000000 0.098558
0.009413 0.000216 0.000000 0.103816
0.025305 0.001382 0.000000 0.003448
-0.007081 0.001777 0.000000 0.001766
0.002533 0.005464 0.000000 0.057707
0.025678 0.004750 0.000000 0.019244
-0.059586 0.000407 0.000000 0.004568
-0.137742 -0.001945 0.000000 0.053746
-0.038352 0.001456 0.000000 0.002331
-0.038205 -0.004895 0.000000 0.012540
0.001748 -0.008352 0.000000 0.094547
-0.006651 -0.000282 0.000000 0.016894
-0.077360 -0.008582 0.000000 0.083788
-0.076117 0.001108 0.000000 0.058960
0.043983 -0.032422 0.000000 -0.031387
0.026680 -0.008494 0.000000 -0.018162
0.113316 -0.005723 0.000000 -0.026961
0.120584 -0.019374 0.000000 0.007757
-0.015471 0.004993 0.000000 0.005805
-0.071959 -0.004909 0.000000 0.004397
-0.014640 0.002395 0.000000 0.003400
-0.077300 0.009275 0.000000 -0.015414
0.190344 0.012913 0.000000 -0.030540
0.171743 0.006735 0.000000 -0.027803
0.016429 0.006408 0.000000 -0.035030
0.191962 0.001869 0.000000 -0.021614
0.027086 0.005107 0.000000 -0.007880
0.022716 -0.000942 0.000000 -0.015380
0.177284 -0.007147 0.000000 -0.000614
0.024962 -0.000337 0.000000 -0.014162
0.000079 0.000187 0.000000 0.000505
-0.000236 0.000802 0.000000 0.000714
0.000548 0.000443 0.000000 0.001025
-0.000237 0.000187 0.000000 0.000505
-0.000734 -0.000470 0.000000 -0.002318
-0.001907 0.001610 0.000000 -0.001645
-0.000940 0.000984 0.000000 -0.000342
-0.000726 0.000993 0.000000 -0.001371
0.002223 0.004812 0.000000 0.005977
0.001309 0.001287 0.000000 0.002390
-0.002504 0.003914 0.000000 0.000425
-0.002491 0.001292 0.000000 0.001867
-0.000936 0.000806 0.000000 0.000274
-0.001895 0.001764 0.000000 -0.000357
-0.000772 0.000444 0.000000 0.000933
-0.000773 0.001753 0.000000 0.000832
-0.118559 0.011243 0.000000 -0.030230
-0.008017 0.012277 0.000000 -0.033109
-0.023375 0.014873 0.000000 -0.119086
-0.117622 0.015407 0.000000 -0.086263
0.163610 0.014904 0.000000 -0.032975
-0.008394 0.013211 0.000000 -0.094999
0.093936 0.014121 0.000000 -0.034033
0.091232 0.012240 0.000000 -0.068603
-0.052721 -0.003778 0.000000 -0.015601
-0.083196 0.007716 0.000000 -0.093413
-0.142537 0.002639 0.000000 -0.076300
-0.083521 -0.002821 0.000000 -0.049877
-0.009237 0.014229 0.000000 -0.084093
-0.017172 0.003779 0.000000 -0.104185
-0.023446 0.007633 0.000000 -0.120712
-0.017886 0.013822 0.000000 -0.114812
-0.042976 0.005351 0.000000 -0.006526
-0.062537 0.004087 0.000000 -0.006885
-0.136700 0.000470 0.000000 -0.017562
-0.042536 -0.002493 0.000000 -0.000987
-0.053059 -0.000473 0.000000 -0.001703
-0.142164 -0.004552 0.000000 -0.037766
-0.066542 0.001644 0.000000 -0.004113
-0.066556 -0.006190 0.000000 -0.011339
0.161935 0.008380 0.000000 -0.046040
0.009015 -0.000310 0.000000 -0.042272
-0.005751 0.001399 0.000000 -0.075252
0.003750 0.011110 0.000000 -0.065463
-0.062501 -0.005923 0.000000 -0.006024
-0.163735 -0.001779 0.000000 -0.046423
-0.136238 -0.004787 0.000000 -0.015079
-0.162119 -0.003613 0.000000 -0.025513
-0.000029 -0.000176 0.000000 0.000269
-0.000182 0.000297 0.000000 0.000315
-0.000417 0.000395 0.000000 0.000419
-0.000027 0.000395 0.000000 0.000441
-0.000174 0.000592 0.000000 0.000057
-0.000105 0.000294 0.000000 -0.000167
-0.000220 0.000570 0.000000 0.000194
-0.000221 0.000293 0.000000 -0.000116
0.000337 -0.000019 0.000000 -0.001559
-0.000507 0.000582 0.000000 -0.000330
-0.000002 0.000150 0.000000 -0.000616
-0.000511 -0.000023 0.000000 -0.000956
-0.000183 0.000424 0.000000 0.000139
-0.000305 0.000149 0.000000 -0.000340
-0.000419 0.000579 0.000000 0.000108
-0.000303 0.000424 0.000000 0.000089
0.000066 -0.000142 0.000000 -0.000085
0.000177 -0.000203 0.000000 0.000012
0.000051 -0.000003 0.000000 -0.000108
0.000051 -0.000203 0.000000 -0.000123
0.000669 -0.001062 0.000000 0.000595
0.000616 -0.000615 0.000000 -0.000025
0.000433 -0.000485 0.000000 0.000319
0.000616 -0.001062 0.000000 0.000122
-0.000090 0.000439 0.000000 -0.000044
-0.000006 0.000212 0.000000 -0.000098
0.000197 -0.000089 0.000000 -0.000257
-0.000090 -0.000089 0.000000 -0.000291
0.000229 -0.000485 0.000000 -0.000103
0.000197 -0.000615 0.000000 -0.000368
-0.000006 -0.000198 0.000000 -0.000234
0.000229 -0.000198 0.000000 -0.000143
-0.201885 0.016537 0.000000 -0.070129
-0.024184 0.013496 0.000000 -0.120198
-0.018991 0.020774 0.000000 -0.103073
-0.023132 0.017801 0.000000 -0.106584
-0.025834 -0.002013 0.000000 -0.000921
0.007284 -0.002784 0.000000 -0.002380
-0.006007 0.001142 0.000000 -0.058422
-0.025277 0.000395 0.000000 -0.017618
0.056695 -0.001442 0.000000 -0.011787
0.119087 0.012923 0.000000 -0.061896
0.037288 -0.002613 0.000000 -0.006145
0.037235 0.010073 0.000000 -0.015533
-0.006946 0.013289 0.000000 -0.094480
0.007621 0.005281 0.000000 -0.017316
0.065415 0.019292 0.000000 -0.082763
0.067350 0.006686 0.000000 -0.062245
-0.000175 0.000095 0.000000 -0.000259
0.000077 -0.000540 0.000000 -0.000543
-0.000106 -0.000266 0.000000 -0.000552
0.000078 0.000095 0.000000 -0.000279
0.001234 -0.001721 0.000000 0.000548
0.001388 -0.002682 0.000000 -0.000446
0.000611 -0.001406 0.000000 -0.000424
0.001234 -0.001406 0.000000 0.000115
0.000334 -0.002010 0.000000 -0.002164
-0.000004 -0.000863 0.000000 -0.001101
0.001078 -0.002788 0.000000 -0.001453
0.001079 -0.000863 0.000000 -0.001217
0.000611 -0.000541 0.000000 -0.000370
0.001388 -0.001348 0.000000 -0.000576
0.000397 -0.000266 0.000000 -0.000601
0.000396 -0.001347 0.000000 -0.000881
0.000149 -0.000462 0.000000 0.000104
0.000164 -0.000342 0.000000 0.000442
0.000233 -0.000621 0.000000 0.000010
0.000233 -0.000342 0.000000 0.000206
-0.000182 -0.000245 0.000000 0.001669
0.000424 -0.000669 0.000000 0.000692
0.000130 -0.000321 0.000000 0.000843
0.000424 -0.000246 0.000000 0.001027
0.000269 -0.000531 0.000000 -0.000109
0.000276 -0.000642 0.000000 -0.000065
0.000407 -0.000666 0.000000 0.000079
0.000269 -0.000666 0.000000 -0.000080
0.000299 -0.000321 0.000000 0.000520
0.000407 -0.000670 0.000000 0.000269
0.000276 -0.000546 0.000000 0.000069
0.000299 -0.000546 0.000000 0.000277
-0.194244 0.015415 0.000000 0.050299
-0.000926 0.036823 0.000000 0.046801
0.000397 0.022526 0.000000 0.078854
-0.006966 0.017937 0.000000 0.072531
0.037990 0.001608 0.000000 0.029800
0.057457 0.000101 0.000000 0.021478
0.123373 0.021705 0.000000 0.038072
0.039294 0.019222 0.000000 0.019785
0.050290 0.000592 0.000000 0.007547
0.123999 0.014849 0.000000 0.045128
0.061878 -0.000047 0.000000 0.013774
0.061646 0.013333 0.000000 0.019581
0.123919 0.032186 0.000000 0.035077
0.057624 0.016528 0.000000 0.019222
0.138743 0.018979 0.000000 0.055247
0.140942 0.018539 0.000000 0.039814
-0.000038 0.000210 0.000000 0.000073
0.000035 0.000118 0.000000 -0.000012
0.000126 -0.000138 0.000000 -0.000293
-0.000039 -0.000139 0.000000 -0.000178
0.000215 -0.000324 0.000000 -0.000114
0.000417 -0.000564 0.000000 -0.000272
0.000129 -0.000084 0.000000 -0.000080
0.000129 -0.000564 0.000000 -0.000277
0.001274 -0.001776 0.000000 0.002980
0.000641 -0.000715 0.000000 -0.000671
0.000853 -0.000996 0.000000 -0.000392
0.000640 -0.001800 0.000000 -0.000900
0.000034 -0.000367 0.000000 -0.000269
0.000298 -0.000996 0.000000 -0.000547
0.000125 -0.000716 0.000000 -0.000599
0.000299 -0.000367 0.000000 -0.000338
0.000412 0.000527 0.000000 0.002351
0.000966 -0.000332 0.000000 0.002430
0.000697 -0.000931 0.000000 0.000698
0.000414 -0.000927 0.000000 0.001856