# vtk DataFile Version 2.0
Unstructured Grid Example
ASCII
DATASET UNSTRUCTURED_GRID

POINTS 35 float
-0.991118 -0.000000 0.000000 
-0.014922 0.039741 0.000000 
1.005422 0.002338 0.000000 
-1.004200 1.001576 0.000000 
0.009817 1.043373 0.000000 
0.999412 1.001312 0.000000 
-1.002771 2.001366 0.000000 
0.006351 2.073816 0.000000 
1.000805 2.003837 0.000000 
-1.000000 3.000000 0.000000 
0.000000 3.000000 0.000000 
1.000000 3.000000 0.000000 
-0.490161 0.007673 0.000000 
-0.503010 0.505882 0.000000 
-1.002037 0.499930 0.000000 
0.010101 0.539752 0.000000 
-0.502747 0.998511 0.000000 
0.504803 0.000420 0.000000 
0.499479 0.497255 0.000000 
0.998172 0.501925 0.000000 
0.499098 1.004316 0.000000 
-0.496502 1.503942 0.000000 
-0.996654 1.501712 0.000000 
-0.014459 1.550101 0.000000 
-0.505520 2.009348 0.000000 
0.508979 1.507224 0.000000 
1.006744 1.503490 0.000000 
0.501188 2.007698 0.000000 
-0.500502 2.511349 0.000000 
-1.001329 2.501999 0.000000 
0.006017 2.568580 0.000000 
-0.500000 3.000000 0.000000 
0.495500 2.512367 0.000000 
0.999381 2.501924 0.000000 
0.500000 3.000000 0.000000 

CELLS 48 192
3  0 12 14 
3  1 13 12 
3  3 14 13 
3  12 13 14 
3  1 15 13 
3  4 16 15 
3  3 13 16 
3  15 16 13 
3  1 17 15 
3  2 18 17 
3  4 15 18 
3  17 18 15 
3  2 19 18 
3  5 20 19 
3  4 18 20 
3  19 20 18 
3  3 16 22 
3  4 21 16 
3  6 22 21 
3  16 21 22 
3  4 23 21 
3  7 24 23 
3  6 21 24 
3  23 24 21 
3  4 20 23 
3  5 25 20 
3  7 23 25 
3  20 25 23 
3  5 26 25 
3  8 27 26 
3  7 25 27 
3  26 27 25 
3  6 24 29 
3  7 28 24 
3  9 29 28 
3  24 28 29 
3  7 30 28 
3  10 31 30 
3  9 28 31 
3  30 31 28 
3  7 27 30 
3  8 32 27 
3  10 30 32 
3  27 32 30 
3  8 33 32 
3  11 34 33 
3  10 32 34 
3  33 34 32 

CELL_TYPES 48
5
5
5
5
5
5
5
5
5
5
5
5
5
5
5
5
5
5
5
5
5
5
5
5
5
5
5
5
5
5
5
5
5
5
5
5
5
5
5
5
5
5
5
5
5
5
5
5

POINT_DATA 35

SCALARS u_h float 2
LOOKUP_TABLE default
0.008882 -0.000000 
-0.014922 0.039741 
0.005422 0.002338 
-0.004200 0.001576 
0.009817 0.043373 
-0.000588 0.001312 
-0.002771 0.001366 
0.006351 0.073816 
0.000805 0.003837 
0.000000 0.000000 
0.000000 0.000000 
0.000000 0.000000 
0.009839 0.007673 
-0.003010 0.005882 
-0.002037 -0.000070 
0.010101 0.039752 
-0.002747 -0.001489 
0.004803 0.000420 
-0.000521 -0.002745 
-0.001828 0.001925 
-0.000902 0.004316 
0.003498 0.003942 
0.003346 0.001712 
-0.014459 0.050101 
-0.005520 0.009348 
0.008979 0.007224 
0.006744 0.003490 
0.001188 0.007698 
-0.000502 0.011349 
-0.001329 0.001999 
0.006017 0.068580 
0.000000 0.000000 
-0.004500 0.012367 
-0.000619 0.001924 
0.000000 0.000000 

CELL_DATA 48

SCALARS epsilon float 4
LOOKUP_TABLE default
0.002485 0.000312 0.000000 -0.003224
-0.048645 0.000435 0.000000 0.018582
-0.001889 0.003408 0.000000 0.003765
-0.001308 -0.003210 0.000000 -0.006901
0.023769 -0.001093 0.000000 0.058236
0.024863 0.011040 0.000000 0.044237
0.002905 -0.014829 0.000000 -0.002849
0.025844 -0.012642 0.000000 0.034611
0.043598 0.006643 0.000000 -0.015178
0.001336 -0.006302 0.000000 -0.003388
-0.021519 0.010884 0.000000 -0.042462
-0.022341 -0.003456 0.000000 -0.048186
-0.002376 -0.000647 0.000000 -0.002596
0.000645 -0.001192 0.000000 -0.001768
-0.021728 0.017061 0.000000 -0.038884
-0.002610 0.014072 0.000000 0.004223
0.003107 0.000384 0.000000 0.004460
0.023805 0.013479 0.000000 0.050448
0.000433 -0.000629 0.000000 -0.003885
0.000325 0.010758 0.000000 0.008448
-0.030763 0.022363 0.000000 0.020326
0.019205 0.048602 0.000000 0.081822
-0.005065 0.011165 0.000000 -0.001171
-0.034682 0.016932 0.000000 0.036255
-0.024290 0.012659 0.000000 -0.063319
0.000938 0.005936 0.000000 0.006889
0.049737 0.052588 0.000000 -0.021010
0.047560 0.010714 0.000000 -0.033099
-0.004263 0.004484 0.000000 0.003648
-0.000786 0.000631 0.000000 -0.009802
-0.012337 0.007812 0.000000 -0.073918
-0.004474 0.000859 0.000000 -0.011557
-0.005554 0.001347 0.000000 0.009422
0.022248 0.010623 0.000000 0.069081
0.001606 -0.003880 0.000000 0.010714
0.001515 0.003980 0.000000 0.014322
0.013029 -0.003932 0.000000 0.057498
0.000097 -0.146329 0.000000 -0.005865
0.000001 -0.022955 0.000000 0.000502
0.012837 -0.016386 0.000000 0.059047
-0.010470 -0.001498 0.000000 -0.067148
-0.000788 0.009237 0.000000 -0.009516
-0.022754 -0.139005 0.000000 -0.071101
-0.022482 0.014489 0.000000 -0.061473
0.007677 -0.003676 0.000000 -0.011895
0.000001 -0.003856 0.000000 0.000619
0.000043 -0.025040 0.000000 0.004497
0.007965 -0.024623 0.000000 -0.006245

SCALARS sigma float 4
LOOKUP_TABLE default
0.031339 0.015567 0.014072 -0.024913
-0.687474 -0.314983 -0.300737 0.155819
-0.006350 0.033894 0.008263 0.029105
-0.041081 -0.053726 -0.028442 -0.053338
0.281516 0.084483 0.109800 0.442906
0.372393 0.239147 0.183462 0.332089
-0.047266 -0.184654 -0.069576 -0.021812
0.256984 -0.054691 0.060688 0.259695
0.581663 0.290989 0.261796 -0.105403
-0.019315 -0.077834 -0.029145 -0.026339
-0.251664 -0.029377 -0.084312 -0.333829
-0.347168 -0.229099 -0.172880 -0.378594
-0.037432 -0.023637 -0.018321 -0.019918
0.001651 -0.012603 -0.003286 -0.013575
-0.215750 0.059911 -0.046752 -0.305721
0.045194 0.172470 0.065299 0.032618
0.042344 0.022161 0.019351 0.034356
0.371581 0.265568 0.191145 0.379793
0.001141 -0.006530 -0.001617 -0.029917
0.065032 0.145361 0.063118 0.064476
-0.335115 0.051788 -0.084998 0.171495
0.479586 0.650377 0.338989 0.614831
-0.007191 0.117565 0.033112 -0.007928
-0.406209 -0.038012 -0.133266 0.292672
-0.292993 -0.021302 -0.094288 -0.493133
0.044068 0.083730 0.038339 0.052561
0.923593 0.927470 0.555319 -0.154302
0.666009 0.366543 0.309766 -0.240657
-0.033308 0.034584 0.000383 0.027683
-0.008066 0.003152 -0.001474 -0.075397
-0.175364 -0.087636 -0.078900 -0.575118
-0.057230 -0.015405 -0.021791 -0.088982
-0.068006 -0.015762 -0.025131 0.072804
0.311361 0.163449 0.142443 0.520685
-0.001889 -0.045463 -0.014206 0.082344
0.041641 0.059608 0.030375 0.109917
0.113659 -0.066728 0.014079 0.436578
-0.917100 -2.139900 -0.917100 -0.053639
-0.133987 -0.312637 -0.133987 0.003953
0.037034 -0.240648 -0.061084 0.448624
-0.203262 -0.204401 -0.122299 -0.522015
0.041405 0.118467 0.047962 -0.072831
-1.239098 -2.298330 -1.061228 -0.567612
-0.261063 -0.024323 -0.085616 -0.482510
0.080397 -0.008398 0.021600 -0.090933
-0.022288 -0.052006 -0.022288 0.004776
-0.146318 -0.341408 -0.146318 0.035490
-0.038946 -0.293237 -0.099655 -0.046508

