# vtk DataFile Version 2.0
Unstructured Grid Example
ASCII
DATASET UNSTRUCTURED_GRID

POINTS 1617 float
-0.999938 -0.000000 0.000000 
-0.000855 0.035515 0.000000 
0.999872 -0.000000 0.000000 
-1.000049 1.000113 0.000000 
0.000339 1.036874 0.000000 
0.999965 1.000009 0.000000 
-1.000042 2.000112 0.000000 
0.000257 2.074346 0.000000 
1.000114 2.000084 0.000000 
-1.000000 3.000000 0.000000 
0.000000 3.000000 0.000000 
1.000000 3.000000 0.000000 
-0.499401 0.000325 0.000000 
-0.500191 0.500017 0.000000 
-1.000110 0.500040 0.000000 
0.000329 0.531016 0.000000 
-0.500052 1.000304 0.000000 
0.499560 -0.000008 0.000000 
0.499997 0.500197 0.000000 
0.999993 0.500004 0.000000 
0.499909 0.999917 0.000000 
-0.499993 1.500917 0.000000 
-1.000080 1.500059 0.000000 
-0.000628 1.551547 0.000000 
-0.500156 2.005286 0.000000 
0.500148 1.500988 0.000000 
1.000014 1.500001 0.000000 
0.500158 2.005785 0.000000 
-0.499878 2.512218 0.000000 
-0.999885 2.500097 0.000000 
0.000184 2.566713 0.000000 
-0.500000 3.000000 0.000000 
0.499892 2.511767 0.000000 
1.000063 2.500128 0.000000 
0.500000 3.000000 0.000000 
-0.749863 0.000004 0.000000 
-0.750067 0.250012 0.000000 
-1.000034 0.249966 0.000000 
-0.274201 0.261025 0.000000 
-0.500124 0.250105 0.000000 
-0.251020 0.010975 0.000000 
-1.000088 0.750104 0.000000 
-0.750145 0.500065 0.000000 
-0.750103 0.750108 0.000000 
-0.000333 0.281011 0.000000 
-0.274331 0.510841 0.000000 
-0.225954 1.014081 0.000000 
-0.250251 0.761556 0.000000 
0.000656 0.783162 0.000000 
-0.500158 0.750128 0.000000 
-0.750043 1.000133 0.000000 
0.251438 0.010975 0.000000 
0.274387 0.259849 0.000000 
0.749950 0.250026 0.000000 
0.500052 0.250156 0.000000 
0.749847 0.000003 0.000000 
0.274091 0.509725 0.000000 
0.249799 0.761522 0.000000 
0.999934 0.249977 0.000000 
0.750002 0.500050 0.000000 
0.749954 0.999985 0.000000 
0.749981 0.750023 0.000000 
0.999990 0.750021 0.000000 
0.499910 0.750036 0.000000 
0.225738 1.015118 0.000000 
-0.750030 1.250111 0.000000 
-1.000049 1.250084 0.000000 
-0.225739 1.269074 0.000000 
-0.499970 1.250474 0.000000 
-1.000092 1.750071 0.000000 
-0.750066 1.500057 0.000000 
-0.750098 1.750018 0.000000 
-0.000301 1.292712 0.000000 
-0.249830 1.526492 0.000000 
-0.274375 2.044672 0.000000 
-0.274146 1.785570 0.000000 
-0.000332 1.813079 0.000000 
-0.500095 1.752301 0.000000 
-0.750064 2.000035 0.000000 
0.225980 1.270157 0.000000 
0.749971 1.249985 0.000000 
0.500014 1.250139 0.000000 
0.250299 1.526595 0.000000 
0.274380 1.784670 0.000000 
0.999968 1.249992 0.000000 
0.750033 1.500033 0.000000 
0.750125 2.000127 0.000000 
0.750098 1.750096 0.000000 
1.000076 1.750039 0.000000 
0.500207 1.752778 0.000000 
0.274115 2.043725 0.000000 
-0.749961 2.250097 0.000000 
-0.999947 2.250135 0.000000 
-0.250266 2.300232 0.000000 
-0.500075 2.259529 0.000000 
-0.999931 2.750024 0.000000 
-0.749870 2.500278 0.000000 
-0.749898 2.750496 0.000000 
0.000512 2.328779 0.000000 
-0.225846 2.545442 0.000000 
-0.250000 3.000000 0.000000 
-0.225414 2.773445 0.000000 
-0.000275 2.781915 0.000000 
-0.499777 2.758122 0.000000 
-0.750000 3.000000 0.000000 
0.249705 2.300155 0.000000 
0.750116 2.250126 0.000000 
0.500037 2.259608 0.000000 
0.225476 2.546145 0.000000 
0.225641 2.773985 0.000000 
1.000111 2.250116 0.000000 
0.750071 2.500255 0.000000 
0.750000 3.000000 0.000000 
0.749922 2.750444 0.000000 
0.999976 2.750089 0.000000 
0.499781 2.757545 0.000000 
0.250000 3.000000 0.000000 
-0.874916 0.000000 0.000000 
-0.874965 0.124988 0.000000 
-0.999970 0.124966 0.000000 
-0.624963 0.125023 0.000000 
-0.749961 0.124989 0.000000 
-0.624724 0.000054 0.000000 
-1.000087 0.374997 0.000000 
-0.875045 0.249999 0.000000 
-0.875104 0.375024 0.000000 
-0.139357 0.150573 0.000000 
-0.264165 0.136193 0.000000 
-0.126928 0.027335 0.000000 
-0.500171 0.375034 0.000000 
-0.382169 0.251815 0.000000 
-0.383443 0.376540 0.000000 
-0.374499 0.002182 0.000000 
-0.378982 0.127106 0.000000 
-0.499984 0.125202 0.000000 
-1.000065 0.875115 0.000000 
-0.875095 0.750098 0.000000 
-0.875067 0.875110 0.000000 
-0.875126 0.500053 0.000000 
-0.875119 0.625078 0.000000 
-1.000107 0.625078 0.000000 
-0.625151 0.625087 0.000000 
-0.750132 0.625087 0.000000 
-0.625167 0.500064 0.000000 
-0.625104 0.250045 0.000000 
-0.625157 0.375054 0.000000 
-0.750128 0.375041 0.000000 
-0.000600 0.157398 0.000000 
-0.148884 0.274802 0.000000 
-0.148441 0.524812 0.000000 
-0.152281 0.399613 0.000000 
0.000000 0.405659 0.000000 
-0.277979 0.385869 0.000000 
-0.382488 0.501372 0.000000 
-0.101232 1.029241 0.000000 
-0.111084 0.902428 0.000000 
0.000572 0.909809 0.000000 
-0.371184 0.877197 0.000000 
-0.236257 0.887538 0.000000 
-0.367993 1.003046 0.000000 
0.000568 0.656888 0.000000 
-0.124666 0.776166 0.000000 
-0.138338 0.650323 0.000000 
-0.750070 0.875125 0.000000 
-0.875046 1.000112 0.000000 
-0.500187 0.625053 0.000000 
-0.625119 0.750121 0.000000 
-0.625041 1.000177 0.000000 
-0.625079 0.875155 0.000000 
-0.500109 0.875218 0.000000 
-0.264186 0.636031 0.000000 
-0.375415 0.751650 0.000000 
-0.379551 0.626388 0.000000 
0.125957 0.027335 0.000000 
0.138679 0.149877 0.000000 
0.379524 0.126600 0.000000 
0.264456 0.135471 0.000000 
0.375117 0.001317 0.000000 
0.148518 0.273595 0.000000 
0.152278 0.398213 0.000000 
0.874891 0.124998 0.000000 
0.749891 0.125005 0.000000 
0.874866 -0.000000 0.000000 
0.500040 0.375212 0.000000 
0.624982 0.250066 0.000000 
0.625009 0.375100 0.000000 
0.624788 -0.000000 0.000000 
0.624904 0.125013 0.000000 
0.499974 0.125031 0.000000 
0.125356 0.776147 0.000000 
0.111689 0.903099 0.000000 
0.148785 0.523595 0.000000 
0.138934 0.649613 0.000000 
0.378878 0.626330 0.000000 
0.263788 0.635379 0.000000 
0.382067 0.501290 0.000000 
0.382447 0.251538 0.000000 
0.383371 0.376393 0.000000 
0.277958 0.384561 0.000000 
0.999894 0.124980 0.000000 
0.874938 0.250004 0.000000 
0.874997 0.500021 0.000000 
0.874977 0.375014 0.000000 
0.999971 0.374988 0.000000 
0.749988 0.375045 0.000000 
0.625005 0.500102 0.000000 
0.874961 1.000001 0.000000 
0.874973 0.875010 0.000000 
0.999977 0.875018 0.000000 
0.624941 0.874981 0.000000 
0.749964 0.875002 0.000000 
0.624937 0.999945 0.000000 
0.999998 0.625016 0.000000 
0.874989 0.750018 0.000000 
0.875000 0.625023 0.000000 
0.235871 0.888119 0.000000 
0.101596 1.030420 0.000000 
0.499948 0.625129 0.000000 
0.374655 0.751594 0.000000 
0.367609 1.002991 0.000000 
0.370530 0.877139 0.000000 
0.499895 0.874952 0.000000 
0.749997 0.625041 0.000000 
0.624960 0.750028 0.000000 
0.624984 0.625074 0.000000 
-0.875037 1.125106 0.000000 
-1.000043 1.125100 0.000000 
-0.625015 1.125176 0.000000 
-0.750029 1.125128 0.000000 
-1.000063 1.375068 0.000000 
-0.875042 1.250094 0.000000 
-0.875057 1.375078 0.000000 
-0.097750 1.156741 0.000000 
-0.222104 1.141253 0.000000 
-0.499967 1.375627 0.000000 
-0.367642 1.255616 0.000000 
-0.370578 1.382323 0.000000 
-0.366696 1.129190 0.000000 
-0.500001 1.125382 0.000000 
-1.000075 1.875090 0.000000 
-0.875096 1.750054 0.000000 
-0.875083 1.875062 0.000000 
-0.875077 1.500064 0.000000 
-0.875092 1.625055 0.000000 
-1.000092 1.625060 0.000000 
-0.625070 1.624992 0.000000 
-0.750087 1.625032 0.000000 
-0.625040 1.500046 0.000000 
-0.625006 1.250150 0.000000 
-0.625016 1.375104 0.000000 
-0.750044 1.375086 0.000000 
0.000019 1.164465 0.000000 
-0.101573 1.285038 0.000000 
-0.125357 1.544090 0.000000 
-0.111677 1.414171 0.000000 
-0.000538 1.421727 0.000000 
-0.235887 1.397512 0.000000 
-0.374718 1.509326 0.000000 
-0.148511 2.066237 0.000000 
-0.152315 1.936225 0.000000 
-0.000034 1.944066 0.000000 
-0.383442 1.892428 0.000000 
-0.278005 1.915277 0.000000 
-0.382490 2.020755 0.000000 
-0.000552 1.682084 0.000000 
-0.148816 1.805486 0.000000 
-0.138949 1.674627 0.000000 
-0.750091 1.875019 0.000000 
-0.875050 2.000076 0.000000 
-0.500040 1.626441 0.000000 
-0.625097 1.749973 0.000000 
-0.625099 2.000263 0.000000 
-0.625110 1.875040 0.000000 
-0.500139 1.878575 0.000000 
-0.263834 1.655898 0.000000 
-0.382146 1.764363 0.000000 
-0.378952 1.636661 0.000000 
0.097782 1.158115 0.000000 
0.366679 1.129154 0.000000 
0.222116 1.142472 0.000000 
0.101271 1.286243 0.000000 
0.111128 1.414893 0.000000 
0.874958 1.124996 0.000000 
0.749955 1.124978 0.000000 
0.500084 1.375467 0.000000 
0.624978 1.249947 0.000000 
0.625017 1.374986 0.000000 
0.624949 1.124932 0.000000 
0.499951 1.124967 0.000000 
0.148467 1.804372 0.000000 
0.152264 1.934920 0.000000 
0.124712 1.544144 0.000000 
0.138380 1.674009 0.000000 
0.379594 1.636842 0.000000 
0.264240 1.655426 0.000000 
0.375445 1.509448 0.000000 
0.367992 1.255619 0.000000 
0.371199 1.382381 0.000000 
0.236295 1.398186 0.000000 
0.999961 1.124999 0.000000 
0.874968 1.249997 0.000000 
0.875020 1.500022 0.000000 
0.874990 1.375006 0.000000 
0.999987 1.374992 0.000000 
0.749998 1.375004 0.000000 
0.625060 1.500041 0.000000 
0.875121 2.000098 0.000000 
0.875108 1.875084 0.000000 
1.000099 1.875062 0.000000 
0.625146 1.875297 0.000000 
0.750117 1.875117 0.000000 
0.625152 2.000516 0.000000 
1.000045 1.625017 0.000000 
0.875085 1.750064 0.000000 
0.875054 1.625043 0.000000 
0.277997 1.914206 0.000000 
0.148745 2.065090 0.000000 
0.500191 1.626744 0.000000 
0.382536 1.764584 0.000000 
0.382171 2.020951 0.000000 
0.383481 1.892657 0.000000 
0.500195 1.879125 0.000000 
0.750068 1.625066 0.000000 
0.625128 1.750179 0.000000 
0.625098 1.625104 0.000000 
-0.875003 2.125093 0.000000 
-0.999997 2.125129 0.000000 
-0.625063 2.125707 0.000000 
-0.750017 2.125062 0.000000 
-0.999906 2.375125 0.000000 
-0.874949 2.250106 0.000000 
-0.874901 2.375110 0.000000 
-0.138425 2.194725 0.000000 
-0.264224 2.173238 0.000000 
-0.499983 2.386370 0.000000 
-0.375367 2.276872 0.000000 
-0.371084 2.403373 0.000000 
-0.379538 2.149073 0.000000 
-0.500136 2.132352 0.000000 
-0.999979 2.875003 0.000000 
-0.874919 2.750059 0.000000 
-0.874973 2.875035 0.000000 
-0.874874 2.500103 0.000000 
-0.874879 2.625084 0.000000 
-0.999894 2.625060 0.000000 
-0.624837 2.628385 0.000000 
[...]
POINT_DATA 1617

SCALARS u_h float 2
LOOKUP_TABLE default
0.000062 -0.000000 
-0.000855 0.035515 
-0.000128 -0.000000 
-0.000049 0.000113 
0.000339 0.036874 
-0.000035 0.000009 
-0.000042 0.000112 
0.000257 0.074346 
0.000114 0.000084 
0.000000 0.000000 
0.000000 0.000000 
0.000000 0.000000 
0.000599 0.000325 
-0.000191 0.000017 
-0.000110 0.000040 
0.000329 0.031016 
-0.000052 0.000304 
-0.000440 -0.000008 
-0.000003 0.000197 
-0.000007 0.000004 
-0.000091 -0.000083 
0.000007 0.000917 
-0.000080 0.000059 
-0.000628 0.051547 
-0.000156 0.005286 
0.000148 0.000988 
0.000014 0.000001 
0.000158 0.005785 
0.000122 0.012218 
0.000115 0.000097 
0.000184 0.066713 
0.000000 0.000000 
-0.000108 0.011767 
0.000063 0.000128 
0.000000 0.000000 
0.000137 0.000004 
-0.000067 0.000012 
-0.000034 -0.000034 
-0.024201 0.011025 
-0.000124 0.000105 
-0.001020 0.010975 
-0.000088 0.000104 
-0.000145 0.000065 
-0.000103 0.000108 
-0.000333 0.031011 
-0.024331 0.010841 
0.024046 0.014081 
-0.000251 0.011556 
0.000656 0.033162 
-0.000158 0.000128 
-0.000043 0.000133 
0.001438 0.010975 
0.024387 0.009849 
-0.000050 0.000026 
0.000052 0.000156 
-0.000153 0.000003 
0.024091 0.009725 
-0.000201 0.011522 
-0.000066 -0.000023 
0.000002 0.000050 
-0.000046 -0.000015 
-0.000019 0.000023 
-0.000010 0.000021 
-0.000090 0.000036 
-0.024262 0.015118 
-0.000030 0.000111 
-0.000049 0.000084 
0.024261 0.019074 
0.000030 0.000474 
-0.000092 0.000071 
-0.000066 0.000057 
-0.000098 0.000018 
-0.000301 0.042712 
0.000170 0.026492 
-0.024375 0.044672 
-0.024146 0.035570 
-0.000332 0.063079 
-0.000095 0.002301 
-0.000064 0.000035 
-0.024020 0.020157 
-0.000029 -0.000015 
0.000014 0.000139 
0.000299 0.026595 
0.024380 0.034670 
-0.000032 -0.000008 
0.000033 0.000033 
0.000125 0.000127 
0.000098 0.000096 
0.000076 0.000039 
0.000207 0.002778 
0.024115 0.043725 
0.000039 0.000097 
0.000053 0.000135 
-0.000266 0.050232 
-0.000075 0.009529 
0.000069 0.000024 
0.000130 0.000278 
0.000102 0.000496 
0.000512 0.078779 
0.024154 0.045442 
0.000000 0.000000 
0.024586 0.023445 
-0.000275 0.031915 
0.000223 0.008122 
0.000000 0.000000 
-0.000295 0.050155 
0.000116 0.000126 
0.000037 0.009608 
-0.024524 0.046145 
-0.024359 0.023985 
0.000111 0.000116 
0.000071 0.000255 
0.000000 0.000000 
-0.000078 0.000444 
-0.000024 0.000089 
-0.000219 0.007545 
0.000000 0.000000 
0.000084 0.000000 
0.000035 -0.000012 
0.000030 -0.000034 
0.000037 0.000023 
0.000039 -0.000011 
0.000276 0.000054 
-0.000087 -0.000003 
-0.000045 -0.000001 
-0.000104 0.000024 
-0.014357 0.025573 
-0.014165 0.011193 
-0.001928 0.027335 
-0.000171 0.000034 
-0.007169 0.001815 
-0.008443 0.001540 
0.000501 0.002182 
-0.003982 0.002106 
0.000016 0.000202 
-0.000065 0.000115 
-0.000095 0.000098 
-0.000067 0.000110 
-0.000126 0.000053 
-0.000119 0.000078 
-0.000107 0.000078 
-0.000151 0.000087 
-0.000132 0.000087 
-0.000167 0.000064 
-0.000104 0.000045 
-0.000157 0.000054 
-0.000128 0.000041 
-0.000600 0.032398 
-0.023884 0.024802 
-0.023441 0.024812 
-0.027281 0.024613 
0.000000 0.030659 
-0.027979 0.010869 
-0.007488 0.001372 
0.023768 0.029241 
0.013916 0.027428 
0.000572 0.034809 
0.003816 0.002197 
0.013743 0.012538 
0.007007 0.003046 
0.000568 0.031888 
0.000334 0.026166 
-0.013338 0.025323 
-0.000070 0.000125 
-0.000046 0.000112 
-0.000187 0.000053 
-0.000119 0.000121 
-0.000041 0.000177 
-0.000079 0.000155 
-0.000109 0.000218 
-0.014186 0.011031 
-0.000415 0.001650 
-0.004551 0.001388 
0.000957 0.027335 
0.013679 0.024877 
0.004524 0.001600 
0.014456 0.010471 
0.000117 0.001317 
0.023518 0.023595 
0.027278 0.023213 
-0.000109 -0.000002 
-0.000109 0.000005 
-0.000134 -0.000000 
0.000040 0.000212 
-0.000018 0.000066 
0.000009 0.000100 
-0.000212 -0.000000 
-0.000096 0.000013 
-0.000026 0.000031 
0.000356 0.026147 
-0.013311 0.028099 
0.023785 0.023595 
0.013934 0.024613 
0.003878 0.001330 
0.013788 0.010379 
0.007067 0.001290 
0.007447 0.001538 
0.008371 0.001393 
0.027958 0.009561 
-0.000106 -0.000020 
-0.000062 0.000004 
-0.000003 0.000021 
-0.000023 0.000014 
-0.000029 -0.000012 
-0.000012 0.000045 
0.000005 0.000102 
-0.000039 0.000001 
-0.000027 0.000010 
-0.000023 0.000018 
-0.000059 -0.000019 
-0.000036 0.000002 
-0.000063 -0.000055 
-0.000002 0.000016 
-0.000011 0.000018 
-0.000000 0.000023 
-0.014129 0.013119 
-0.023404 0.030420 
-0.000052 0.000129 
-0.000345 0.001594 
-0.007391 0.002991 
-0.004470 0.002139 
-0.000105 -0.000048 
-0.000003 0.000041 
-0.000040 0.000028 
-0.000016 0.000074 
-0.000037 0.000106 
-0.000043 0.000100 
-0.000015 0.000176 
-0.000029 0.000128 
-0.000063 0.000068 
-0.000042 0.000094 
-0.000057 0.000078 
0.027250 0.031741 
0.027896 0.016253 
0.000033 0.000627 
0.007358 0.005616 
0.004422 0.007323 
0.008304 0.004190 
-0.000001 0.000382 
-0.000075 0.000090 
-0.000096 0.000054 
-0.000083 0.000062 
-0.000077 0.000064 
-0.000092 0.000055 
-0.000092 0.000060 
-0.000070 -0.000008 
-0.000087 0.000032 
-0.000040 0.000046 
-0.000006 0.000150 
-0.000016 0.000104 
-0.000044 0.000086 
0.000019 0.039465 
0.023427 0.035038 
-0.000357 0.044090 
0.013323 0.039171 
-0.000538 0.046727 
0.014113 0.022512 
0.000282 0.009326 
-0.023511 0.066237 
-0.027315 0.061225 
-0.000034 0.069066 
-0.008442 0.017428 
-0.028005 0.040277 
-0.007490 0.020755 
-0.000552 0.057084 
-0.023816 0.055486 
-0.013949 0.049627 
-0.000091 0.000019 
-0.000050 0.000076 
-0.000040 0.001441 
-0.000097 -0.000027 
-0.000099 0.000263 
-0.000110 0.000040 
-0.000139 0.003575 
-0.013834 0.030898 
-0.007146 0.014363 
-0.003952 0.011661 
-0.027218 0.033115 
-0.008321 0.004154 
-0.027884 0.017472 
-0.023729 0.036243 
-0.013872 0.039893 
-0.000042 -0.000004 
-0.000045 -0.000022 
0.000084 0.000467 
-0.000022 -0.000053 
0.000017 -0.000014 
-0.000051 -0.000068 
-0.000049 -0.000033 
0.023467 0.054372 
0.027264 0.059920 
-0.000288 0.044144 
0.013380 0.049009 
0.004594 0.011842 
0.014240 0.030426 
0.000445 0.009448 
-0.007008 0.005619 
-0.003801 0.007381 
-0.013705 0.023186 
-0.000039 -0.000001 
-0.000032 -0.000003 
0.000020 0.000022 
-0.000010 0.000006 
-0.000013 -0.000008 
-0.000002 0.000004 
0.000060 0.000041 
0.000121 0.000098 
0.000108 0.000084 
0.000099 0.000062 
0.000146 0.000297 
0.000117 0.000117 
0.000152 0.000516 
0.000045 0.000017 
0.000085 0.000064 
0.000054 0.000043 
0.027997 0.039206 
0.023745 0.065090 
0.000191 0.001744 
0.007536 0.014584 
0.007171 0.020951 
0.008481 0.017657 
0.000195 0.004125 
0.000068 0.000066 
0.000128 0.000179 
0.000098 0.000104 
-0.000003 0.000093 
0.000003 0.000129 
-0.000063 0.000707 
-0.000017 0.000062 
0.000094 0.000125 
0.000051 0.000106 
0.000099 0.000110 
-0.013425 0.069725 
-0.014224 0.048238 
0.000017 0.011370 
-0.000367 0.026872 
0.003916 0.028373 
-0.004538 0.024073 
-0.000136 0.007352 
0.000021 0.000003 
0.000081 0.000059 
0.000027 0.000035 
0.000126 0.000103 
0.000121 0.000084 
0.000106 0.000060 
0.000163 0.003385 
0.000135 0.000433 
0.000129 0.003041 
-0.000004 0.001393 
0.000066 0.002246 
0.000093 0.000159 
0.000458 0.077975 
0.000245 0.070688 
0.023757 0.060407 
0.013848 0.067966 
0.000408 0.075440 
0.013775 0.049670 
0.007175 0.027577 
0.000000 0.000000 
0.013727 0.010191 
-0.000309 0.010977 
0.004580 0.006046 
0.014448 0.008504 
0.000000 0.000000 
-0.000077 0.051915 
0.023678 0.029299 
0.027345 0.047300 
0.000043 0.000299 
0.000000 0.000000 
0.000206 0.011308 
0.000146 0.002835 
0.000000 0.000000 
0.000074 0.001293 
0.000130 0.003226 
0.028110 0.036659 
0.007623 0.015826 
0.008540 0.023511 
0.013844 0.069034 
0.003950 0.024189 
0.013764 0.047662 
0.000206 0.070618 
-0.013522 0.068502 
0.000122 0.000107 
0.000123 0.000126 
-0.000035 0.011168 
0.000124 0.001488 
0.000088 0.002220 
0.000145 0.000902 
0.000103 0.007683 
-0.023947 0.030123 
-0.013953 0.010545 
-0.023660 0.061359 
-0.027483 0.048356 
-0.008582 0.023077 
-0.028208 0.037409 
-0.007558 0.027261 
-0.000331 0.026866 
-0.004539 0.028214 
-0.014307 0.050068 
0.000118 0.000103 
0.000113 0.000110 
0.000062 0.000105 
0.000094 0.000109 
0.000093 0.000125 
0.000102 0.000158 
0.000028 0.002897 
0.000000 0.000000 
-0.000075 0.000042 
-0.000044 0.000035 
-0.000212 0.001111 
-0.000142 0.000242 
0.000000 0.000000 
0.000021 0.000119 
-0.000039 0.000078 
0.000016 0.000095 
-0.014000 0.008697 
0.000000 0.000000 
-0.000175 0.010711 
-0.007326 0.015377 
0.000000 0.000000 
-0.004120 0.005757 
-0.000201 0.002876 
0.000011 0.000394 
-0.000158 0.002585 
-0.000057 0.003157 
0.000073 0.000000 
0.000061 -0.000011 
0.000054 -0.000021 
0.000079 -0.000010 
0.000068 -0.000009 
0.000104 -0.000000 
-0.000001 -0.000039 
0.000033 -0.000018 
-0.000003 -0.000018 
0.000185 0.000086 
0.000151 0.000021 
0.000407 0.000136 
-0.000018 -0.000002 
0.000040 -0.000003 
-0.000031 0.000009 
0.000191 0.000019 
0.000121 -0.000004 
0.000096 -0.000010 
-0.000102 0.000018 
-0.000095 0.000013 
-0.000111 0.000029 
-0.000039 -0.000012 
-0.000071 -0.000001 
-0.000064 -0.000021 
-0.000089 0.000019 
-0.000079 0.000011 
-0.000054 0.000006 
0.000037 -0.000012 
-0.000010 -0.000006 
-0.000005 -0.000009 
-0.005161 0.031746 
-0.008221 0.026292 
-0.001609 0.033320 
-0.019811 0.011119 
-0.016267 0.018460 
-0.022554 0.018221 
-0.001712 0.019180 
-0.009100 0.018781 
-0.007720 0.011187 
-0.000183 0.000018 
-0.001648 0.000186 
-0.001643 0.000120 
-0.001348 0.000387 
-0.001549 0.000277 
-0.000152 0.000064 
-0.018095 0.005196 
-0.008077 0.001669 
-0.016161 0.005318 
0.000782 0.000865 
-0.000097 0.000774 
0.000212 0.000244 
-0.004839 0.005489 
-0.001878 0.002208 
-0.000214 0.005295 
-0.000076 0.000154 
-0.000647 0.000644 
-0.001049 0.000511 
-0.013152 0.005432 
-0.005776 0.001966 
-0.009283 0.005508 
-0.000056 0.000115 
-0.000066 0.000109 
-0.000056 0.000111 
-0.000091 0.000098 
-0.000079 0.000105 
-0.000076 0.000111 
-0.000083 0.000110 
-0.000081 0.000105 
-0.000099 0.000102 
-0.000118 0.000046 
-0.000119 0.000062 
-0.000111 0.000060 
-0.000133 0.000071 
-0.000125 0.000066 
-0.000135 0.000059 
-0.000098 0.000093 
-0.000113 0.000076 
-0.000103 0.000088 
-0.000175 0.000060 
-0.000162 0.000074 
-0.000179 0.000050 
-0.000119 0.000098 
-0.000140 0.000090 
-0.000126 0.000102 
-0.000156 0.000068 
-0.000151 0.000078 
-0.000141 0.000076 
-0.000108 0.000089 
-0.000125 0.000083 
-0.000113 0.000093 
0.000026 0.000085 
-0.000121 0.000075 
-0.000068 0.000084 
-0.000049 0.000035 
-0.000084 0.000024 
-0.000176 0.000047 
-0.000154 0.000058 
-0.000166 0.000058 
-0.000168 0.000052 
-0.000151 0.000063 
-0.000119 0.000039 
-0.000104 0.000027 
-0.000114 0.000033 
-0.000129 0.000047 
-0.000141 0.000053 
-0.000138 0.000051 
-0.000143 0.000048 
-0.000121 0.000038 
-0.000711 0.033668 
-0.008647 0.030677 
-0.014010 0.029538 
-0.011689 0.029971 
-0.000477 0.031546 
-0.019735 0.025095 
-0.027430 0.018056 
-0.013378 0.029552 
-0.015094 0.029350 
0.000171 0.030763 
-0.030436 0.017935 
-0.026251 0.024671 
-0.027272 0.018009 
-0.000171 0.030731 
-0.015787 0.029264 
-0.015414 0.029316 
-0.008242 0.001438 
-0.001532 0.000082 
-0.026995 0.010937 
-0.018813 0.005086 
-0.016473 0.004954 
-0.018261 0.005000 
-0.027073 0.010834 
-0.026468 0.024650 
-0.031535 0.017919 
-0.030504 0.017958 
0.013948 0.034660 
0.011557 0.033630 
0.000471 0.035783 
0.022287 0.020911 
0.019507 0.028257 
0.027283 0.021846 
0.000635 0.033938 
0.008379 0.032738 
0.004630 0.031966 
0.000883 0.000699 
0.005604 0.002584 
0.001174 0.000907 
0.006985 0.011982 
0.009009 0.006220 
0.004450 0.005766 
0.016007 0.007481 
0.012951 0.006790 
0.019562 0.013234 
0.000464 0.031397 
-0.007396 0.030249 
-0.010753 0.029855 
0.000567 0.031301 
-0.003535 0.030730 
0.000633 0.032478 
-0.008123 0.018634 
-0.006731 0.025699 
0.000030 0.019017 
0.015771 0.020139 
0.008180 0.019513 
0.007377 0.026737 
-0.000056 0.000112 
-0.000047 0.000110 
-0.000087 0.000117 
-0.000069 0.000115 
-0.000045 0.000120 
-0.000055 0.000119 
-0.000056 0.000130 
-0.000192 0.000029 
-0.000166 0.000076 
-0.000134 0.000125 
-0.000152 0.000099 
-0.000175 0.000087 
-0.000137 0.000103 
-0.000109 0.000115 
-0.000043 0.000211 
-0.000066 0.000197 
-0.000081 0.000262 
-0.000057 0.000146 
-0.000059 0.000168 
-0.000042 0.000151 
-0.000136 0.000172 
-0.000090 0.000176 
-0.000113 0.000151 
-0.000091 0.000128 
-0.000099 0.000139 
-0.000073 0.000138 
-0.019037 0.025029 
-0.007472 0.011244 
-0.015724 0.018348 
-0.022255 0.018143 
-0.019936 0.010902 
0.000527 0.000518 
-0.000281 0.000244 
0.000130 0.000366 
0.001763 0.001886 
-0.000415 0.005423 
-0.001325 0.000073 
-0.013567 0.004960 
-0.006229 0.001353 
-0.001033 0.000098 
-0.000677 0.000155 
-0.005256 0.005182 
-0.002568 0.001485 
-0.009742 0.005031 
0.000098 0.033320 
0.003903 0.031533 
0.008871 0.018357 
0.007406 0.025926 
0.001453 0.019180 
0.007589 0.030271 
0.010850 0.029397 
0.000393 0.000170 
0.002486 0.001535 
-0.000400 0.000017 
0.020067 0.010132 
0.009866 0.004895 
0.013625 0.004736 
0.000866 0.004905 
0.005486 0.004997 
0.008023 0.010800 
0.015787 0.028442 
0.015392 0.028554 
0.013424 0.028832 
0.015113 0.028526 
0.030464 0.016436 
0.026281 0.023301 
0.027353 0.016688 
0.016090 0.017665 
0.022432 0.017102 
0.019203 0.024113 
-0.000124 -0.000005 
-0.000127 -0.000002 
-0.000130 -0.000000 
-0.000078 0.000014 
-0.000109 0.000002 
-0.000083 0.000007 
-0.000141 0.000002 
-0.000131 -0.000000 
-0.000137 0.000000 
0.000020 0.000213 
0.000023 0.000147 
0.000016 0.000150 
0.000011 0.000102 
0.000023 0.000130 
0.000052 0.000194 
-0.000016 0.000057 
0.000000 0.000087 
-0.000037 0.000042 
-0.000286 0.000000 
-0.000164 -0.000010 
-0.000155 -0.000030 
-0.000146 -0.000001 
-0.000157 -0.000004 
-0.000173 0.000002 
0.000032 0.000100 
-0.000073 0.000021 
-0.000018 0.000063 
-0.000067 0.000024 
-0.000049 0.000039 
-0.000105 0.000008 
-0.007381 0.033135 
-0.010735 0.034196 
0.000577 0.031290 
-0.003523 0.032166 
-0.008085 0.019881 
-0.006707 0.027075 
0.000065 0.018990 
0.013951 0.028837 
0.011561 0.029269 
0.022317 0.017032 
0.019523 0.024033 
0.027314 0.016651 
0.008385 0.029831 
0.004639 0.030509 
0.000941 0.000238 
0.005664 0.001286 
0.001230 0.000286 
0.007032 0.010891 
0.009065 0.004672 
0.004509 0.004977 
0.016063 0.004344 
0.013006 0.004463 
0.019606 0.009990 
0.007396 0.025322 
0.015802 0.017555 
0.008213 0.018211 
0.000884 0.000292 
0.001437 0.000399 
0.001219 0.000366 
0.006202 0.001590 
0.016486 0.004573 
0.001435 0.000334 
0.018028 0.004307 
0.007989 0.001329 
0.001543 0.000374 
0.001545 0.000398 
0.026429 0.023317 
0.027084 0.009654 
0.031526 0.016347 
0.030454 0.016420 
0.026939 0.009583 
0.008186 0.001467 
0.018771 0.004341 
0.018243 0.004435 
-0.000120 -0.000011 
-0.000108 -0.000008 
-0.000065 -0.000007 
-0.000087 -0.000009 
-0.000087 -0.000023 
-0.000086 -0.000000 
-0.000058 0.000014 
-0.000005 0.000012 
-0.000013 0.000007 
-0.000016 -0.000004 
-0.000007 0.000032 
-0.000010 0.000018 
-0.000001 0.000034 
-0.000046 -0.000018 
-0.000026 0.000001 
-0.000044 -0.000003 
0.000009 0.000105 
0.000003 0.000142 
-0.000028 0.000036 
-0.000003 0.000068 
0.000004 0.000072 
0.000003 0.000073 
-0.000003 0.000049 
-0.000041 0.000009 
-0.000019 0.000027 
-0.000036 0.000021 
-0.000037 0.000006 
-0.000031 0.000009 
-0.000030 0.000014 
-0.000037 0.000000 
-0.000033 0.000005 
-0.000042 -0.000005 
-0.000016 0.000020 
-0.000025 0.000013 
-0.000017 0.000016 
-0.000081 -0.000069 
-0.000063 -0.000040 
-0.000078 -0.000091 
-0.000027 0.000012 
-0.000045 -0.000006 
-0.000036 0.000010 
-0.000053 -0.000031 
-0.000051 -0.000020 
-0.000042 -0.000008 
-0.000003 0.000011 
-0.000001 0.000018 
-0.000001 0.000015 
-0.000010 0.000018 
-0.000004 0.000019 
-0.000005 0.000020 
-0.000006 0.000026 
-0.000005 0.000021 
-0.000014 0.000020 
-0.000030 0.000007 
-0.000022 0.000014 
-0.000019 0.000014 
-0.019006 0.029215 
-0.013355 0.035357 
-0.007419 0.012267 
-0.015683 0.020876 
-0.027221 0.023148 
-0.022210 0.021967 
-0.019874 0.014072 
-0.000028 0.000168 
0.000588 0.000197 
-0.000210 0.000171 
0.000195 0.000172 
-0.000073 0.000083 
0.001828 0.001430 
-0.000353 0.005381 
-0.001431 0.000529 
-0.001233 0.000373 
-0.000102 -0.000074 
-0.013490 0.007191 
-0.006141 0.002526 
-0.016388 0.007985 
-0.000101 -0.000010 
-0.000950 0.000265 
-0.000601 0.000199 
-0.005190 0.005886 
-0.002493 0.001829 
-0.009671 0.006490 
0.000000 0.000023 
-0.000010 0.000033 
-0.000001 0.000031 
0.000001 0.000033 
0.000001 0.000047 
-0.000079 -0.000040 
-0.000061 0.000029 
-0.000072 -0.000007 
-0.000051 0.000004 
-0.000027 0.000026 
-0.000013 0.000123 
-0.000000 0.000066 
-0.000004 0.000091 
-0.000030 0.000097 
-0.000046 0.000065 
-0.000017 0.000042 
-0.000028 0.000052 
-0.000007 0.000056 
-0.000042 0.000107 
-0.000045 0.000107 
-0.000038 0.000119 
-0.000040 0.000110 
-0.000045 0.000092 
-0.000040 0.000102 
-0.000042 0.000095 
-0.000023 0.000218 
-0.000026 0.000180 
-0.000028 0.000121 
-0.000023 0.000148 
-0.000019 0.000140 
-0.000031 0.000152 
-0.000034 0.000132 
-0.000072 0.000063 
-0.000061 0.000074 
-0.000070 0.000068 
-0.000046 0.000088 
-0.000052 0.000081 
-0.000056 0.000075 
-0.000043 0.000091 
-0.000049 0.000086 
-0.000037 0.000101 
-0.000034 0.000115 
-0.000034 0.000109 
-0.000038 0.000101 
0.015389 0.035844 
0.026409 0.030397 
0.027000 0.017584 
0.031478 0.024251 
0.030392 0.025737 
0.030418 0.022956 
0.026888 0.015086 
0.000023 0.000749 
0.000888 0.002799 
0.000532 0.003265 
0.001382 0.002024 
0.001178 0.002388 
0.000035 0.000539 
0.013466 0.012728 
0.006100 0.006434 
0.016371 0.011449 
0.001380 0.001143 
-0.000025 0.000343 
0.017969 0.008293 
0.007928 0.003582 
0.000018 0.000424 
0.001487 0.001406 
0.001488 0.001698 
0.018157 0.010280 
0.008109 0.004868 
0.018702 0.009227 
-0.000061 0.000101 
-0.000079 0.000077 
-0.000065 0.000085 
-0.000094 0.000065 
-0.000089 0.000070 
-0.000085 0.000080 
-0.000094 0.000039 
-0.000092 0.000057 
-0.000097 0.000039 
-0.000079 0.000064 
-0.000087 0.000061 
-0.000087 0.000058 
-0.000083 0.000052 
-0.000086 0.000058 
-0.000073 0.000061 
-0.000093 0.000065 
-0.000093 0.000060 
-0.000095 0.000061 
-0.000039 0.000121 
-0.000054 0.000017 
-0.000020 0.000109 
-0.000094 0.000023 
-0.000080 0.000014 
-0.000090 0.000000 
-0.000056 0.000051 
-0.000068 0.000032 
-0.000077 0.000043 
-0.000096 0.000053 
-0.000091 0.000045 
-0.000096 0.000041 
-0.000006 0.000216 
0.000012 0.000186 
0.000006 0.000205 
-0.000008 0.000166 
-0.000020 0.000127 
-0.000005 0.000117 
-0.000043 0.000072 
-0.000026 0.000075 
0.000006 0.000137 
0.000012 0.000162 
-0.000067 0.000070 
-0.000036 0.000099 
-0.000052 0.000081 
-0.000062 0.000071 
-0.000055 0.000071 
-0.000009 0.000129 
-0.000033 0.000092 
-0.000025 0.000111 
0.000185 0.038096 
0.015782 0.037202 
0.013387 0.040498 
0.015099 0.038749 
-0.000146 0.040998 
0.026233 0.033285 
0.027232 0.027417 
-0.000563 0.049594 
0.003543 0.047015 
-0.000604 0.049039 
0.008077 0.033568 
0.006713 0.041540 
-0.000081 0.035948 
-0.000434 0.044619 
0.007406 0.044632 
0.010763 0.042458 
0.002438 0.008286 
0.000135 0.003797 
0.019865 0.020719 
0.009638 0.014114 
0.000306 0.017184 
0.005150 0.015601 
0.007395 0.024440 
0.019024 0.037001 
0.015682 0.031342 
0.022215 0.029288 
-0.013453 0.072440 
-0.015152 0.069994 
0.000118 0.071848 
-0.030486 0.054278 
-0.026307 0.063867 
-0.027332 0.056547 
-0.000188 0.066111 
-0.015822 0.067253 
-0.015419 0.064322 
-0.001627 0.010247 
-0.008246 0.019071 
-0.001515 0.011591 
-0.026993 0.037937 
-0.018829 0.028282 
-0.018094 0.026301 
-0.016497 0.032206 
-0.018284 0.030265 
-0.027112 0.042541 
-0.000610 0.054237 
-0.008385 0.055248 
-0.004631 0.052350 
-0.013969 0.061294 
-0.011570 0.058248 
-0.000457 0.060048 
-0.022355 0.043760 
-0.019547 0.052540 
-0.027357 0.046474 
-0.031566 0.051794 
-0.030498 0.049171 
-0.026465 0.058404 
-0.000069 0.000068 
-0.000046 0.000094 
-0.000097 0.000016 
-0.000086 0.000043 
-0.000056 0.000057 
-0.000074 0.000049 
-0.000080 0.000025 
-0.000015 0.001143 
-0.000060 0.000166 
-0.000099 0.000391 
-0.000080 0.000252 
-0.000068 0.001823 
-0.000085 -0.000024 
-0.000097 -0.000009 
-0.000126 0.001689 
-0.000129 0.001238 
-0.000152 0.004378 
-0.000089 -0.000005 
-0.000107 0.000127 
-0.000076 0.000012 
-0.000119 0.002883 
-0.000125 0.000876 