# vtk DataFile Version 2.0
Unstructured Grid Example
ASCII
DATASET UNSTRUCTURED_GRID

POINTS 12 float
-0.968509 -0.005857 0.000000 
0.066079 0.021858 0.000000 
1.106311 0.055488 0.000000 
-1.089572 0.957524 0.000000 
-0.090647 1.023756 0.000000 
0.904105 1.052098 0.000000 
-1.125756 1.998581 0.000000 
-0.117219 2.049977 0.000000 
0.896117 2.005942 0.000000 
-1.000000 3.000000 0.000000 
0.000000 3.000000 0.000000 
1.000000 3.000000 0.000000 

CELLS 12 48
3  0 1 3 
3  1 4 3 
3  1 2 4 
3  2 5 4 
3  3 4 6 
3  4 7 6 
3  4 5 7 
3  5 8 7 
3  6 7 9 
3  7 10 9 
3  7 8 10 
3  8 11 10 

CELL_TYPES 12
5
5
5
5
5
5
5
5
5
5
5
5

POINT_DATA 12

SCALARS u_h float 2
LOOKUP_TABLE default
0.031491 -0.005857 
0.066079 0.021858 
0.106311 0.055488 
-0.089572 -0.042476 
-0.090647 0.023756 
-0.095895 0.052098 
-0.125756 -0.001419 
-0.117219 0.049977 
-0.103883 0.005942 
0.000000 0.000000 
0.000000 0.000000 
0.000000 0.000000 

CELL_DATA 12

SCALARS epsilon float 4
LOOKUP_TABLE default
0.044674 -0.033548 0.000000 -0.044073
0.021254 0.014359 0.000000 -0.045385
0.055653 0.007456 0.000000 -0.058577
0.021064 0.002773 0.000000 -0.087416
0.001830 0.044532 0.000000 0.013730
0.010148 0.028424 0.000000 0.011875
-0.004186 0.026999 0.000000 0.000461
0.012917 -0.046544 0.000000 -0.027012
0.009933 -0.003690 0.000000 0.088006
0.007612 -0.051222 0.000000 0.058447
0.025927 -0.044853 0.000000 0.034543
0.005461 -0.005959 0.000000 0.051940

SCALARS sigma float 4
LOOKUP_TABLE default
0.294491 -0.253225 0.012380 -0.359012
0.193901 0.216514 0.123125 -0.344194
0.625659 0.344150 0.290943 -0.451986
0.020408 0.034746 0.016546 -0.670644
0.256773 0.567694 0.247340 0.110878
0.286354 0.417609 0.211189 0.092127
0.090508 0.327458 0.125390 0.006661
-0.109050 -0.582690 -0.207522 -0.207088
-0.000948 -0.055508 -0.016937 0.678976
-0.303495 -0.708156 -0.303495 0.474560
-0.023097 -0.526296 -0.164818 0.290826
-0.034483 -0.080461 -0.034483 0.401939

