# vtk DataFile Version 2.0
Unstructured Grid Example
ASCII
DATASET UNSTRUCTURED_GRID

POINTS 4 float
0.000000 3.820354 0.000000 
0.500000 -7.640707 0.000000 
0.500000 -7.640707 0.000000 
1.000000 3.820354 0.000000 

CELLS 2 6
2  0 1 
2  2 3 

CELL_TYPES 2
3
3

POINT_DATA 4

SCALARS lambda_h float 1
LOOKUP_TABLE default
3.820354 
-7.640707 
-7.640707 
3.820354 

