# vtk DataFile Version 2.0
Unstructured Grid Example
ASCII
DATASET UNSTRUCTURED_GRID

POINTS 9 float
0.015054 -0.135918 0.000000 
0.984946 -0.135918 0.000000 
1.000000 1.000000 0.000000 
0.000000 1.000000 0.000000 
0.500000 -0.060805 0.000000 
0.977426 0.409603 0.000000 
0.500000 1.000000 0.000000 
0.022574 0.409603 0.000000 
0.500000 0.417106 0.000000 

CELLS 8 32
3  0 4 8 
3  4 1 8 
3  1 5 8 
3  5 2 8 
3  2 6 8 
3  6 3 8 
3  3 7 8 
3  7 0 8 

CELL_TYPES 8
5
5
5
5
5
5
5
5

POINT_DATA 9

SCALARS u_h float 2
LOOKUP_TABLE default
0.015054 -0.135918 
-0.015054 -0.135918 
0.000000 0.000000 
0.000000 0.000000 
0.000000 -0.060805 
-0.022574 -0.090397 
0.000000 0.000000 
0.022574 -0.090397 
0.000000 -0.082894 

CELL_DATA 8

SCALARS epsilon float 4
LOOKUP_TABLE default
-0.030561 -0.032022 0.000000 0.078510
-0.030561 -0.032022 0.000000 -0.078510
-0.046276 0.086815 0.000000 -0.014683
-0.044764 0.165510 0.000000 0.016742
0.000000 0.152322 0.000000 -0.000000
0.000000 0.152322 0.000000 -0.000000
-0.044764 0.165510 0.000000 -0.016742
-0.046276 0.086815 0.000000 0.014683

SCALARS sigma float 4
LOOKUP_TABLE default
-0.883393 -1.097782 -0.625826 1.061075
-0.883393 -1.097782 -0.625826 -1.061075
-0.333281 1.984899 0.405386 -0.255715
0.447586 4.535278 1.207455 0.209589
1.523223 4.593182 1.523223 -0.000000
1.523223 4.593182 1.523223 -0.000000
0.447586 4.535278 1.207455 -0.209589
-0.333281 1.984899 0.405386 0.255715

