# vtk DataFile Version 2.0
Unstructured Grid Example
ASCII
DATASET UNSTRUCTURED_GRID

POINTS 25 float
0.013569 -0.147007 0.000000 
0.986431 -0.147007 0.000000 
1.000000 1.000000 0.000000 
0.000000 1.000000 0.000000 
0.500000 -0.090263 0.000000 
0.974771 0.400220 0.000000 
0.500000 1.000000 0.000000 
0.025229 0.400220 0.000000 
0.500000 0.403192 0.000000 
0.258300 -0.137144 0.000000 
0.500000 0.137567 0.000000 
0.255934 0.121586 0.000000 
0.741700 -0.137144 0.000000 
0.744066 0.121586 0.000000 
0.984338 0.118672 0.000000 
0.738398 0.399532 0.000000 
0.972442 0.690191 0.000000 
0.740062 0.694832 0.000000 
0.750000 1.000000 0.000000 
0.500000 0.696574 0.000000 
0.250000 1.000000 0.000000 
0.259938 0.694832 0.000000 
0.027558 0.690191 0.000000 
0.261602 0.399532 0.000000 
0.015662 0.118672 0.000000 

CELLS 32 128
3  0 9 11 
3  4 10 9 
3  8 11 10 
3  9 10 11 
3  4 12 10 
3  1 13 12 
3  8 10 13 
3  12 13 10 
3  1 14 13 
3  5 15 14 
3  8 13 15 
3  14 15 13 
3  5 16 15 
3  2 17 16 
3  8 15 17 
3  16 17 15 
3  2 18 17 
3  6 19 18 
3  8 17 19 
3  18 19 17 
3  6 20 19 
3  3 21 20 
3  8 19 21 
3  20 21 19 
3  3 22 21 
3  7 23 22 
3  8 21 23 
3  22 23 21 
3  7 24 23 
3  0 11 24 
3  8 23 11 
3  24 11 23 

CELL_TYPES 32
5
5
5
5
5
5
5
5
5
5
5
5
5
5
5
5
5
5
5
5
5
5
5
5
5
5
5
5
5
5
5
5

POINT_DATA 25

SCALARS u_h float 2
LOOKUP_TABLE default
0.013569 -0.147007 
-0.013569 -0.147007 
0.000000 0.000000 
0.000000 0.000000 
-0.000000 -0.090263 
-0.025229 -0.099780 
0.000000 0.000000 
0.025229 -0.099780 
-0.000000 -0.096808 
0.008300 -0.137144 
-0.000000 -0.112433 
0.005934 -0.128414 
-0.008300 -0.137144 
-0.005934 -0.128414 
-0.015662 -0.131328 
-0.011602 -0.100468 
-0.027558 -0.059809 
-0.009938 -0.055168 
0.000000 0.000000 
-0.000000 -0.053426 
0.000000 0.000000 
0.009938 -0.055168 
0.027558 -0.059809 
0.011602 -0.100468 
0.015662 -0.131328 

CELL_DATA 32

SCALARS epsilon float 4
LOOKUP_TABLE default
-0.020886 0.035436 0.000000 0.014225
-0.033749 -0.069924 0.000000 0.102763
-0.024018 0.062453 0.000000 0.030064
-0.023376 0.036907 0.000000 0.026025
-0.033749 -0.069924 0.000000 -0.102763
-0.020886 0.035436 0.000000 -0.014225
-0.024018 0.062453 0.000000 -0.030064
-0.023376 0.036907 0.000000 -0.026025
-0.039730 0.060728 0.000000 -0.009816
-0.055245 0.118430 0.000000 -0.018764
-0.047565 0.105386 0.000000 -0.018335
-0.039690 0.105415 0.000000 -0.016908
-0.055930 0.147369 0.000000 -0.003651
-0.066619 0.213525 0.000000 0.049601
-0.047377 0.165338 0.000000 -0.002775
-0.072817 0.165422 0.000000 -0.004320
0.000530 0.197118 0.000000 0.019227
0.000000 0.191577 0.000000 0.000000
-0.040541 0.158821 0.000000 -0.002963
-0.039731 0.197365 0.000000 0.017172
0.000000 0.191577 0.000000 0.000000
0.000530 0.197118 0.000000 -0.019227
-0.040541 0.158821 0.000000 0.002963
-0.039731 0.197365 0.000000 -0.017172
-0.066619 0.213525 0.000000 -0.049601
-0.055930 0.147369 0.000000 0.003651
-0.047377 0.165338 0.000000 0.002775
-0.072817 0.165422 0.000000 0.004320
-0.055245 0.118430 0.000000 0.018764
-0.039730 0.060728 0.000000 0.009816
-0.047565 0.105386 0.000000 0.018335
-0.039690 0.105415 0.000000 0.016908

SCALARS sigma float 4
LOOKUP_TABLE default
-0.183776 0.749244 0.145500 0.256646
-1.176927 -1.971023 -1.036736 1.162714
0.021074 1.491436 0.384351 0.567860
-0.215189 0.762001 0.135309 0.463524
-1.176927 -1.971023 -1.036736 -1.162714
-0.183776 0.749244 0.145500 -0.256646
0.021074 1.491436 0.384351 -0.567860
-0.215189 0.762001 0.135309 -0.463524
-0.421840 1.278290 0.209975 -0.168213
-0.259179 2.873825 0.631854 -0.283373
-0.187803 2.544237 0.578213 -0.317815
0.009098 2.631319 0.657249 -0.292029
-0.002834 3.791019 0.914397 -0.048063
0.335578 6.015321 1.469055 0.673349
0.383659 4.488097 1.179612 -0.093863
-0.246648 4.197132 0.926054 -0.127009
1.985183 6.161211 1.976487 0.315319
1.915765 5.948142 1.915765 0.000000
0.496777 4.347516 1.182798 -0.070006
0.885024 5.693703 1.576338 0.241432
1.915765 5.948142 1.915765 0.000000
1.985183 6.161211 1.976487 -0.315319
0.496777 4.347516 1.182798 0.070006
0.885024 5.693703 1.576338 -0.241432
0.335578 6.015321 1.469055 -0.673349
-0.002834 3.791019 0.914397 0.048063
0.383659 4.488097 1.179612 0.093863
-0.246648 4.197132 0.926054 0.127009
-0.259179 2.873825 0.631854 0.283373
-0.421840 1.278290 0.209975 0.168213
-0.187803 2.544237 0.578213 0.317815
0.009098 2.631319 0.657249 0.292029

