# vtk DataFile Version 2.0
Unstructured Grid Example
ASCII
DATASET UNSTRUCTURED_GRID

POINTS 16641 float
0.007274 -0.142300 0.000000 
0.992726 -0.142300 0.000000 
1.000000 1.000000 0.000000 
0.000000 1.000000 0.000000 
0.500000 -0.099990 0.000000 
0.973988 0.399515 0.000000 
0.500000 1.000000 0.000000 
0.026012 0.399515 0.000000 
0.500000 0.401598 0.000000 
0.258500 -0.137731 0.000000 
0.500000 0.130944 0.000000 
0.254351 0.121743 0.000000 
0.741500 -0.137731 0.000000 
0.745649 0.121743 0.000000 
0.986338 0.120710 0.000000 
0.738719 0.398588 0.000000 
0.968966 0.689446 0.000000 
0.738328 0.693648 0.000000 
0.750000 1.000000 0.000000 
0.500000 0.694685 0.000000 
0.250000 1.000000 0.000000 
0.261672 0.693648 0.000000 
0.031034 0.689446 0.000000 
0.261281 0.398588 0.000000 
0.013662 0.120710 0.000000 
0.132576 -0.142938 0.000000 
0.252787 -0.009924 0.000000 
0.131668 -0.014770 0.000000 
0.500000 0.008931 0.000000 
0.374232 0.001918 0.000000 
0.379307 -0.114558 0.000000 
0.378290 0.261071 0.000000 
0.375969 0.127763 0.000000 
0.500000 0.262685 0.000000 
0.620693 -0.114558 0.000000 
0.625768 0.001918 0.000000 
0.868332 -0.014770 0.000000 
0.747213 -0.009924 0.000000 
0.867424 -0.142938 0.000000 
0.624031 0.127763 0.000000 
0.621710 0.261071 0.000000 
0.990549 -0.013714 0.000000 
0.865961 0.118530 0.000000 
0.856469 0.397193 0.000000 
0.861271 0.255869 0.000000 
0.980200 0.258732 0.000000 
0.742059 0.257744 0.000000 
0.619871 0.400678 0.000000 
0.969581 0.542991 0.000000 
0.853548 0.542571 0.000000 
0.861783 0.845402 0.000000 
0.854527 0.692075 0.000000 
0.975122 0.839584 0.000000 
0.737077 0.544093 0.000000 
0.619085 0.545504 0.000000 
0.875000 1.000000 0.000000 
0.743036 0.846111 0.000000 
0.500000 0.846293 0.000000 
0.621940 0.846251 0.000000 
0.625000 1.000000 0.000000 
0.619768 0.694424 0.000000 
0.500000 0.546060 0.000000 
0.375000 1.000000 0.000000 
0.378060 0.846251 0.000000 
0.138217 0.845402 0.000000 
0.256964 0.846111 0.000000 
0.125000 1.000000 0.000000 
0.380232 0.694424 0.000000 
0.380915 0.545504 0.000000 
0.024878 0.839584 0.000000 
0.145473 0.692075 0.000000 
0.143531 0.397193 0.000000 
0.146452 0.542571 0.000000 
0.030419 0.542991 0.000000 
0.262923 0.544093 0.000000 
0.380129 0.400678 0.000000 
0.019800 0.258732 0.000000 
0.138729 0.255869 0.000000 
0.134039 0.118530 0.000000 
0.009451 -0.013714 0.000000 
0.257941 0.257744 0.000000 
0.069791 -0.143027 0.000000 
0.131841 -0.079653 0.000000 
0.070069 -0.079708 0.000000 
0.254299 -0.074478 0.000000 
0.193356 -0.078135 0.000000 
0.195545 -0.141422 0.000000 
0.192812 0.052664 0.000000 
0.192412 -0.013273 0.000000 
0.253091 0.055438 0.000000 
0.500000 -0.047306 0.000000 
0.436954 -0.050010 0.000000 
0.438668 -0.103752 0.000000 
0.437132 0.067230 0.000000 
0.436702 0.007037 0.000000 
0.500000 0.068505 0.000000 
0.320894 -0.130017 0.000000 
0.374816 -0.057675 0.000000 
0.314381 -0.067561 0.000000 
0.439564 0.331044 0.000000 
0.439030 0.262254 0.000000 
0.500000 0.331363 0.000000 
0.314858 0.124699 0.000000 
0.377147 0.193561 0.000000 
0.316370 0.191357 0.000000 
0.500000 0.195788 0.000000 
0.438417 0.195189 0.000000 
0.437762 0.130081 0.000000 
0.313099 -0.004543 0.000000 
0.374895 0.063824 0.000000 
0.313618 0.059439 0.000000 
0.561332 -0.103752 0.000000 
0.563046 -0.050010 0.000000 
0.685619 -0.067561 0.000000 
0.625184 -0.057675 0.000000 
0.679106 -0.130017 0.000000 
0.563298 0.007037 0.000000 
0.562868 0.067230 0.000000 
0.929931 -0.079708 0.000000 
0.868159 -0.079653 0.000000 
0.930209 -0.143027 0.000000 
0.746909 0.055438 0.000000 
0.807588 -0.013273 0.000000 
0.807188 0.052664 0.000000 
0.804455 -0.141422 0.000000 
0.806644 -0.078135 0.000000 
0.745701 -0.074478 0.000000 
0.560970 0.262254 0.000000 
0.560436 0.331044 0.000000 
0.562238 0.130081 0.000000 
0.561583 0.195189 0.000000 
0.683630 0.191357 0.000000 
0.622853 0.193561 0.000000 
0.685142 0.124699 0.000000 
0.686901 -0.004543 0.000000 
0.686382 0.059439 0.000000 
0.625105 0.063824 0.000000 
0.991751 -0.078886 0.000000 
0.929386 -0.014787 0.000000 
0.926154 0.118852 0.000000 
0.928141 0.051472 0.000000 
0.988769 0.052936 0.000000 
0.867570 0.051352 0.000000 
0.805833 0.119561 0.000000 
0.915192 0.397632 0.000000 
0.917860 0.326626 0.000000 
0.976980 0.328788 0.000000 
0.799595 0.326482 0.000000 
0.858756 0.326029 0.000000 
0.797691 0.397650 0.000000 
0.983403 0.189354 0.000000 
0.920748 0.256484 0.000000 
0.923602 0.187215 0.000000 
0.620692 0.330154 0.000000 
0.560014 0.401364 0.000000 
0.743929 0.189148 0.000000 
0.682079 0.259433 0.000000 
0.679456 0.399684 0.000000 
0.680645 0.328897 0.000000 
0.740261 0.327561 0.000000 
0.863765 0.186705 0.000000 
0.801744 0.256423 0.000000 
0.803912 0.187461 0.000000 
0.971440 0.470899 0.000000 
0.912985 0.469512 0.000000 
0.910959 0.616030 0.000000 
0.911485 0.542296 0.000000 
0.968656 0.615822 0.000000 
0.854654 0.469370 0.000000 
0.796250 0.469921 0.000000 
0.927290 0.922029 0.000000 
0.919167 0.843796 0.000000 
0.982833 0.916855 0.000000 
0.796773 0.693006 0.000000 
0.857228 0.768335 0.000000 
0.799197 0.769173 0.000000 
0.970914 0.763965 0.000000 
0.914254 0.766668 0.000000 
0.911734 0.690785 0.000000 
0.619314 0.472507 0.000000 
0.559731 0.473043 0.000000 
0.737605 0.470786 0.000000 
0.678629 0.471709 0.000000 
0.678466 0.619050 0.000000 
0.678269 0.544872 0.000000 
0.737279 0.618420 0.000000 
0.853408 0.616805 0.000000 
0.795586 0.617658 0.000000 
0.795479 0.543271 0.000000 
0.937500 1.000000 0.000000 
0.868067 0.922813 0.000000 
0.746395 0.922948 0.000000 
0.807503 0.922941 0.000000 
0.812500 1.000000 0.000000 
0.802867 0.845922 0.000000 
0.740270 0.769612 0.000000 
0.500000 0.922921 0.000000 
0.561734 0.922922 0.000000 
0.562500 1.000000 0.000000 
0.560411 0.770147 0.000000 
0.561018 0.846282 0.000000 
0.500000 0.770182 0.000000 
0.687500 1.000000 0.000000 
0.623417 0.922927 0.000000 
0.684995 0.922936 0.000000 
0.559617 0.545916 0.000000 
0.500000 0.473231 0.000000 
0.679276 0.694105 0.000000 
0.619228 0.619527 0.000000 
0.500000 0.619930 0.000000 
0.559691 0.619826 0.000000 
0.559958 0.694618 0.000000 
0.682657 0.846199 0.000000 
0.620690 0.770046 0.000000 
0.680699 0.769875 0.000000 
0.437500 1.000000 0.000000 
0.438266 0.922922 0.000000 
0.315005 0.922936 0.000000 
0.376583 0.922927 0.000000 
0.312500 1.000000 0.000000 
0.438982 0.846282 0.000000 
0.439589 0.770147 0.000000 
0.072710 0.922029 0.000000 
0.131933 0.922813 0.000000 
0.062500 1.000000 0.000000 
0.259730 0.769612 0.000000 
0.197133 0.845922 0.000000 
0.200803 0.769173 0.000000 
0.187500 1.000000 0.000000 
0.192497 0.922941 0.000000 
0.253605 0.922948 0.000000 
0.440383 0.545916 0.000000 
0.440269 0.473043 0.000000 
0.440042 0.694618 0.000000 
0.440309 0.619826 0.000000 
0.321534 0.619050 0.000000 
0.380772 0.619527 0.000000 
0.320724 0.694105 0.000000 
0.317343 0.846199 0.000000 
0.319301 0.769875 0.000000 
0.379310 0.770046 0.000000 
0.017167 0.916855 0.000000 
0.080833 0.843796 0.000000 
0.088266 0.690785 0.000000 
0.085746 0.766668 0.000000 
0.029086 0.763965 0.000000 
0.142772 0.768335 0.000000 
0.203227 0.693006 0.000000 
0.084808 0.397632 0.000000 
0.087015 0.469512 0.000000 
0.028560 0.470899 0.000000 
0.203750 0.469921 0.000000 
0.145346 0.469370 0.000000 
0.202309 0.397650 0.000000 
0.031344 0.615822 0.000000 
0.088515 0.542296 0.000000 
0.089041 0.616030 0.000000 
0.380686 0.472507 0.000000 
0.439986 0.401364 0.000000 
0.262721 0.618420 0.000000 
0.321731 0.544872 0.000000 
0.320544 0.399684 0.000000 
0.321371 0.471709 0.000000 
0.262395 0.470786 0.000000 
0.146592 0.616805 0.000000 
0.204521 0.543271 0.000000 
0.204414 0.617658 0.000000 
0.023020 0.328788 0.000000 
0.082140 0.326626 0.000000 
0.076398 0.187215 0.000000 
0.079252 0.256484 0.000000 
0.016597 0.189354 0.000000 
0.141244 0.326029 0.000000 
0.200405 0.326482 0.000000 
0.070614 -0.014787 0.000000 
0.008249 -0.078886 0.000000 
0.194167 0.119561 0.000000 
0.132430 0.051352 0.000000 
0.011231 0.052936 0.000000 
0.071859 0.051472 0.000000 
0.073846 0.118852 0.000000 
0.379308 0.330154 0.000000 
0.259739 0.327561 0.000000 
0.319355 0.328897 0.000000 
0.317921 0.259433 0.000000 
0.256071 0.189148 0.000000 
0.136235 0.186705 0.000000 
0.196088 0.187461 0.000000 
0.198256 0.256423 0.000000 
0.038504 -0.142723 0.000000 
0.069943 -0.111583 0.000000 
0.038838 -0.111262 0.000000 
0.132189 -0.111522 0.000000 
0.101064 -0.111696 0.000000 
0.101151 -0.143124 0.000000 
0.100985 -0.047563 0.000000 
0.100973 -0.079828 0.000000 
0.131646 -0.047385 0.000000 
0.256075 -0.106356 0.000000 
0.225300 -0.108526 0.000000 
0.227041 -0.139915 0.000000 
0.223044 -0.044375 0.000000 
0.223924 -0.076631 0.000000 
0.253245 -0.042305 0.000000 
0.164048 -0.142397 0.000000 
0.194348 -0.110024 0.000000 
0.163295 -0.110990 0.000000 
0.223504 0.087077 0.000000 
0.222949 0.053873 0.000000 
0.253639 0.088461 0.000000 
0.162087 -0.014230 0.000000 
0.192466 0.019575 0.000000 
0.162234 0.018666 0.000000 
0.252777 0.022651 0.000000 
0.222636 0.020899 0.000000 
0.222640 -0.011852 0.000000 
0.162647 -0.079113 0.000000 
0.192700 -0.045859 0.000000 
0.162227 -0.046838 0.000000 
0.500000 -0.074097 0.000000 
0.468727 -0.074896 0.000000 
0.469197 -0.100939 0.000000 
0.468292 -0.020206 0.000000 
0.468420 -0.047990 0.000000 
0.500000 -0.019627 0.000000 
0.408656 -0.108335 0.000000 
0.437606 -0.077264 0.000000 
0.406761 -0.081145 0.000000 
0.468682 0.099130 0.000000 
0.468524 0.068179 0.000000 
0.500000 0.099397 0.000000 
0.405316 0.004797 0.000000 
0.436873 0.036771 0.000000 
0.405546 0.034943 0.000000 
0.500000 0.038328 0.000000 
0.468388 0.037930 0.000000 
0.468299 0.008448 0.000000 
0.289853 -0.134615 0.000000 
0.316556 -0.098888 0.000000 
0.286549 -0.103280 0.000000 
0.376273 -0.086434 0.000000 
0.346223 -0.092813 0.000000 
0.350549 -0.122327 0.000000 
0.343647 -0.032202 0.000000 
0.344388 -0.062708 0.000000 
0.374272 -0.028195 0.000000 
0.436693 -0.021908 0.000000 
0.405315 -0.024639 0.000000 
0.405712 -0.053297 0.000000 
0.469884 0.366231 0.000000 
[...]
POINT_DATA 16641

SCALARS u_h float 2
LOOKUP_TABLE default
0.007274 -0.142300 
-0.007274 -0.142300 
0.000000 0.000000 
0.000000 0.000000 
-0.000000 -0.099990 
-0.026012 -0.100485 
0.000000 0.000000 
0.026012 -0.100485 
-0.000000 -0.098402 
0.008500 -0.137731 
-0.000000 -0.119056 
0.004351 -0.128257 
-0.008500 -0.137731 
-0.004351 -0.128257 
-0.013662 -0.129290 
-0.011281 -0.101412 
-0.031034 -0.060554 
-0.011672 -0.056352 
0.000000 0.000000 
-0.000000 -0.055315 
0.000000 0.000000 
0.011672 -0.056352 
0.031034 -0.060554 
0.011281 -0.101412 
0.013662 -0.129290 
0.007576 -0.142938 
0.002787 -0.134924 
0.006668 -0.139770 
-0.000000 -0.116069 
-0.000768 -0.123082 
0.004307 -0.114558 
0.003290 -0.113929 
0.000969 -0.122237 
-0.000000 -0.112315 
-0.004307 -0.114558 
0.000768 -0.123082 
-0.006668 -0.139770 
-0.002787 -0.134924 
-0.007576 -0.142938 
-0.000969 -0.122237 
-0.003290 -0.113929 
-0.009451 -0.138714 
-0.009039 -0.131470 
-0.018531 -0.102807 
-0.013729 -0.119131 
-0.019800 -0.116268 
-0.007941 -0.117256 
-0.005129 -0.099322 
-0.030419 -0.082009 
-0.021452 -0.082429 
-0.013217 -0.029598 
-0.020473 -0.057925 
-0.024878 -0.035416 
-0.012923 -0.080907 
-0.005915 -0.079496 
0.000000 0.000000 
-0.006964 -0.028889 
-0.000000 -0.028707 
-0.003060 -0.028749 
0.000000 0.000000 
-0.005232 -0.055576 
-0.000000 -0.078940 
0.000000 0.000000 
0.003060 -0.028749 
0.013217 -0.029598 
0.006964 -0.028889 
0.000000 0.000000 
0.005232 -0.055576 
0.005915 -0.079496 
0.024878 -0.035416 
0.020473 -0.057925 
0.018531 -0.102807 
0.021452 -0.082429 
0.030419 -0.082009 
0.012923 -0.080907 
0.005129 -0.099322 
0.019800 -0.116268 
0.013729 -0.119131 
0.009039 -0.131470 
0.009451 -0.138714 
0.007941 -0.117256 
0.007291 -0.143027 
0.006841 -0.142153 
0.007569 -0.142208 
0.004299 -0.136978 
0.005856 -0.140635 
0.008045 -0.141422 
0.005312 -0.134836 
0.004912 -0.138273 
0.003091 -0.132062 
-0.000000 -0.109806 
-0.000546 -0.112510 
0.001168 -0.103752 
-0.000368 -0.120270 
-0.000798 -0.117963 
-0.000000 -0.118995 
0.008394 -0.130017 
-0.000184 -0.120175 
0.001881 -0.130061 
0.002064 -0.106456 
0.001530 -0.112746 
-0.000000 -0.106137 
0.002358 -0.125301 
0.002147 -0.118939 
0.003870 -0.121143 
-0.000000 -0.116712 
0.000917 -0.117311 
0.000262 -0.119919 
0.000599 -0.129543 
-0.000105 -0.123676 
0.001118 -0.128061 
-0.001168 -0.103752 
0.000546 -0.112510 
-0.001881 -0.130061 
0.000184 -0.120175 
-0.008394 -0.130017 
0.000798 -0.117963 
0.000368 -0.120270 
-0.007569 -0.142208 
-0.006841 -0.142153 
-0.007291 -0.143027 
-0.003091 -0.132062 
-0.004912 -0.138273 
-0.005312 -0.134836 
-0.008045 -0.141422 
-0.005856 -0.140635 
-0.004299 -0.136978 
-0.001530 -0.112746 
-0.002064 -0.106456 
-0.000262 -0.119919 
-0.000917 -0.117311 
-0.003870 -0.121143 
-0.002147 -0.118939 
-0.002358 -0.125301 
-0.000599 -0.129543 
-0.001118 -0.128061 
0.000105 -0.123676 
-0.008249 -0.141386 
-0.008114 -0.139787 
-0.011346 -0.131148 
-0.009359 -0.136028 
-0.011231 -0.134564 
-0.007430 -0.136148 
-0.006667 -0.130439 
-0.022308 -0.102368 
-0.019640 -0.110874 
-0.023020 -0.108712 
-0.012905 -0.111018 
-0.016244 -0.111471 
-0.014809 -0.102350 
-0.016597 -0.123146 
-0.016752 -0.118516 
-0.013898 -0.125285 
-0.004308 -0.107346 
-0.002486 -0.098636 
-0.006071 -0.123352 
-0.005421 -0.115567 
-0.008044 -0.100316 
-0.006855 -0.108603 
-0.009739 -0.109939 
-0.011235 -0.125795 
-0.010756 -0.118577 
-0.008588 -0.125039 
-0.028560 -0.091601 
-0.024515 -0.092988 
-0.026541 -0.071470 
-0.026015 -0.082704 
-0.031344 -0.071678 
-0.020346 -0.093130 
-0.016250 -0.092579 
-0.010210 -0.015471 
-0.018333 -0.031204 
-0.017167 -0.020645 
-0.015727 -0.056994 
-0.017772 -0.044165 
-0.013303 -0.043327 
-0.029086 -0.048535 
-0.023246 -0.045832 
-0.025766 -0.059215 
-0.005686 -0.089993 
-0.002769 -0.089457 
-0.012395 -0.091714 
-0.008871 -0.090791 
-0.009034 -0.068450 
-0.009231 -0.080128 
-0.012721 -0.069080 
-0.021592 -0.070695 
-0.016914 -0.069842 
-0.017021 -0.081729 
0.000000 0.000000 
-0.006933 -0.014687 
-0.003605 -0.014552 
-0.004997 -0.014559 
0.000000 0.000000 
-0.009633 -0.029078 
-0.009730 -0.042888 
-0.000000 -0.014579 
-0.000766 -0.014578 
0.000000 0.000000 
-0.002089 -0.042353 
-0.001482 -0.028718 
-0.000000 -0.042318 
0.000000 0.000000 
-0.001583 -0.014573 
-0.002505 -0.014564 
-0.002883 -0.079084 
-0.000000 -0.089269 
-0.008224 -0.055895 
-0.005772 -0.067973 
-0.000000 -0.067570 
-0.002809 -0.067674 
-0.002542 -0.055382 
-0.004843 -0.028801 
-0.004310 -0.042454 
-0.006801 -0.042625 
0.000000 0.000000 
0.000766 -0.014578 
0.002505 -0.014564 
0.001583 -0.014573 
0.000000 0.000000 
0.001482 -0.028718 
0.002089 -0.042353 
0.010210 -0.015471 
0.006933 -0.014687 
0.000000 0.000000 
0.009730 -0.042888 
0.009633 -0.029078 
0.013303 -0.043327 
0.000000 0.000000 
0.004997 -0.014559 
0.003605 -0.014552 
0.002883 -0.079084 
0.002769 -0.089457 
0.002542 -0.055382 
0.002809 -0.067674 
0.009034 -0.068450 
0.005772 -0.067973 
0.008224 -0.055895 
0.004843 -0.028801 
0.006801 -0.042625 
0.004310 -0.042454 
0.017167 -0.020645 
0.018333 -0.031204 
0.025766 -0.059215 
0.023246 -0.045832 
0.029086 -0.048535 
0.017772 -0.044165 
0.015727 -0.056994 
0.022308 -0.102368 
0.024515 -0.092988 
0.028560 -0.091601 
0.016250 -0.092579 
0.020346 -0.093130 
0.014809 -0.102350 
0.031344 -0.071678 
0.026015 -0.082704 
0.026541 -0.071470 
0.005686 -0.089993 
0.002486 -0.098636 
0.012721 -0.069080 
0.009231 -0.080128 
0.008044 -0.100316 
0.008871 -0.090791 
0.012395 -0.091714 
0.021592 -0.070695 
0.017021 -0.081729 
0.016914 -0.069842 
0.023020 -0.108712 
0.019640 -0.110874 
0.013898 -0.125285 
0.016752 -0.118516 
0.016597 -0.123146 
0.016244 -0.111471 
0.012905 -0.111018 
0.008114 -0.139787 
0.008249 -0.141386 
0.006667 -0.130439 
0.007430 -0.136148 
0.011231 -0.134564 
0.009359 -0.136028 
0.011346 -0.131148 
0.004308 -0.107346 
0.009739 -0.109939 
0.006855 -0.108603 
0.005421 -0.115567 
0.006071 -0.123352 
0.011235 -0.125795 
0.008588 -0.125039 
0.010756 -0.118577 
0.007254 -0.142723 
0.007443 -0.142833 
0.007588 -0.142512 
0.007189 -0.142772 
0.007314 -0.142946 
0.007401 -0.143124 
0.007235 -0.141313 
0.007223 -0.142328 
0.006646 -0.141135 
0.006075 -0.137606 
0.006550 -0.139776 
0.008291 -0.139915 
0.004294 -0.138125 
0.005174 -0.139131 
0.003245 -0.136055 
0.007798 -0.142397 
0.006848 -0.141274 
0.007045 -0.142240 
0.004754 -0.131673 
0.004199 -0.133627 
0.003639 -0.130289 
0.005837 -0.139230 
0.004966 -0.136675 
0.005984 -0.137584 
0.002777 -0.133599 
0.003886 -0.135351 
0.003890 -0.136852 
0.006397 -0.141613 
0.005200 -0.139609 
0.005977 -0.140588 
-0.000000 -0.105347 
-0.000023 -0.106146 
0.000447 -0.100939 
-0.000458 -0.113956 
-0.000330 -0.110490 
-0.000000 -0.113377 
0.002406 -0.108335 
0.000106 -0.108514 
0.000511 -0.112395 
-0.000068 -0.119620 
-0.000226 -0.119321 
-0.000000 -0.119353 
-0.000934 -0.120203 
-0.000627 -0.119479 
-0.000704 -0.121307 
-0.000000 -0.117922 
-0.000362 -0.118320 
-0.000451 -0.116552 
0.008603 -0.134615 
0.004056 -0.130138 
0.005299 -0.134530 
0.001273 -0.117684 
0.002473 -0.124063 
0.006799 -0.122327 
-0.000103 -0.125952 
0.000638 -0.125208 
-0.000728 -0.121945 
-0.000807 -0.115658 
-0.000935 -0.118389 
-0.000538 -0.115797 
0.001134 -0.102519 
0.001020 -0.106218 
-0.000000 -0.102450 
0.002370 -0.113258 
0.001809 -0.109804 
0.002778 -0.110245 
-0.000000 -0.109434 
0.000891 -0.109528 
0.000750 -0.112424 
0.003294 -0.126841 
0.003097 -0.123400 
0.004080 -0.124721 
0.001556 -0.120810 
0.002251 -0.122067 
0.001575 -0.123730 
0.003633 -0.117550 
0.002943 -0.120004 
0.002729 -0.116639 
-0.000000 -0.118160 
0.000270 -0.118343 
0.000100 -0.119276 
0.000598 -0.114880 
0.000437 -0.116864 
-0.000000 -0.114751 
0.000538 -0.120932 
0.000592 -0.118876 
0.001009 -0.119720 
0.001934 -0.115857 
0.001477 -0.118019 
0.001232 -0.115257 
0.003188 -0.134012 
-0.000247 -0.126311 
0.000896 -0.129891 
0.002079 -0.133316 
0.001657 -0.132471 
-0.000063 -0.120399 
0.000406 -0.123198 
0.000079 -0.121625 
-0.000347 -0.121764 
-0.000520 -0.123646 
0.002598 -0.128655 
0.001694 -0.131440 
0.002042 -0.130179 
0.001683 -0.126851 
0.000942 -0.124988 
-0.000037 -0.126276 
0.000387 -0.125836 
0.000725 -0.128948 
-0.000447 -0.100939 
0.000023 -0.106146 
-0.000511 -0.112395 
-0.000106 -0.108514 
-0.002406 -0.108335 
0.000330 -0.110490 
0.000458 -0.113956 
-0.005299 -0.134530 
-0.004056 -0.130138 
-0.008603 -0.134615 
0.000728 -0.121945 
-0.000638 -0.125208 
0.000103 -0.125952 
-0.006799 -0.122327 
-0.002473 -0.124063 
-0.001273 -0.117684 
0.000226 -0.119321 
0.000068 -0.119620 
0.000451 -0.116552 
0.000362 -0.118320 
0.000704 -0.121307 
0.000627 -0.119479 
0.000934 -0.120203 
0.000538 -0.115797 
0.000935 -0.118389 
0.000807 -0.115658 
-0.007588 -0.142512 
-0.007443 -0.142833 
-0.007254 -0.142723 
-0.006646 -0.141135 
-0.007223 -0.142328 
-0.007235 -0.141313 
-0.007401 -0.143124 
-0.007314 -0.142946 
-0.007189 -0.142772 
-0.003639 -0.130289 
-0.004199 -0.133627 
-0.004754 -0.131673 
-0.003890 -0.136852 
-0.003886 -0.135351 
-0.002777 -0.133599 
-0.005984 -0.137584 
-0.004966 -0.136675 
-0.005837 -0.139230 
-0.008291 -0.139915 
-0.006550 -0.139776 
-0.006075 -0.137606 
-0.007045 -0.142240 
-0.006848 -0.141274 
-0.007798 -0.142397 
-0.003245 -0.136055 
-0.005174 -0.139131 
-0.004294 -0.138125 
-0.005977 -0.140588 
-0.005200 -0.139609 
-0.006397 -0.141613 
-0.001020 -0.106218 
-0.001134 -0.102519 
-0.000750 -0.112424 
-0.000891 -0.109528 
-0.002778 -0.110245 
-0.001809 -0.109804 
-0.002370 -0.113258 
-0.000100 -0.119276 
-0.000270 -0.118343 
-0.001009 -0.119720 
-0.000592 -0.118876 
-0.000538 -0.120932 
-0.000437 -0.116864 
-0.000598 -0.114880 
-0.004080 -0.124721 
-0.003097 -0.123400 
-0.003294 -0.126841 
-0.002729 -0.116639 
-0.002943 -0.120004 
-0.003633 -0.117550 
-0.001575 -0.123730 
-0.002251 -0.122067 
-0.001556 -0.120810 
-0.001232 -0.115257 
-0.001477 -0.118019 
-0.001934 -0.115857 
-0.003188 -0.134012 
-0.001657 -0.132471 
-0.002079 -0.133316 
-0.000896 -0.129891 
0.000247 -0.126311 
-0.002598 -0.128655 
-0.000942 -0.124988 
-0.001683 -0.126851 
-0.002042 -0.130179 
-0.001694 -0.131440 
0.000063 -0.120399 
0.000520 -0.123646 
0.000347 -0.121764 
-0.000079 -0.121625 
-0.000406 -0.123198 
-0.000725 -0.128948 
-0.000387 -0.125836 
0.000037 -0.126276 
-0.007756 -0.142065 
-0.007904 -0.141865 
-0.008778 -0.139358 
-0.008279 -0.140803 
-0.008795 -0.140258 
-0.007770 -0.141181 
-0.007420 -0.139940 
-0.012490 -0.130427 
-0.011307 -0.133071 
-0.012371 -0.132049 
-0.009219 -0.134004 
-0.010268 -0.133718 
-0.010201 -0.131488 
-0.010258 -0.136800 
-0.010284 -0.135460 
-0.009441 -0.137566 
-0.005896 -0.132759 
-0.005488 -0.129475 
-0.006931 -0.138098 
-0.006395 -0.135676 
-0.007858 -0.131113 
-0.007033 -0.133518 
-0.008143 -0.133935 
-0.008639 -0.138059 
-0.008415 -0.136261 
-0.007811 -0.138247 
-0.024176 -0.101649 
-0.022796 -0.105934 
-0.024559 -0.104685 
-0.019224 -0.107150 
-0.021016 -0.106729 
-0.020421 -0.102730 
-0.021423 -0.112573 
-0.021333 -0.110025 
-0.019814 -0.113924 
-0.012197 -0.106370 
-0.013901 -0.106822 
-0.013013 -0.101919 
-0.015000 -0.115426 
-0.014561 -0.111347 
-0.013411 -0.115292 
-0.016654 -0.102661 
-0.015651 -0.107137 
-0.017431 -0.107265 
-0.015080 -0.126316 
-0.015235 -0.124447 
-0.013810 -0.127547 
-0.018271 -0.117629 
-0.016733 -0.121138 
-0.018181 -0.119794 
-0.013882 -0.122476 
-0.015304 -0.122011 
-0.015238 -0.118996 
-0.017941 -0.111333 
-0.016602 -0.115282 
-0.018208 -0.114803 
-0.002291 -0.102726 
-0.001233 -0.098454 
-0.003819 -0.110826 
-0.003154 -0.106840 
-0.003780 -0.098930 
-0.003489 -0.103061 
-0.004748 -0.103506 
-0.005176 -0.125949 
-0.004919 -0.122283 
-0.006637 -0.116431 
-0.005779 -0.119520 
-0.007002 -0.120456 
-0.004652 -0.118531 
-0.004305 -0.114715 
-0.009622 -0.100867 
-0.008981 -0.105229 
-0.010553 -0.105825 
-0.006078 -0.104035 
-0.007488 -0.104620 
-0.006548 -0.099793 
-0.008861 -0.113750 
-0.008257 -0.109282 
-0.007469 -0.113017 
-0.004945 -0.111509 
-0.006161 -0.112255 
-0.005539 -0.107945 
-0.012567 -0.128334 
-0.012462 -0.122587 
-0.012567 -0.125719 
-0.011328 -0.128725 
-0.010082 -0.128756 
-0.011293 -0.110533 
-0.009320 -0.117988 
-0.010326 -0.114406 
-0.011848 -0.114936 
-0.012230 -0.118974 
-0.006352 -0.127017 
-0.008828 -0.128460 
-0.007579 -0.127868 
-0.007303 -0.124289 
-0.008302 -0.121281 
-0.011051 -0.122394 
-0.009659 -0.121943 
-0.009905 -0.125555 
-0.027359 -0.096131 
-0.025443 -0.097170 
-0.027512 -0.087611 
-0.026564 -0.092492 
-0.029590 -0.086895 
-0.023485 -0.097789 
-0.021501 -0.098073 
-0.028905 -0.065935 
-0.028991 -0.071694 
-0.031365 -0.066220 
-0.023735 -0.082647 
-0.026419 -0.077210 
-0.024036 -0.077008 
-0.031016 -0.076939 
-0.028761 -0.077220 
-0.028255 -0.082523 
-0.015600 -0.097601 
-0.013716 -0.097184 
-0.019512 -0.098095 
-0.017538 -0.097920 
-0.018842 -0.087643 
-0.018277 -0.092914 
-0.021003 -0.087908 
-0.025369 -0.087961 
-0.023189 -0.088035 
-0.022434 -0.093175 
-0.006781 -0.008300 
-0.013118 -0.016948 
-0.010971 -0.012023 
-0.015542 -0.030180 
-0.014709 -0.023432 
-0.012194 -0.022565 
-0.021592 -0.028304 
-0.017939 -0.025186 
-0.021549 -0.032911 
-0.013616 -0.056644 
-0.014675 -0.050251 
-0.012652 -0.049944 
-0.019341 -0.051162 
-0.016902 -0.050646 
-0.018014 -0.057416 
-0.013532 -0.036533 
-0.015411 -0.043674 
-0.015735 -0.036962 
-0.030296 -0.054665 
-0.027578 -0.053653 
-0.028453 -0.059928 
-0.024240 -0.040188 
-0.026205 -0.047086 
-0.027319 -0.042134 
-0.023076 -0.058529 
-0.024758 -0.052672 
-0.021978 -0.051832 
-0.018270 -0.037636 
-0.020397 -0.044864 
-0.021140 -0.038678 
-0.002647 -0.094206 
-0.001315 -0.094047 
-0.005445 -0.094813 
-0.004019 -0.094465 
-0.004319 -0.084611 
-0.004200 -0.089686 
-0.005845 -0.084882 
-0.011901 -0.096706 
-0.010164 -0.096203 
-0.010882 -0.086010 
-0.010589 -0.091247 
-0.012742 -0.086445 
-0.008510 -0.095703 
-0.006939 -0.095232 
-0.010443 -0.062527 
-0.010817 -0.068747 
-0.012307 -0.062819 
-0.007531 -0.079789 
-0.009206 -0.074408 
-0.007505 -0.074108 
-0.012922 -0.075114 
-0.011009 -0.074745 
-0.011026 -0.080505 
-0.007239 -0.090367 
-0.009116 -0.085595 
-0.007440 -0.085214 
-0.026340 -0.065476 
-0.021210 -0.064438 
-0.023751 -0.064955 
-0.024055 -0.071113 
-0.021660 -0.076692 
-0.014313 -0.063152 
-0.014950 -0.075507 
-0.014752 -0.069446 
-0.016467 -0.063531 
-0.018771 -0.063960 
-0.014284 -0.092168 
-0.019205 -0.082109 
-0.016732 -0.087287 
-0.014694 -0.086878 
-0.014923 -0.081321 
-0.019201 -0.070263 
-0.017091 -0.075912 
-0.019335 -0.076315 
0.000000 0.000000 
-0.005057 -0.007576 
-0.003446 -0.007298 
-0.004108 -0.007367 
0.000000 0.000000 
-0.008300 -0.014913 
-0.010249 -0.022145 
-0.001810 -0.007299 
-0.002133 -0.007288 
0.000000 0.000000 
-0.006302 -0.021780 
-0.004254 -0.014550 
-0.005339 -0.021752 
0.000000 0.000000 
-0.002501 -0.007279 
-0.002929 -0.007278 
-0.011421 -0.043076 
-0.010812 -0.049700 
-0.011277 -0.029269 
-0.011615 -0.036256 
-0.008439 -0.035942 
-0.009932 -0.036071 
-0.008212 -0.028962 
-0.005870 -0.014594 
-0.007403 -0.021833 
-0.008694 -0.021937 
-0.000000 -0.007343 
-0.000191 -0.007343 
0.000000 0.000000 
-0.000562 -0.021703 
-0.000380 -0.014579 
-0.000000 -0.021702 
0.000000 0.000000 
-0.000386 -0.007341 
-0.000586 -0.007338 
-0.001160 -0.048914 
-0.001037 -0.042327 
-0.000000 -0.048901 
-0.002253 -0.028731 
-0.001802 -0.035604 
-0.002740 -0.035630 
-0.000000 -0.035583 
-0.000894 -0.035588 
-0.000735 -0.028710 
0.000000 0.000000 
-0.001260 -0.007320 
-0.001521 -0.007310 
-0.000796 -0.007334 
-0.001019 -0.007328 
0.000000 0.000000 
-0.003000 -0.021720 
-0.002027 -0.014569 
-0.002343 -0.021714 
-0.001134 -0.021706 
-0.001724 -0.021710 
-0.001165 -0.014576 
-0.001375 -0.089317 
-0.000000 -0.093994 
-0.004371 -0.079259 
-0.002848 -0.084410 
-0.000000 -0.084245 
-0.001415 -0.084287 
-0.001432 -0.078977 
-0.009881 -0.056105 
-0.008707 -0.062272 
-0.005552 -0.061875 
-0.007082 -0.062055 
-0.006681 -0.055720 
-0.007357 -0.068191 
-0.005892 -0.073853 
-0.000000 -0.061544 
-0.001340 -0.061566 
-0.001262 -0.055332 
-0.001425 -0.073407 
-0.001395 -0.067597 
-0.000000 -0.073376 
-0.003859 -0.055463 
-0.002700 -0.061629 
-0.004097 -0.061732 
-0.004353 -0.073649 
-0.004262 -0.067800 
-0.002870 -0.073499 
-0.003027 -0.014557 
-0.003919 -0.028772 
-0.003709 -0.021727 
-0.004482 -0.021737 
-0.005850 -0.028838 
-0.002337 -0.048951 
-0.004816 -0.049096 
-0.003550 -0.049012 
-0.003175 -0.042395 
-0.003721 -0.035667 
-0.009131 -0.049502 
-0.007099 -0.035846 
-0.008199 -0.042742 
-0.007586 -0.049339 
-0.006155 -0.049205 
-0.004762 -0.035713 
-0.005512 -0.042530 
-0.005881 -0.035772 
0.000000 0.000000 
0.000191 -0.007343 
0.000586 -0.007338 
0.000386 -0.007341 
0.000000 0.000000 
0.000380 -0.014579 
0.000562 -0.021703 
0.001521 -0.007310 
0.001260 -0.007320 
0.000000 0.000000 
0.002343 -0.021714 
0.002027 -0.014569 
0.003000 -0.021720 
0.000000 0.000000 
0.001019 -0.007328 
0.000796 -0.007334 
0.001037 -0.042327 
0.001160 -0.048914 
0.000735 -0.028710 
0.000894 -0.035588 
0.002740 -0.035630 
0.001802 -0.035604 
0.002253 -0.028731 
0.001165 -0.014576 
0.001724 -0.021710 
0.001134 -0.021706 
0.006781 -0.008300 
0.005057 -0.007576 
0.000000 0.000000 
0.010249 -0.022145 
0.008300 -0.014913 
0.012194 -0.022565 
0.000000 0.000000 
0.004108 -0.007367 
0.003446 -0.007298 
0.010812 -0.049700 
0.011421 -0.043076 
0.012652 -0.049944 
0.008212 -0.028962 
0.009932 -0.036071 
0.008439 -0.035942 
0.013532 -0.036533 
0.011615 -0.036256 
0.011277 -0.029269 
0.000000 0.000000 
0.002133 -0.007288 
0.001810 -0.007299 
0.002929 -0.007278 
0.002501 -0.007279 
0.000000 0.000000 
0.005339 -0.021752 
0.004254 -0.014550 
0.006302 -0.021780 
0.008694 -0.021937 
0.007403 -0.021833 
0.005870 -0.014594 
0.001375 -0.089317 
0.001315 -0.094047 
0.001432 -0.078977 
0.001415 -0.084287 
0.004319 -0.084611 
0.002848 -0.084410 
0.004371 -0.079259 
0.001262 -0.055332 
0.001340 -0.061566 
0.004097 -0.061732 
0.002700 -0.061629 
0.003859 -0.055463 
0.001395 -0.067597 
0.001425 -0.073407 
0.010443 -0.062527 
0.008707 -0.062272 
0.009881 -0.056105 
0.005892 -0.073853 
0.007357 -0.068191 
0.007505 -0.074108 
0.006681 -0.055720 
0.007082 -0.062055 
0.005552 -0.061875 
0.002870 -0.073499 
0.004262 -0.067800 
0.004353 -0.073649 
0.003027 -0.014557 
0.005850 -0.028838 
0.004482 -0.021737 
0.003709 -0.021727 
0.003919 -0.028772 
0.009131 -0.049502 
0.006155 -0.049205 
0.007586 -0.049339 
0.008199 -0.042742 
0.007099 -0.035846 
0.002337 -0.048951 
0.003721 -0.035667 
0.003175 -0.042395 
0.003550 -0.049012 
0.004816 -0.049096 
0.005881 -0.035772 
0.005512 -0.042530 
0.004762 -0.035713 
0.010971 -0.012023 
0.013118 -0.016948 
0.021549 -0.032911 
0.017939 -0.025186 
0.021592 -0.028304 
0.014709 -0.023432 
0.015542 -0.030180 
0.028453 -0.059928 
0.027578 -0.053653 
0.030296 -0.054665 
0.021978 -0.051832 
0.024758 -0.052672 
0.023076 -0.058529 
0.027319 -0.042134 
0.026205 -0.047086 
0.024240 -0.040188 
0.014675 -0.050251 
0.013616 -0.056644 
0.015735 -0.036962 
0.015411 -0.043674 
0.018014 -0.057416 
0.016902 -0.050646 
0.019341 -0.051162 
0.021140 -0.038678 
0.020397 -0.044864 
0.018270 -0.037636 
0.024176 -0.101649 
0.025443 -0.097170 
0.027359 -0.096131 
0.021501 -0.098073 
0.023485 -0.097789 
0.020421 -0.102730 
0.029590 -0.086895 
0.026564 -0.092492 
0.027512 -0.087611 
0.013716 -0.097184 
0.015600 -0.097601 
0.013013 -0.101919 
0.021003 -0.087908 
0.018277 -0.092914 
0.018842 -0.087643 
0.016654 -0.102661 
0.017538 -0.097920 
0.019512 -0.098095 
0.031365 -0.066220 
0.028991 -0.071694 
0.028905 -0.065935 
0.028255 -0.082523 
0.028761 -0.077220 
0.031016 -0.076939 
0.024036 -0.077008 
0.026419 -0.077210 
0.023735 -0.082647 
0.022434 -0.093175 
0.023189 -0.088035 
0.025369 -0.087961 
0.002647 -0.094206 
0.001233 -0.098454 
0.005845 -0.084882 
0.004200 -0.089686 
0.003780 -0.098930 
0.004019 -0.094465 
0.005445 -0.094813 
0.012307 -0.062819 
0.010817 -0.068747 
0.011026 -0.080505 
0.011009 -0.074745 
0.012922 -0.075114 
0.009206 -0.074408 
0.007531 -0.079789 
0.009622 -0.100867 
0.010164 -0.096203 
0.011901 -0.096706 
0.006939 -0.095232 