# vtk DataFile Version 2.0
Unstructured Grid Example
ASCII
DATASET UNSTRUCTURED_GRID

POINTS 4225 float
0.007397 -0.142406 0.000000 
0.992603 -0.142406 0.000000 
1.000000 1.000000 0.000000 
0.000000 1.000000 0.000000 
0.500000 -0.099960 0.000000 
0.974011 0.399540 0.000000 
0.500000 1.000000 0.000000 
0.025989 0.399540 0.000000 
0.500000 0.401593 0.000000 
0.258493 -0.137681 0.000000 
0.500000 0.130987 0.000000 
0.254359 0.121757 0.000000 
0.741507 -0.137681 0.000000 
0.745641 0.121757 0.000000 
0.986335 0.120708 0.000000 
0.738727 0.398608 0.000000 
0.969013 0.689441 0.000000 
0.738355 0.693665 0.000000 
0.750000 1.000000 0.000000 
0.500000 0.694701 0.000000 
0.250000 1.000000 0.000000 
0.261645 0.693665 0.000000 
0.030987 0.689441 0.000000 
0.261273 0.398608 0.000000 
0.013665 0.120708 0.000000 
0.132627 -0.142926 0.000000 
0.252809 -0.009904 0.000000 
0.131671 -0.014751 0.000000 
0.500000 0.008992 0.000000 
0.374243 0.001942 0.000000 
0.379323 -0.114528 0.000000 
0.378283 0.261098 0.000000 
0.375969 0.127794 0.000000 
0.500000 0.262712 0.000000 
0.620677 -0.114528 0.000000 
0.625757 0.001942 0.000000 
0.868329 -0.014751 0.000000 
0.747191 -0.009904 0.000000 
0.867373 -0.142926 0.000000 
0.624031 0.127794 0.000000 
0.621717 0.261098 0.000000 
0.990543 -0.013728 0.000000 
0.865960 0.118542 0.000000 
0.856477 0.397209 0.000000 
0.861276 0.255882 0.000000 
0.980202 0.258733 0.000000 
0.742063 0.257763 0.000000 
0.619878 0.400701 0.000000 
0.969605 0.542990 0.000000 
0.853568 0.542588 0.000000 
0.861848 0.845419 0.000000 
0.854568 0.692095 0.000000 
0.975224 0.839585 0.000000 
0.737094 0.544113 0.000000 
0.619092 0.545523 0.000000 
0.875000 1.000000 0.000000 
0.743060 0.846119 0.000000 
0.500000 0.846301 0.000000 
0.621948 0.846257 0.000000 
0.625000 1.000000 0.000000 
0.619779 0.694437 0.000000 
0.500000 0.546078 0.000000 
0.375000 1.000000 0.000000 
0.378052 0.846257 0.000000 
0.138152 0.845419 0.000000 
0.256940 0.846119 0.000000 
0.125000 1.000000 0.000000 
0.380221 0.694437 0.000000 
0.380908 0.545523 0.000000 
0.024776 0.839585 0.000000 
0.145432 0.692095 0.000000 
0.143523 0.397209 0.000000 
0.146432 0.542588 0.000000 
0.030395 0.542990 0.000000 
0.262906 0.544113 0.000000 
0.380122 0.400701 0.000000 
0.019798 0.258733 0.000000 
0.138724 0.255882 0.000000 
0.134040 0.118542 0.000000 
0.009457 -0.013728 0.000000 
0.257937 0.257763 0.000000 
0.069869 -0.143040 0.000000 
0.131856 -0.079632 0.000000 
0.070091 -0.079712 0.000000 
0.254299 -0.074432 0.000000 
0.193358 -0.078096 0.000000 
0.195575 -0.141392 0.000000 
0.192821 0.052682 0.000000 
0.192419 -0.013244 0.000000 
0.253108 0.055452 0.000000 
0.500000 -0.047238 0.000000 
0.436958 -0.049967 0.000000 
0.438719 -0.103717 0.000000 
0.437132 0.067272 0.000000 
0.436704 0.007079 0.000000 
0.500000 0.068556 0.000000 
0.320733 -0.129988 0.000000 
0.374826 -0.057663 0.000000 
0.314420 -0.067573 0.000000 
0.439558 0.331067 0.000000 
0.439025 0.262283 0.000000 
0.500000 0.331380 0.000000 
0.314863 0.124719 0.000000 
0.377143 0.193591 0.000000 
0.316369 0.191379 0.000000 
0.500000 0.195824 0.000000 
0.438413 0.195223 0.000000 
0.437760 0.130120 0.000000 
0.313127 -0.004538 0.000000 
0.374901 0.063853 0.000000 
0.313633 0.059454 0.000000 
0.561281 -0.103717 0.000000 
0.563042 -0.049967 0.000000 
0.685580 -0.067573 0.000000 
0.625174 -0.057663 0.000000 
0.679267 -0.129988 0.000000 
0.563296 0.007079 0.000000 
0.562868 0.067272 0.000000 
0.929909 -0.079712 0.000000 
0.868144 -0.079632 0.000000 
0.930131 -0.143040 0.000000 
0.746892 0.055452 0.000000 
0.807581 -0.013244 0.000000 
0.807179 0.052682 0.000000 
0.804425 -0.141392 0.000000 
0.806642 -0.078096 0.000000 
0.745701 -0.074432 0.000000 
0.560975 0.262283 0.000000 
0.560442 0.331067 0.000000 
0.562240 0.130120 0.000000 
0.561587 0.195223 0.000000 
0.683631 0.191379 0.000000 
0.622857 0.193591 0.000000 
0.685137 0.124719 0.000000 
0.686873 -0.004538 0.000000 
0.686367 0.059454 0.000000 
0.625099 0.063853 0.000000 
0.991724 -0.078930 0.000000 
0.929384 -0.014786 0.000000 
0.926153 0.118857 0.000000 
0.928142 0.051475 0.000000 
0.988766 0.052933 0.000000 
0.867568 0.051367 0.000000 
0.805827 0.119575 0.000000 
0.915202 0.397645 0.000000 
0.917870 0.326639 0.000000 
0.976989 0.328794 0.000000 
0.799602 0.326499 0.000000 
0.858764 0.326044 0.000000 
0.797699 0.397668 0.000000 
0.983402 0.189353 0.000000 
0.920752 0.256494 0.000000 
0.923602 0.187222 0.000000 
0.620699 0.330180 0.000000 
0.560019 0.401384 0.000000 
0.743929 0.189165 0.000000 
0.682084 0.259456 0.000000 
0.679464 0.399706 0.000000 
0.680652 0.328920 0.000000 
0.740268 0.327581 0.000000 
0.863765 0.186716 0.000000 
0.801748 0.256438 0.000000 
0.803911 0.187475 0.000000 
0.971457 0.470905 0.000000 
0.912999 0.469525 0.000000 
0.910990 0.616043 0.000000 
0.911506 0.542309 0.000000 
0.968690 0.615818 0.000000 
0.854668 0.469387 0.000000 
0.796264 0.469939 0.000000 
0.927405 0.922048 0.000000 
0.919260 0.843821 0.000000 
0.983024 0.916934 0.000000 
0.796808 0.693025 0.000000 
0.857282 0.768355 0.000000 
0.799238 0.769190 0.000000 
0.970979 0.763960 0.000000 
0.914318 0.766689 0.000000 
0.911778 0.690801 0.000000 
0.619321 0.472528 0.000000 
0.559732 0.473061 0.000000 
0.737618 0.470806 0.000000 
0.678639 0.471731 0.000000 
0.678483 0.619068 0.000000 
0.678282 0.544891 0.000000 
0.737301 0.618439 0.000000 
0.853438 0.616824 0.000000 
0.795613 0.617678 0.000000 
0.795498 0.543290 0.000000 
0.937500 1.000000 0.000000 
0.868117 0.922819 0.000000 
0.746409 0.922951 0.000000 
0.807528 0.922944 0.000000 
0.812500 1.000000 0.000000 
0.802908 0.845933 0.000000 
0.740299 0.769625 0.000000 
0.500000 0.922925 0.000000 
0.561736 0.922925 0.000000 
0.562500 1.000000 0.000000 
0.560416 0.770156 0.000000 
0.561022 0.846288 0.000000 
0.500000 0.770194 0.000000 
0.687500 1.000000 0.000000 
0.623422 0.922929 0.000000 
0.685003 0.922938 0.000000 
0.559620 0.545933 0.000000 
0.500000 0.473245 0.000000 
0.679295 0.694119 0.000000 
0.619238 0.619543 0.000000 
0.500000 0.619948 0.000000 
0.559695 0.619842 0.000000 
0.559964 0.694631 0.000000 
0.682673 0.846205 0.000000 
0.620701 0.770055 0.000000 
0.680717 0.769886 0.000000 
0.437500 1.000000 0.000000 
0.438264 0.922925 0.000000 
0.314997 0.922938 0.000000 
0.376578 0.922929 0.000000 
0.312500 1.000000 0.000000 
0.438978 0.846288 0.000000 
0.439584 0.770156 0.000000 
0.072595 0.922048 0.000000 
0.131883 0.922819 0.000000 
0.062500 1.000000 0.000000 
0.259701 0.769625 0.000000 
0.197092 0.845933 0.000000 
0.200762 0.769190 0.000000 
0.187500 1.000000 0.000000 
0.192472 0.922944 0.000000 
0.253591 0.922951 0.000000 
0.440380 0.545933 0.000000 
0.440268 0.473061 0.000000 
0.440036 0.694631 0.000000 
0.440305 0.619842 0.000000 
0.321517 0.619068 0.000000 
0.380762 0.619543 0.000000 
0.320705 0.694119 0.000000 
0.317327 0.846205 0.000000 
0.319283 0.769886 0.000000 
0.379299 0.770055 0.000000 
0.016976 0.916934 0.000000 
0.080740 0.843821 0.000000 
0.088222 0.690801 0.000000 
0.085682 0.766689 0.000000 
0.029021 0.763960 0.000000 
0.142718 0.768355 0.000000 
0.203192 0.693025 0.000000 
0.084798 0.397645 0.000000 
0.087001 0.469525 0.000000 
0.028543 0.470905 0.000000 
0.203736 0.469939 0.000000 
0.145332 0.469387 0.000000 
0.202301 0.397668 0.000000 
0.031310 0.615818 0.000000 
0.088494 0.542309 0.000000 
0.089010 0.616043 0.000000 
0.380679 0.472528 0.000000 
0.439981 0.401384 0.000000 
0.262699 0.618439 0.000000 
0.321718 0.544891 0.000000 
0.320536 0.399706 0.000000 
0.321361 0.471731 0.000000 
0.262382 0.470806 0.000000 
0.146562 0.616824 0.000000 
0.204502 0.543290 0.000000 
0.204387 0.617678 0.000000 
0.023011 0.328794 0.000000 
0.082130 0.326639 0.000000 
0.076398 0.187222 0.000000 
0.079248 0.256494 0.000000 
0.016598 0.189353 0.000000 
0.141236 0.326044 0.000000 
0.200398 0.326499 0.000000 
0.070616 -0.014786 0.000000 
0.008276 -0.078930 0.000000 
0.194173 0.119575 0.000000 
0.132432 0.051367 0.000000 
0.011234 0.052933 0.000000 
0.071858 0.051475 0.000000 
0.073847 0.118857 0.000000 
0.379301 0.330180 0.000000 
0.259732 0.327581 0.000000 
0.319348 0.328920 0.000000 
0.317916 0.259456 0.000000 
0.256071 0.189165 0.000000 
0.136235 0.186716 0.000000 
0.196089 0.187475 0.000000 
0.198252 0.256438 0.000000 
0.038603 -0.142762 0.000000 
0.069989 -0.111590 0.000000 
0.038889 -0.111292 0.000000 
0.132220 -0.111505 0.000000 
0.101103 -0.111689 0.000000 
0.101214 -0.143123 0.000000 
0.100993 -0.047552 0.000000 
0.100992 -0.079818 0.000000 
0.131652 -0.047364 0.000000 
0.256052 -0.106298 0.000000 
0.225293 -0.108478 0.000000 
0.227057 -0.139876 0.000000 
0.223051 -0.044338 0.000000 
0.223921 -0.076585 0.000000 
0.253261 -0.042274 0.000000 
0.164089 -0.142376 0.000000 
0.194356 -0.109987 0.000000 
0.163315 -0.110963 0.000000 
0.223514 0.087091 0.000000 
0.222962 0.053889 0.000000 
0.253651 0.088475 0.000000 
0.162091 -0.014204 0.000000 
0.192475 0.019597 0.000000 
0.162239 0.018688 0.000000 
0.252797 0.022667 0.000000 
0.222651 0.020920 0.000000 
0.222653 -0.011824 0.000000 
0.162656 -0.079082 0.000000 
0.192704 -0.045823 0.000000 
0.162231 -0.046808 0.000000 
0.500000 -0.074034 0.000000 
0.468736 -0.074846 0.000000 
0.469234 -0.100907 0.000000 
0.468293 -0.020153 0.000000 
0.468423 -0.047936 0.000000 
0.500000 -0.019561 0.000000 
0.408703 -0.108298 0.000000 
0.437618 -0.077221 0.000000 
0.406771 -0.081112 0.000000 
0.468681 0.099175 0.000000 
0.468522 0.068226 0.000000 
0.500000 0.099444 0.000000 
0.405321 0.004830 0.000000 
0.436874 0.036814 0.000000 
0.405550 0.034978 0.000000 
0.500000 0.038384 0.000000 
0.468387 0.037980 0.000000 
0.468298 0.008500 0.000000 
0.289798 -0.134553 0.000000 
0.316566 -0.098892 0.000000 
0.286521 -0.103224 0.000000 
0.376277 -0.086424 0.000000 
0.346235 -0.092846 0.000000 
0.350435 -0.122335 0.000000 
0.343671 -0.032199 0.000000 
0.344414 -0.062719 0.000000 
0.374284 -0.028177 0.000000 
0.436696 -0.021866 0.000000 
0.405320 -0.024608 0.000000 
0.405718 -0.053267 0.000000 
0.469879 0.366248 0.000000 
[...]
POINT_DATA 4225

SCALARS u_h float 2
LOOKUP_TABLE default
0.007397 -0.142406 
-0.007397 -0.142406 
0.000000 0.000000 
0.000000 0.000000 
-0.000000 -0.099960 
-0.025989 -0.100460 
0.000000 0.000000 
0.025989 -0.100460 
-0.000000 -0.098407 
0.008493 -0.137681 
-0.000000 -0.119013 
0.004359 -0.128243 
-0.008493 -0.137681 
-0.004359 -0.128243 
-0.013665 -0.129292 
-0.011273 -0.101392 
-0.030987 -0.060559 
-0.011645 -0.056335 
0.000000 0.000000 
-0.000000 -0.055299 
0.000000 0.000000 
0.011645 -0.056335 
0.030987 -0.060559 
0.011273 -0.101392 
0.013665 -0.129292 
0.007627 -0.142926 
0.002809 -0.134904 
0.006671 -0.139751 
-0.000000 -0.116008 
-0.000757 -0.123058 
0.004323 -0.114528 
0.003283 -0.113902 
0.000969 -0.122206 
-0.000000 -0.112288 
-0.004323 -0.114528 
0.000757 -0.123058 
-0.006671 -0.139751 
-0.002809 -0.134904 
-0.007627 -0.142926 
-0.000969 -0.122206 
-0.003283 -0.113902 
-0.009457 -0.138728 
-0.009040 -0.131458 
-0.018523 -0.102791 
-0.013724 -0.119118 
-0.019798 -0.116267 
-0.007937 -0.117237 
-0.005122 -0.099299 
-0.030395 -0.082010 
-0.021432 -0.082412 
-0.013152 -0.029581 
-0.020432 -0.057905 
-0.024776 -0.035415 
-0.012906 -0.080887 
-0.005908 -0.079477 
0.000000 0.000000 
-0.006940 -0.028881 
-0.000000 -0.028699 
-0.003052 -0.028743 
0.000000 0.000000 
-0.005221 -0.055563 
-0.000000 -0.078922 
0.000000 0.000000 
0.003052 -0.028743 
0.013152 -0.029581 
0.006940 -0.028881 
0.000000 0.000000 
0.005221 -0.055563 
0.005908 -0.079477 
0.024776 -0.035415 
0.020432 -0.057905 
0.018523 -0.102791 
0.021432 -0.082412 
0.030395 -0.082010 
0.012906 -0.080887 
0.005122 -0.099299 
0.019798 -0.116267 
0.013724 -0.119118 
0.009040 -0.131458 
0.009457 -0.138728 
0.007937 -0.117237 
0.007369 -0.143040 
0.006856 -0.142132 
0.007591 -0.142212 
0.004299 -0.136932 
0.005858 -0.140596 
0.008075 -0.141392 
0.005321 -0.134818 
0.004919 -0.138244 
0.003108 -0.132048 
-0.000000 -0.109738 
-0.000542 -0.112467 
0.001219 -0.103717 
-0.000368 -0.120228 
-0.000796 -0.117921 
-0.000000 -0.118944 
0.008233 -0.129988 
-0.000174 -0.120163 
0.001920 -0.130073 
0.002058 -0.106433 
0.001525 -0.112717 
-0.000000 -0.106120 
0.002363 -0.125281 
0.002143 -0.118909 
0.003869 -0.121121 
-0.000000 -0.116676 
0.000913 -0.117277 
0.000260 -0.119880 
0.000627 -0.129538 
-0.000099 -0.123647 
0.001133 -0.128046 
-0.001219 -0.103717 
0.000542 -0.112467 
-0.001920 -0.130073 
0.000174 -0.120163 
-0.008233 -0.129988 
0.000796 -0.117921 
0.000368 -0.120228 
-0.007591 -0.142212 
-0.006856 -0.142132 
-0.007369 -0.143040 
-0.003108 -0.132048 
-0.004919 -0.138244 
-0.005321 -0.134818 
-0.008075 -0.141392 
-0.005858 -0.140596 
-0.004299 -0.136932 
-0.001525 -0.112717 
-0.002058 -0.106433 
-0.000260 -0.119880 
-0.000913 -0.117277 
-0.003869 -0.121121 
-0.002143 -0.118909 
-0.002363 -0.125281 
-0.000627 -0.129538 
-0.001133 -0.128046 
0.000099 -0.123647 
-0.008276 -0.141430 
-0.008116 -0.139786 
-0.011347 -0.131143 
-0.009358 -0.136025 
-0.011234 -0.134567 
-0.007432 -0.136133 
-0.006673 -0.130425 
-0.022298 -0.102355 
-0.019630 -0.110861 
-0.023011 -0.108706 
-0.012898 -0.111001 
-0.016236 -0.111456 
-0.014801 -0.102332 
-0.016598 -0.123147 
-0.016748 -0.118506 
-0.013898 -0.125278 
-0.004301 -0.107320 
-0.002481 -0.098616 
-0.006071 -0.123335 
-0.005416 -0.115544 
-0.008036 -0.100294 
-0.006848 -0.108580 
-0.009732 -0.109919 
-0.011235 -0.125784 
-0.010752 -0.118562 
-0.008589 -0.125025 
-0.028543 -0.091595 
-0.024501 -0.092975 
-0.026510 -0.071457 
-0.025994 -0.082691 
-0.031310 -0.071682 
-0.020332 -0.093113 
-0.016236 -0.092561 
-0.010095 -0.015452 
-0.018240 -0.031179 
-0.016976 -0.020566 
-0.015692 -0.056975 
-0.017718 -0.044145 
-0.013262 -0.043310 
-0.029021 -0.048540 
-0.023182 -0.045811 
-0.025722 -0.059199 
-0.005679 -0.089972 
-0.002768 -0.089439 
-0.012382 -0.091694 
-0.008861 -0.090769 
-0.009017 -0.068432 
-0.009218 -0.080109 
-0.012699 -0.069061 
-0.021562 -0.070676 
-0.016887 -0.069822 
-0.017002 -0.081710 
0.000000 0.000000 
-0.006883 -0.014681 
-0.003591 -0.014549 
-0.004972 -0.014556 
0.000000 0.000000 
-0.009592 -0.029067 
-0.009701 -0.042875 
-0.000000 -0.014575 
-0.000764 -0.014575 
0.000000 0.000000 
-0.002084 -0.042344 
-0.001478 -0.028712 
-0.000000 -0.042306 
0.000000 0.000000 
-0.001578 -0.014571 
-0.002497 -0.014562 
-0.002880 -0.079067 
-0.000000 -0.089255 
-0.008205 -0.055881 
-0.005762 -0.067957 
-0.000000 -0.067552 
-0.002805 -0.067658 
-0.002536 -0.055369 
-0.004827 -0.028795 
-0.004299 -0.042445 
-0.006783 -0.042614 
0.000000 0.000000 
0.000764 -0.014575 
0.002497 -0.014562 
0.001578 -0.014571 
0.000000 0.000000 
0.001478 -0.028712 
0.002084 -0.042344 
0.010095 -0.015452 
0.006883 -0.014681 
0.000000 0.000000 
0.009701 -0.042875 
0.009592 -0.029067 
0.013262 -0.043310 
0.000000 0.000000 
0.004972 -0.014556 
0.003591 -0.014549 
0.002880 -0.079067 
0.002768 -0.089439 
0.002536 -0.055369 
0.002805 -0.067658 
0.009017 -0.068432 
0.005762 -0.067957 
0.008205 -0.055881 
0.004827 -0.028795 
0.006783 -0.042614 
0.004299 -0.042445 
0.016976 -0.020566 
0.018240 -0.031179 
0.025722 -0.059199 
0.023182 -0.045811 
0.029021 -0.048540 
0.017718 -0.044145 
0.015692 -0.056975 
0.022298 -0.102355 
0.024501 -0.092975 
0.028543 -0.091595 
0.016236 -0.092561 
0.020332 -0.093113 
0.014801 -0.102332 
0.031310 -0.071682 
0.025994 -0.082691 
0.026510 -0.071457 
0.005679 -0.089972 
0.002481 -0.098616 
0.012699 -0.069061 
0.009218 -0.080109 
0.008036 -0.100294 
0.008861 -0.090769 
0.012382 -0.091694 
0.021562 -0.070676 
0.017002 -0.081710 
0.016887 -0.069822 
0.023011 -0.108706 
0.019630 -0.110861 
0.013898 -0.125278 
0.016748 -0.118506 
0.016598 -0.123147 
0.016236 -0.111456 
0.012898 -0.111001 
0.008116 -0.139786 
0.008276 -0.141430 
0.006673 -0.130425 
0.007432 -0.136133 
0.011234 -0.134567 
0.009358 -0.136025 
0.011347 -0.131143 
0.004301 -0.107320 
0.009732 -0.109919 
0.006848 -0.108580 
0.005416 -0.115544 
0.006071 -0.123335 
0.011235 -0.125784 
0.008589 -0.125025 
0.010752 -0.118562 
0.007353 -0.142762 
0.007489 -0.142840 
0.007639 -0.142542 
0.007220 -0.142755 
0.007353 -0.142939 
0.007464 -0.143123 
0.007243 -0.141302 
0.007242 -0.142318 
0.006652 -0.141114 
0.006052 -0.137548 
0.006543 -0.139728 
0.008307 -0.139876 
0.004301 -0.138088 
0.005171 -0.139085 
0.003261 -0.136024 
0.007839 -0.142376 
0.006856 -0.141237 
0.007065 -0.142213 
0.004764 -0.131659 
0.004212 -0.133611 
0.003651 -0.130275 
0.005841 -0.139204 
0.004975 -0.136653 
0.005989 -0.137562 
0.002797 -0.133583 
0.003901 -0.135330 
0.003903 -0.136824 
0.006406 -0.141582 
0.005204 -0.139573 
0.005981 -0.140558 
-0.000000 -0.105284 
-0.000014 -0.106096 
0.000484 -0.100907 
-0.000457 -0.113903 
-0.000327 -0.110436 
-0.000000 -0.113311 
0.002453 -0.108298 
0.000118 -0.108471 
0.000521 -0.112362 
-0.000069 -0.119575 
-0.000228 -0.119274 
-0.000000 -0.119306 
-0.000929 -0.120170 
-0.000626 -0.119436 
-0.000700 -0.121272 
-0.000000 -0.117866 
-0.000363 -0.118270 
-0.000452 -0.116500 
0.008548 -0.134553 
0.004066 -0.130142 
0.005271 -0.134474 
0.001277 -0.117674 
0.002485 -0.124096 
0.006685 -0.122335 
-0.000079 -0.125949 
0.000664 -0.125219 
-0.000716 -0.121927 
-0.000804 -0.115616 
-0.000930 -0.118358 
-0.000532 -0.115767 
0.001129 -0.102502 
0.001015 -0.106197 
-0.000000 -0.102441 
0.002364 -0.113230 
0.001803 -0.109778 
0.002772 -0.110219 
-0.000000 -0.109412 
0.000887 -0.109504 
0.000747 -0.112396 
0.003302 -0.126825 
0.003099 -0.123378 
0.004083 -0.124703 
0.001554 -0.120781 
0.002251 -0.122041 
0.001578 -0.123705 
0.003629 -0.117524 
0.002941 -0.119978 
0.002724 -0.116611 
-0.000000 -0.118121 
0.000268 -0.118304 
0.000099 -0.119235 
0.000595 -0.114848 
0.000435 -0.116829 
-0.000000 -0.114720 
0.000536 -0.120897 
0.000589 -0.118840 
0.001006 -0.119686 
0.001928 -0.115827 
0.001473 -0.117987 
0.001227 -0.115226 
0.003205 -0.133983 
-0.000227 -0.126299 
0.000932 -0.129895 
0.002108 -0.133303 
0.001685 -0.132461 
-0.000064 -0.120358 
0.000408 -0.123168 
0.000079 -0.121590 
-0.000345 -0.121729 
-0.000511 -0.123619 
0.002610 -0.128640 
0.001718 -0.131429 
0.002059 -0.130167 
0.001693 -0.126833 
0.000948 -0.124964 
-0.000023 -0.126258 
0.000397 -0.125815 
0.000746 -0.128938 
-0.000484 -0.100907 
0.000014 -0.106096 
-0.000521 -0.112362 
-0.000118 -0.108471 
-0.002453 -0.108298 
0.000327 -0.110436 
0.000457 -0.113903 
-0.005271 -0.134474 
-0.004066 -0.130142 
-0.008548 -0.134553 
0.000716 -0.121927 
-0.000664 -0.125219 
0.000079 -0.125949 
-0.006685 -0.122335 
-0.002485 -0.124096 
-0.001277 -0.117674 
0.000228 -0.119274 
0.000069 -0.119575 
0.000452 -0.116500 
0.000363 -0.118270 
0.000700 -0.121272 
0.000626 -0.119436 
0.000929 -0.120170 
0.000532 -0.115767 
0.000930 -0.118358 
0.000804 -0.115616 
-0.007639 -0.142542 
-0.007489 -0.142840 
-0.007353 -0.142762 
-0.006652 -0.141114 
-0.007242 -0.142318 
-0.007243 -0.141302 
-0.007464 -0.143123 
-0.007353 -0.142939 
-0.007220 -0.142755 
-0.003651 -0.130275 
-0.004212 -0.133611 
-0.004764 -0.131659 
-0.003903 -0.136824 
-0.003901 -0.135330 
-0.002797 -0.133583 
-0.005989 -0.137562 
-0.004975 -0.136653 
-0.005841 -0.139204 
-0.008307 -0.139876 
-0.006543 -0.139728 
-0.006052 -0.137548 
-0.007065 -0.142213 
-0.006856 -0.141237 
-0.007839 -0.142376 
-0.003261 -0.136024 
-0.005171 -0.139085 
-0.004301 -0.138088 
-0.005981 -0.140558 
-0.005204 -0.139573 
-0.006406 -0.141582 
-0.001015 -0.106197 
-0.001129 -0.102502 
-0.000747 -0.112396 
-0.000887 -0.109504 
-0.002772 -0.110219 
-0.001803 -0.109778 
-0.002364 -0.113230 
-0.000099 -0.119235 
-0.000268 -0.118304 
-0.001006 -0.119686 
-0.000589 -0.118840 
-0.000536 -0.120897 
-0.000435 -0.116829 
-0.000595 -0.114848 
-0.004083 -0.124703 
-0.003099 -0.123378 
-0.003302 -0.126825 
-0.002724 -0.116611 
-0.002941 -0.119978 
-0.003629 -0.117524 
-0.001578 -0.123705 
-0.002251 -0.122041 
-0.001554 -0.120781 
-0.001227 -0.115226 
-0.001473 -0.117987 
-0.001928 -0.115827 
-0.003205 -0.133983 
-0.001685 -0.132461 
-0.002108 -0.133303 
-0.000932 -0.129895 
0.000227 -0.126299 
-0.002610 -0.128640 
-0.000948 -0.124964 
-0.001693 -0.126833 
-0.002059 -0.130167 
-0.001718 -0.131429 
0.000064 -0.120358 
0.000511 -0.123619 
0.000345 -0.121729 
-0.000079 -0.121590 
-0.000408 -0.123168 
-0.000746 -0.128938 
-0.000397 -0.125815 
0.000023 -0.126258 
-0.007813 -0.142138 
-0.007927 -0.141889 
-0.008781 -0.139368 
-0.008289 -0.140819 
-0.008807 -0.140283 
-0.007779 -0.141183 
-0.007422 -0.139930 
-0.012492 -0.130425 
-0.011308 -0.133071 
-0.012374 -0.132051 
-0.009220 -0.133995 
-0.010268 -0.133714 
-0.010202 -0.131480 
-0.010261 -0.136807 
-0.010285 -0.135461 
-0.009442 -0.137571 
-0.005904 -0.132744 
-0.005496 -0.129460 
-0.006933 -0.138082 
-0.006400 -0.135658 
-0.007861 -0.131100 
-0.007037 -0.133503 
-0.008145 -0.133923 
-0.008639 -0.138057 
-0.008415 -0.136252 
-0.007811 -0.138237 
-0.024162 -0.101635 
-0.022783 -0.105920 
-0.024546 -0.104671 
-0.019215 -0.107135 
-0.021005 -0.106716 
-0.020413 -0.102716 
-0.021419 -0.112570 
-0.021323 -0.110014 
-0.019808 -0.113915 
-0.012189 -0.106351 
-0.013894 -0.106805 
-0.013005 -0.101900 
-0.014994 -0.115412 
-0.014554 -0.111332 
-0.013405 -0.115278 
-0.016646 -0.102645 
-0.015644 -0.107121 
-0.017423 -0.107250 
-0.015082 -0.126317 
-0.015236 -0.124443 
-0.013812 -0.127544 
-0.018267 -0.117623 
-0.016732 -0.121133 
-0.018181 -0.119794 
-0.013879 -0.122465 
-0.015302 -0.122003 
-0.015234 -0.118984 
-0.017932 -0.111319 
-0.016595 -0.115269 
-0.018201 -0.114791 
-0.002285 -0.102705 
-0.001230 -0.098440 
-0.003812 -0.110799 
-0.003147 -0.106815 
-0.003773 -0.098908 
-0.003483 -0.103038 
-0.004740 -0.103481 
-0.005180 -0.125934 
-0.004918 -0.122263 
-0.006632 -0.116411 
-0.005776 -0.119500 
-0.007000 -0.120438 
-0.004648 -0.118508 
-0.004299 -0.114690 
-0.009614 -0.100845 
-0.008973 -0.105208 
-0.010545 -0.105805 
-0.006070 -0.104011 
-0.007480 -0.104598 
-0.006540 -0.099769 
-0.008855 -0.113731 
-0.008250 -0.109260 
-0.007463 -0.112996 
-0.004937 -0.111484 
-0.006155 -0.112232 
-0.005532 -0.107921 
-0.012568 -0.128328 
-0.012460 -0.122575 
-0.012566 -0.125710 
-0.011328 -0.128716 
-0.010083 -0.128745 
-0.011286 -0.110515 
-0.009316 -0.117971 
-0.010320 -0.114388 
-0.011842 -0.114920 
-0.012226 -0.118960 
-0.006356 -0.127003 
-0.008830 -0.128447 
-0.007582 -0.127855 
-0.007303 -0.124274 
-0.008301 -0.121265 
-0.011049 -0.122381 
-0.009657 -0.121929 
-0.009905 -0.125542 
-0.027344 -0.096119 
-0.025430 -0.097158 
-0.027494 -0.087603 
-0.026549 -0.092482 
-0.029570 -0.086893 
-0.023473 -0.097776 
-0.021490 -0.098059 
-0.028867 -0.065928 
-0.028959 -0.071688 
-0.031325 -0.066225 
-0.023714 -0.082631 
-0.026393 -0.077197 
-0.024010 -0.076992 
-0.030987 -0.076941 
-0.028734 -0.077213 
-0.028233 -0.082515 
-0.015589 -0.097583 
-0.013706 -0.097164 
-0.019501 -0.098080 
-0.017527 -0.097903 
-0.018825 -0.087625 
-0.018263 -0.092896 
-0.020986 -0.087891 
-0.025352 -0.087949 
-0.023172 -0.088020 
-0.022420 -0.093161 
-0.006616 -0.008267 
-0.012955 -0.016915 
-0.010744 -0.011738 
-0.015462 -0.030159 
-0.014600 -0.023408 
-0.012109 -0.022547 
-0.021454 -0.028287 
-0.017808 -0.025152 
-0.021449 -0.032883 
-0.013585 -0.056626 
-0.014637 -0.050232 
-0.012618 -0.049927 
-0.019293 -0.051142 
-0.016858 -0.050626 
-0.017976 -0.057396 
-0.013480 -0.036515 
-0.015363 -0.043655 
-0.015674 -0.036942 
-0.030242 -0.054671 
-0.027525 -0.053642 
-0.028409 -0.059919 
-0.024161 -0.040167 
-0.026142 -0.047070 
-0.027239 -0.042137 
-0.023033 -0.058510 
-0.024706 -0.052654 
-0.021927 -0.051812 
-0.018200 -0.037614 
-0.020336 -0.044843 
-0.021063 -0.038654 
-0.002645 -0.094187 
-0.001315 -0.094032 
-0.005438 -0.094790 
-0.004014 -0.094444 
-0.004315 -0.084592 
-0.004196 -0.089666 
-0.005838 -0.084862 
-0.011891 -0.096686 
-0.010154 -0.096181 
-0.010869 -0.085990 
-0.010578 -0.091226 
-0.012727 -0.086424 
-0.008501 -0.095680 
-0.006930 -0.095209 
-0.010422 -0.062510 
-0.010798 -0.068728 
-0.012283 -0.062801 
-0.007520 -0.079769 
-0.009192 -0.074389 
-0.007493 -0.074090 
-0.012902 -0.075095 
-0.010992 -0.074726 
-0.011011 -0.080485 
-0.007231 -0.090345 
-0.009104 -0.085574 
-0.007430 -0.085193 
-0.026303 -0.065462 
-0.021174 -0.064419 
-0.023715 -0.064937 
-0.024025 -0.071095 
-0.021635 -0.076674 
-0.014285 -0.063134 
-0.014928 -0.075487 
-0.014728 -0.069426 
-0.016436 -0.063512 
-0.018737 -0.063940 
-0.014271 -0.092148 
-0.019184 -0.082090 
-0.016716 -0.087268 
-0.014679 -0.086858 
-0.014905 -0.081301 
-0.019172 -0.070243 
-0.017068 -0.075892 
-0.019310 -0.076295 
0.000000 0.000000 
-0.004982 -0.007572 
-0.003419 -0.007297 
-0.004066 -0.007367 
0.000000 0.000000 
-0.008226 -0.014903 
-0.010187 -0.022132 
-0.001803 -0.007299 
-0.002123 -0.007288 
0.000000 0.000000 
-0.006275 -0.021774 
-0.004235 -0.014547 
-0.005319 -0.021747 
0.000000 0.000000 
-0.002487 -0.007279 
-0.002911 -0.007278 
-0.011386 -0.043061 
-0.010783 -0.049685 
-0.011225 -0.029255 
-0.011572 -0.036242 
-0.008412 -0.035932 
-0.009898 -0.036059 
-0.008181 -0.028953 
-0.005835 -0.014590 
-0.007369 -0.021826 
-0.008647 -0.021928 
0.000000 -0.007342 
-0.000191 -0.007342 
0.000000 0.000000 
-0.000561 -0.021699 
-0.000379 -0.014576 
-0.000000 -0.021697 
0.000000 0.000000 
-0.000384 -0.007340 
-0.000584 -0.007337 
-0.001157 -0.048902 
-0.001034 -0.042317 
-0.000000 -0.048887 
-0.002247 -0.028725 
-0.001798 -0.035596 
-0.002732 -0.035623 
-0.000000 -0.035573 
-0.000892 -0.035580 
-0.000733 -0.028703 
0.000000 0.000000 
-0.001255 -0.007319 
-0.001516 -0.007310 
-0.000794 -0.007333 
-0.001016 -0.007327 
0.000000 0.000000 
-0.002991 -0.021716 
-0.002020 -0.014567 
-0.002336 -0.021711 
-0.001131 -0.021702 
-0.001719 -0.021706 
-0.001161 -0.014574 
-0.001376 -0.089301 
-0.000000 -0.093986 
-0.004366 -0.079241 
-0.002846 -0.084392 
-0.000000 -0.084228 
-0.001414 -0.084270 
-0.001431 -0.078960 
-0.009859 -0.056089 
-0.008689 -0.062256 
-0.005541 -0.061860 
-0.007068 -0.062040 
-0.006666 -0.055706 
-0.007344 -0.068174 
-0.005884 -0.073836 
-0.000000 -0.061527 
-0.001338 -0.061550 
-0.001259 -0.055318 
-0.001424 -0.073390 
-0.001393 -0.067580 
-0.000000 -0.073357 
-0.003851 -0.055450 
-0.002695 -0.061614 
-0.004089 -0.061718 
-0.004347 -0.073632 
-0.004255 -0.067784 
-0.002867 -0.073482 
-0.003016 -0.014555 
-0.003907 -0.028766 
-0.003697 -0.021723 
-0.004467 -0.021732 
-0.005831 -0.028831 
-0.002332 -0.048939 
-0.004805 -0.049085 
-0.003542 -0.049001 
-0.003167 -0.042386 
-0.003710 -0.035659 
-0.009108 -0.049488 
-0.007077 -0.035837 
-0.008176 -0.042730 
-0.007567 -0.049327 
-0.006140 -0.049193 
-0.004748 -0.035706 
-0.005498 -0.042521 
-0.005864 -0.035764 
0.000000 0.000000 
0.000191 -0.007342 
0.000584 -0.007337 
0.000384 -0.007340 
0.000000 0.000000 
0.000379 -0.014576 
0.000561 -0.021699 
0.001516 -0.007310 
0.001255 -0.007319 
0.000000 0.000000 
0.002336 -0.021711 
0.002020 -0.014567 
0.002991 -0.021716 
0.000000 0.000000 
0.001016 -0.007327 
0.000794 -0.007333 
0.001034 -0.042317 
0.001157 -0.048902 
0.000733 -0.028703 
0.000892 -0.035580 
0.002732 -0.035623 
0.001798 -0.035596 
0.002247 -0.028725 
0.001161 -0.014574 
0.001719 -0.021706 
0.001131 -0.021702 
0.006616 -0.008267 
0.004982 -0.007572 
0.000000 0.000000 
0.010187 -0.022132 
0.008226 -0.014903 
0.012109 -0.022547 
0.000000 0.000000 
0.004066 -0.007367 
0.003419 -0.007297 
0.010783 -0.049685 
0.011386 -0.043061 
0.012618 -0.049927 
0.008181 -0.028953 
0.009898 -0.036059 
0.008412 -0.035932 
0.013480 -0.036515 
0.011572 -0.036242 
0.011225 -0.029255 
0.000000 0.000000 
0.002123 -0.007288 
0.001803 -0.007299 
0.002911 -0.007278 
0.002487 -0.007279 
0.000000 0.000000 
0.005319 -0.021747 
0.004235 -0.014547 
0.006275 -0.021774 
0.008647 -0.021928 
0.007369 -0.021826 
0.005835 -0.014590 
0.001376 -0.089301 
0.001315 -0.094032 
0.001431 -0.078960 
0.001414 -0.084270 
0.004315 -0.084592 
0.002846 -0.084392 
0.004366 -0.079241 
0.001259 -0.055318 
0.001338 -0.061550 
0.004089 -0.061718 
0.002695 -0.061614 
0.003851 -0.055450 
0.001393 -0.067580 
0.001424 -0.073390 
0.010422 -0.062510 
0.008689 -0.062256 
0.009859 -0.056089 
0.005884 -0.073836 
0.007344 -0.068174 
0.007493 -0.074090 
0.006666 -0.055706 
0.007068 -0.062040 
0.005541 -0.061860 
0.002867 -0.073482 
0.004255 -0.067784 
0.004347 -0.073632 
0.003016 -0.014555 
0.005831 -0.028831 
0.004467 -0.021732 
0.003697 -0.021723 
0.003907 -0.028766 
0.009108 -0.049488 
0.006140 -0.049193 
0.007567 -0.049327 
0.008176 -0.042730 
0.007077 -0.035837 
0.002332 -0.048939 
0.003710 -0.035659 
0.003167 -0.042386 
0.003542 -0.049001 
0.004805 -0.049085 
0.005864 -0.035764 
0.005498 -0.042521 
0.004748 -0.035706 
0.010744 -0.011738 
0.012955 -0.016915 
0.021449 -0.032883 
0.017808 -0.025152 
0.021454 -0.028287 
0.014600 -0.023408 
0.015462 -0.030159 
0.028409 -0.059919 
0.027525 -0.053642 
0.030242 -0.054671 
0.021927 -0.051812 
0.024706 -0.052654 
0.023033 -0.058510 
0.027239 -0.042137 
0.026142 -0.047070 
0.024161 -0.040167 
0.014637 -0.050232 
0.013585 -0.056626 
0.015674 -0.036942 
0.015363 -0.043655 
0.017976 -0.057396 
0.016858 -0.050626 
0.019293 -0.051142 
0.021063 -0.038654 
0.020336 -0.044843 
0.018200 -0.037614 
0.024162 -0.101635 
0.025430 -0.097158 
0.027344 -0.096119 
0.021490 -0.098059 
0.023473 -0.097776 
0.020413 -0.102716 
0.029570 -0.086893 
0.026549 -0.092482 
0.027494 -0.087603 
0.013706 -0.097164 
0.015589 -0.097583 
0.013005 -0.101900 
0.020986 -0.087891 
0.018263 -0.092896 
0.018825 -0.087625 
0.016646 -0.102645 
0.017527 -0.097903 
0.019501 -0.098080 
0.031325 -0.066225 
0.028959 -0.071688 
0.028867 -0.065928 
0.028233 -0.082515 
0.028734 -0.077213 
0.030987 -0.076941 
0.024010 -0.076992 
0.026393 -0.077197 
0.023714 -0.082631 
0.022420 -0.093161 
0.023172 -0.088020 
0.025352 -0.087949 
0.002645 -0.094187 
0.001230 -0.098440 
0.005838 -0.084862 
0.004196 -0.089666 
0.003773 -0.098908 
0.004014 -0.094444 
0.005438 -0.094790 
0.012283 -0.062801 
0.010798 -0.068728 
0.011011 -0.080485 
0.010992 -0.074726 
0.012902 -0.075095 
0.009192 -0.074389 
0.007520 -0.079769 
0.009614 -0.100845 
0.010154 -0.096181 
0.011891 -0.096686 
0.006930 -0.095209 