# vtk DataFile Version 2.0
Unstructured Grid Example
ASCII
DATASET UNSTRUCTURED_GRID

POINTS 81 float
0.009316 -0.142753 0.000000 
0.990684 -0.142753 0.000000 
1.000000 1.000000 0.000000 
0.000000 1.000000 0.000000 
0.500000 -0.097492 0.000000 
0.975171 0.400992 0.000000 
0.500000 1.000000 0.000000 
0.024829 0.400992 0.000000 
0.500000 0.402137 0.000000 
0.256308 -0.134075 0.000000 
0.500000 0.133782 0.000000 
0.254280 0.123482 0.000000 
0.743692 -0.134075 0.000000 
0.745720 0.123482 0.000000 
0.986762 0.121706 0.000000 
0.739079 0.399952 0.000000 
0.970836 0.690204 0.000000 
0.739157 0.694473 0.000000 
0.750000 1.000000 0.000000 
0.500000 0.695558 0.000000 
0.250000 1.000000 0.000000 
0.260843 0.694473 0.000000 
0.029164 0.690204 0.000000 
0.260921 0.399952 0.000000 
0.013238 0.121706 0.000000 
0.133083 -0.140830 0.000000 
0.252777 -0.007502 0.000000 
0.131106 -0.012685 0.000000 
0.500000 0.012199 0.000000 
0.374711 0.004367 0.000000 
0.377335 -0.112572 0.000000 
0.377904 0.262926 0.000000 
0.375948 0.130046 0.000000 
0.500000 0.264484 0.000000 
0.622665 -0.112572 0.000000 
0.625289 0.004367 0.000000 
0.868894 -0.012685 0.000000 
0.747223 -0.007502 0.000000 
0.866917 -0.140830 0.000000 
0.624052 0.130046 0.000000 
0.622096 0.262926 0.000000 
0.990919 -0.012918 0.000000 
0.866420 0.120179 0.000000 
0.857031 0.398622 0.000000 
0.861835 0.257374 0.000000 
0.980737 0.259825 0.000000 
0.742467 0.259280 0.000000 
0.620209 0.402094 0.000000 
0.971012 0.543692 0.000000 
0.854532 0.543710 0.000000 
0.863440 0.846121 0.000000 
0.855944 0.692933 0.000000 
0.977400 0.841351 0.000000 
0.737685 0.545226 0.000000 
0.619263 0.546571 0.000000 
0.875000 1.000000 0.000000 
0.743613 0.846495 0.000000 
0.500000 0.846778 0.000000 
0.622123 0.846611 0.000000 
0.625000 1.000000 0.000000 
0.620043 0.695172 0.000000 
0.500000 0.547031 0.000000 
0.375000 1.000000 0.000000 
0.377877 0.846611 0.000000 
0.136560 0.846121 0.000000 
0.256387 0.846495 0.000000 
0.125000 1.000000 0.000000 
0.379957 0.695172 0.000000 
0.380737 0.546571 0.000000 
0.022600 0.841351 0.000000 
0.144056 0.692933 0.000000 
0.142969 0.398622 0.000000 
0.145468 0.543710 0.000000 
0.028988 0.543692 0.000000 
0.262315 0.545226 0.000000 
0.379791 0.402094 0.000000 
0.019263 0.259825 0.000000 
0.138165 0.257374 0.000000 
0.133580 0.120179 0.000000 
0.009081 -0.012918 0.000000 
0.257533 0.259280 0.000000 

CELLS 128 512
3  0 25 27 
3  9 26 25 
3  11 27 26 
3  25 26 27 
3  4 28 30 
3  10 29 28 
3  9 30 29 
3  28 29 30 
3  8 31 33 
3  11 32 31 
3  10 33 32 
3  31 32 33 
3  9 29 26 
3  10 32 29 
3  11 26 32 
3  29 32 26 
3  4 34 28 
3  12 35 34 
3  10 28 35 
3  34 35 28 
3  1 36 38 
3  13 37 36 
3  12 38 37 
3  36 37 38 
3  8 33 40 
3  10 39 33 
3  13 40 39 
3  33 39 40 
3  12 37 35 
3  13 39 37 
3  10 35 39 
3  37 39 35 
3  1 41 36 
3  14 42 41 
3  13 36 42 
3  41 42 36 
3  5 43 45 
3  15 44 43 
3  14 45 44 
3  43 44 45 
3  8 40 47 
3  13 46 40 
3  15 47 46 
3  40 46 47 
3  14 44 42 
3  15 46 44 
3  13 42 46 
3  44 46 42 
3  5 48 43 
3  16 49 48 
3  15 43 49 
3  48 49 43 
3  2 50 52 
3  17 51 50 
3  16 52 51 
3  50 51 52 
3  8 47 54 
3  15 53 47 
3  17 54 53 
3  47 53 54 
3  16 51 49 
3  17 53 51 
3  15 49 53 
3  51 53 49 
3  2 55 50 
3  18 56 55 
3  17 50 56 
3  55 56 50 
3  6 57 59 
3  19 58 57 
3  18 59 58 
3  57 58 59 
3  8 54 61 
3  17 60 54 
3  19 61 60 
3  54 60 61 
3  18 58 56 
3  19 60 58 
3  17 56 60 
3  58 60 56 
3  6 62 57 
3  20 63 62 
3  19 57 63 
3  62 63 57 
3  3 64 66 
3  21 65 64 
3  20 66 65 
3  64 65 66 
3  8 61 68 
3  19 67 61 
3  21 68 67 
3  61 67 68 
3  20 65 63 
3  21 67 65 
3  19 63 67 
3  65 67 63 
3  3 69 64 
3  22 70 69 
3  21 64 70 
3  69 70 64 
3  7 71 73 
3  23 72 71 
3  22 73 72 
3  71 72 73 
3  8 68 75 
3  21 74 68 
3  23 75 74 
3  68 74 75 
3  22 72 70 
3  23 74 72 
3  21 70 74 
3  72 74 70 
3  7 76 71 
3  24 77 76 
3  23 71 77 
3  76 77 71 
3  0 27 79 
3  11 78 27 
3  24 79 78 
3  27 78 79 
3  8 75 31 
3  23 80 75 
3  11 31 80 
3  75 80 31 
3  24 78 77 
3  11 80 78 
3  23 77 80 
3  78 80 77 

CELL_TYPES 128
5
5
5
5
5
5
5
5
5
5
5
5
5
5
5
5
5
5
5
5
5
5
5
5
5
5
5
5
5
5
5
5
5
5
5
5
5
5
5
5
5
5
5
5
5
5
5
5
5
5
5
5
5
5
5
5
5
5
5
5
5
5
5
5
5
5
5
5
5
5
5
5
5
5
5
5
5
5
5
5
5
5
5
5
5
5
5
5
5
5
5
5
5
5
5
5
5
5
5
5
5
5
5
5
5
5
5
5
5
5
5
5
5
5
5
5
5
5
5
5
5
5
5
5
5
5
5
5

POINT_DATA 81

SCALARS u_h float 2
LOOKUP_TABLE default
0.009316 -0.142753 
-0.009316 -0.142753 
0.000000 0.000000 
0.000000 0.000000 
-0.000000 -0.097492 
-0.024829 -0.099008 
0.000000 0.000000 
0.024829 -0.099008 
-0.000000 -0.097863 
0.006308 -0.134075 
-0.000000 -0.116218 
0.004280 -0.126518 
-0.006308 -0.134075 
-0.004280 -0.126518 
-0.013238 -0.128294 
-0.010921 -0.100048 
-0.029164 -0.059796 
-0.010843 -0.055527 
0.000000 0.000000 
-0.000000 -0.054442 
0.000000 0.000000 
0.010843 -0.055527 
0.029164 -0.059796 
0.010921 -0.100048 
0.013238 -0.128294 
0.008083 -0.140830 
0.002777 -0.132502 
0.006106 -0.137685 
-0.000000 -0.112801 
-0.000289 -0.120633 
0.002335 -0.112572 
0.002904 -0.112074 
0.000948 -0.119954 
-0.000000 -0.110516 
-0.002335 -0.112572 
0.000289 -0.120633 
-0.006106 -0.137685 
-0.002777 -0.132502 
-0.008083 -0.140830 
-0.000948 -0.119954 
-0.002904 -0.112074 
-0.009081 -0.137918 
-0.008580 -0.129821 
-0.017969 -0.101378 
-0.013165 -0.117626 
-0.019263 -0.115175 
-0.007533 -0.115720 
-0.004791 -0.097906 
-0.028988 -0.081308 
-0.020468 -0.081290 
-0.011560 -0.028879 
-0.019056 -0.057067 
-0.022600 -0.033649 
-0.012315 -0.079774 
-0.005737 -0.078429 
0.000000 0.000000 
-0.006387 -0.028505 
-0.000000 -0.028222 
-0.002877 -0.028389 
0.000000 0.000000 
-0.004957 -0.054828 
-0.000000 -0.077969 
0.000000 0.000000 
0.002877 -0.028389 
0.011560 -0.028879 
0.006387 -0.028505 
0.000000 0.000000 
0.004957 -0.054828 
0.005737 -0.078429 
0.022600 -0.033649 
0.019056 -0.057067 
0.017969 -0.101378 
0.020468 -0.081290 
0.028988 -0.081308 
0.012315 -0.079774 
0.004791 -0.097906 
0.019263 -0.115175 
0.013165 -0.117626 
0.008580 -0.129821 
0.009081 -0.137918 
0.007533 -0.115720 

CELL_DATA 128

SCALARS epsilon float 4
LOOKUP_TABLE default
-0.009545 0.025194 0.000000 -0.000478
-0.012377 0.015495 0.000000 0.012352
-0.027409 0.047069 0.000000 0.025935
-0.026207 0.026358 0.000000 0.012090
-0.018851 -0.120012 0.000000 0.068714
0.002311 -0.025640 0.000000 0.032208
-0.028052 -0.044705 0.000000 0.081069
0.003963 -0.062935 0.000000 0.023064
-0.023499 0.096216 0.000000 0.005653
-0.027690 0.061564 0.000000 0.032685
-0.007612 0.044987 0.000000 0.014294
-0.023573 0.060951 0.000000 0.013837
-0.021711 0.019813 0.000000 0.032384
-0.007859 0.005568 0.000000 0.019852
-0.027560 0.047439 0.000000 0.031198
-0.025735 0.009152 0.000000 0.052258
-0.018851 -0.120012 0.000000 -0.068714
-0.028052 -0.044705 0.000000 -0.081069
0.002311 -0.025640 0.000000 -0.032208
0.003963 -0.062935 0.000000 -0.023064
-0.009545 0.025194 0.000000 0.000478
-0.027409 0.047069 0.000000 -0.025935
-0.012377 0.015495 0.000000 -0.012352
-0.026207 0.026358 0.000000 -0.012090
-0.023499 0.096216 0.000000 -0.005653
-0.007612 0.044987 0.000000 -0.014294
-0.027690 0.061564 0.000000 -0.032685
-0.023573 0.060951 0.000000 -0.013837
-0.021711 0.019813 0.000000 -0.032384
-0.027560 0.047439 0.000000 -0.031198
-0.007859 0.005568 0.000000 -0.019852
-0.025735 0.009152 0.000000 -0.052258
-0.024073 0.037937 0.000000 0.000064
-0.037052 0.074506 0.000000 -0.011520
-0.035316 0.060762 0.000000 -0.022630
-0.023932 0.060904 0.000000 -0.010979
-0.054721 0.122015 0.000000 -0.014877
-0.057703 0.121318 0.000000 -0.024790
-0.048023 0.100562 0.000000 -0.016248
-0.048631 0.122505 0.000000 -0.011275
-0.038966 0.106981 0.000000 -0.007923
-0.038138 0.082345 0.000000 -0.026834
-0.050349 0.117310 0.000000 -0.021666
-0.038034 0.106949 0.000000 -0.020838
-0.036932 0.093326 0.000000 -0.013339
-0.046129 0.117331 0.000000 -0.020776
-0.035340 0.082343 0.000000 -0.025542
-0.045984 0.092415 0.000000 -0.025988
-0.055320 0.132463 0.000000 -0.009054
-0.070474 0.157602 0.000000 -0.000800
-0.057998 0.147898 0.000000 -0.014958
-0.070306 0.148038 0.000000 -0.010581
-0.074229 0.240797 0.000000 0.079589
-0.065835 0.201618 0.000000 0.025997
-0.081978 0.189150 0.000000 0.018744
-0.088723 0.203494 0.000000 0.016325
-0.039040 0.143893 0.000000 -0.004015
-0.050359 0.149243 0.000000 -0.013103
-0.053833 0.175817 0.000000 0.001556
-0.054049 0.143871 0.000000 -0.008565
-0.083839 0.175921 0.000000 -0.003092
-0.067662 0.175850 0.000000 0.001001
-0.067412 0.149232 0.000000 -0.011041
-0.067167 0.175683 0.000000 0.000830
0.002822 0.205285 0.000000 0.044611
0.000866 0.202935 0.000000 0.024666
-0.041680 0.193641 0.000000 0.016778
-0.038936 0.205514 0.000000 0.045319
0.000000 0.201154 0.000000 0.000000
-0.023279 0.188424 0.000000 -0.000552
0.000176 0.202206 0.000000 0.011113
-0.023069 0.202231 0.000000 0.010831
-0.046951 0.146728 0.000000 -0.001583
-0.048153 0.171477 0.000000 0.000849
-0.040438 0.170951 0.000000 -0.001296
-0.046915 0.171460 0.000000 0.001647
-0.027518 0.202973 0.000000 0.025001
-0.040291 0.189871 0.000000 0.007128
-0.047554 0.193727 0.000000 0.015821
-0.028360 0.189837 0.000000 0.007916
0.000000 0.201154 0.000000 0.000000
0.000176 0.202206 0.000000 -0.011113
-0.023279 0.188424 0.000000 0.000552
-0.023069 0.202231 0.000000 -0.010831
0.002822 0.205285 0.000000 -0.044611
-0.041680 0.193641 0.000000 -0.016778
0.000866 0.202935 0.000000 -0.024666
-0.038936 0.205514 0.000000 -0.045319
-0.046951 0.146728 0.000000 0.001583
-0.040438 0.170951 0.000000 0.001296
-0.048153 0.171477 0.000000 -0.000849
-0.046915 0.171460 0.000000 -0.001647
-0.027518 0.202973 0.000000 -0.025001
-0.047554 0.193727 0.000000 -0.015821
-0.040291 0.189871 0.000000 -0.007128
-0.028360 0.189837 0.000000 -0.007916
-0.074229 0.240797 0.000000 -0.079589
-0.081978 0.189150 0.000000 -0.018744
-0.065835 0.201618 0.000000 -0.025997
-0.088723 0.203494 0.000000 -0.016325
-0.055320 0.132463 0.000000 0.009054
-0.057998 0.147898 0.000000 0.014958
-0.070474 0.157602 0.000000 0.000800
-0.070306 0.148038 0.000000 0.010581
-0.039040 0.143893 0.000000 0.004015
-0.053833 0.175817 0.000000 -0.001556
-0.050359 0.149243 0.000000 0.013103
-0.054049 0.143871 0.000000 0.008565
-0.083839 0.175921 0.000000 0.003092
-0.067412 0.149232 0.000000 0.011041
-0.067662 0.175850 0.000000 -0.001001
-0.067167 0.175683 0.000000 -0.000830
-0.054721 0.122015 0.000000 0.014877
-0.048023 0.100562 0.000000 0.016248
-0.057703 0.121318 0.000000 0.024790
-0.048631 0.122505 0.000000 0.011275
-0.024073 0.037937 0.000000 -0.000064
-0.035316 0.060762 0.000000 0.022630
-0.037052 0.074506 0.000000 0.011520
-0.023932 0.060904 0.000000 0.010979
-0.038966 0.106981 0.000000 0.007923
-0.050349 0.117310 0.000000 0.021666
-0.038138 0.082345 0.000000 0.026834
-0.038034 0.106949 0.000000 0.020838
-0.036932 0.093326 0.000000 0.013339
-0.035340 0.082343 0.000000 0.025542
-0.046129 0.117331 0.000000 0.020776
-0.045984 0.092415 0.000000 0.025988

SCALARS sigma float 4
LOOKUP_TABLE default
-0.000169 0.583897 0.156487 0.000874
-0.158647 0.283552 0.031180 0.215393
-0.228545 1.017353 0.196606 0.452881
-0.408625 0.441565 0.001509 0.210995
-1.507586 -2.888323 -1.388622 0.635193
-0.161886 -0.635416 -0.233288 0.487420
-0.901992 -1.396917 -0.727563 1.015024
-0.501439 -1.520944 -0.589723 0.271430
0.334738 2.517006 0.727171 0.117206
-0.084892 1.435465 0.338743 0.589401
0.253769 1.160017 0.373750 0.264660
-0.009782 1.458003 0.373781 0.237973
-0.315746 0.295423 -0.018983 0.548541
-0.140841 0.071973 -0.022915 0.325035
-0.219740 1.026865 0.198789 0.547620
-0.489490 -0.007166 -0.165839 0.833119
-1.507586 -2.888323 -1.388622 -0.635193
-0.901992 -1.396917 -0.727563 -1.015024
-0.161886 -0.635416 -0.233288 -0.487420
-0.501439 -1.520944 -0.589723 -0.271430
-0.000169 0.583897 0.156487 -0.000874
-0.228545 1.017353 0.196606 -0.452881
-0.158647 0.283552 0.031180 -0.215393
-0.408625 0.441565 0.001509 -0.210995
0.334738 2.517006 0.727171 -0.117206
0.253769 1.160017 0.373750 -0.264660
-0.084892 1.435465 0.338743 -0.589401
-0.009782 1.458003 0.373781 -0.237973
-0.315746 0.295423 -0.018983 -0.548541
-0.219740 1.026865 0.198789 -0.547620
-0.140841 0.071973 -0.022915 -0.325035
-0.489490 -0.007166 -0.165839 -0.833119
-0.249921 0.789130 0.138635 -0.000376
-0.226400 1.717215 0.374545 -0.162886
-0.303415 1.331559 0.254462 -0.389942
-0.021880 1.452942 0.369724 -0.178124
-0.215970 2.992255 0.672940 -0.182549
-0.287452 2.941591 0.636155 -0.408314
-0.253959 2.395133 0.525388 -0.212516
-0.059216 3.072221 0.738738 -0.125460
0.039513 2.684313 0.680150 -0.125546
-0.163917 1.944812 0.442070 -0.472830
-0.142301 2.890425 0.669610 -0.378379
0.072162 2.695759 0.689157 -0.394941
-0.042666 2.289068 0.563945 -0.186171
-0.037548 2.937637 0.712019 -0.361944
-0.095004 1.974503 0.470029 -0.449583
-0.269776 2.169868 0.464314 -0.434683
-0.130635 3.315045 0.771423 -0.088248
-0.263677 3.963385 0.871281 -0.012598
-0.046649 3.788745 0.899001 -0.262919
-0.348195 3.652126 0.777322 -0.161249
0.365022 7.034564 1.665678 1.003234
0.254176 5.547397 1.357824 0.346513
-0.255055 4.913900 1.071725 0.198772
-0.287380 5.332099 1.147710 0.089540
0.392036 3.868310 1.048537 -0.064273
0.157859 3.917647 0.988841 -0.257066
0.318063 4.770520 1.219840 -0.014931
0.012540 3.697628 0.898218 -0.164682
-0.413286 4.423944 0.920822 -0.121986
-0.026001 4.610737 1.081884 -0.028529
-0.265236 3.722856 0.818207 -0.204861
-0.015386 4.610768 1.085161 -0.030432
2.127342 6.525099 2.081066 0.731613
2.052197 6.379418 2.038002 0.404524
0.799331 5.538677 1.519606 0.251256
0.981262 6.040584 1.665788 0.698555
2.011537 6.288596 2.011537 0.000000
1.239772 5.563766 1.651451 -0.014194
2.026700 6.331725 2.023816 0.182255
1.379826 6.057142 1.791617 0.167756
0.216916 3.871493 0.997776 -0.036039
0.421570 4.688164 1.233246 -0.006739
0.615508 4.759553 1.305132 -0.031476
0.453061 4.702013 1.245448 0.012558
1.265353 6.044975 1.754558 0.394247
0.800268 5.416288 1.495794 0.099854
0.647022 5.472051 1.461731 0.224305
1.116357 5.555440 1.614769 0.122357
2.011537 6.288596 2.011537 0.000000
2.026700 6.331725 2.023816 -0.182255
1.239772 5.563766 1.651451 0.014194
1.379826 6.057142 1.791617 -0.167756
2.127342 6.525099 2.081066 -0.731613
0.799331 5.538677 1.519606 -0.251256
2.052197 6.379418 2.038002 -0.404524
0.981262 6.040584 1.665788 -0.698555
0.216916 3.871493 0.997776 0.036039
0.615508 4.759553 1.305132 0.031476
0.421570 4.688164 1.233246 0.006739
0.453061 4.702013 1.245448 -0.012558
1.265353 6.044975 1.754558 -0.394247
0.647022 5.472051 1.461731 -0.224305
0.800268 5.416288 1.495794 -0.099854
1.116357 5.555440 1.614769 -0.122357
0.365022 7.034564 1.665678 -1.003234
-0.255055 4.913900 1.071725 -0.198772
0.254176 5.547397 1.357824 -0.346513
-0.287380 5.332099 1.147710 -0.089540
-0.130635 3.315045 0.771423 0.088248
-0.046649 3.788745 0.899001 0.262919
-0.263677 3.963385 0.871281 0.012598
-0.348195 3.652126 0.777322 0.161249
0.392036 3.868310 1.048537 0.064273
0.318063 4.770520 1.219840 0.014931
0.157859 3.917647 0.988841 0.257066
0.012540 3.697628 0.898218 0.164682
-0.413286 4.423944 0.920822 0.121986
-0.265236 3.722856 0.818207 0.204861
-0.026001 4.610737 1.081884 0.028529
-0.015386 4.610768 1.085161 0.030432
-0.215970 2.992255 0.672940 0.182549
-0.253959 2.395133 0.525388 0.212516
-0.287452 2.941591 0.636155 0.408314
-0.059216 3.072221 0.738738 0.125460
-0.249921 0.789130 0.138635 0.000376
-0.303415 1.331559 0.254462 0.389942
-0.226400 1.717215 0.374545 0.162886
-0.021880 1.452942 0.369724 0.178124
0.039513 2.684313 0.680150 0.125546
-0.142301 2.890425 0.669610 0.378379
-0.163917 1.944812 0.442070 0.472830
0.072162 2.695759 0.689157 0.394941
-0.042666 2.289068 0.563945 0.186171
-0.095004 1.974503 0.470029 0.449583
-0.037548 2.937637 0.712019 0.361944
-0.269776 2.169868 0.464314 0.434683

