# vtk DataFile Version 2.0
Unstructured Grid Example
ASCII
DATASET UNSTRUCTURED_GRID

POINTS 1089 float
0.007675 -0.142575 0.000000 
0.992325 -0.142575 0.000000 
1.000000 1.000000 0.000000 
0.000000 1.000000 0.000000 
0.500000 -0.099843 0.000000 
0.974115 0.399687 0.000000 
0.500000 1.000000 0.000000 
0.025885 0.399687 0.000000 
0.500000 0.401618 0.000000 
0.258289 -0.137275 0.000000 
0.500000 0.131189 0.000000 
0.254349 0.121914 0.000000 
0.741711 -0.137275 0.000000 
0.745651 0.121914 0.000000 
0.986399 0.120823 0.000000 
0.738763 0.398726 0.000000 
0.969184 0.689456 0.000000 
0.738435 0.693737 0.000000 
0.750000 1.000000 0.000000 
0.500000 0.694772 0.000000 
0.250000 1.000000 0.000000 
0.261565 0.693737 0.000000 
0.030816 0.689456 0.000000 
0.261237 0.398726 0.000000 
0.013601 0.120823 0.000000 
0.132724 -0.142739 0.000000 
0.252803 -0.009663 0.000000 
0.131586 -0.014546 0.000000 
0.500000 0.009244 0.000000 
0.374278 0.002114 0.000000 
0.379198 -0.114449 0.000000 
0.378254 0.261247 0.000000 
0.375963 0.127972 0.000000 
0.500000 0.262849 0.000000 
0.620802 -0.114449 0.000000 
0.625722 0.002114 0.000000 
0.868414 -0.014546 0.000000 
0.747197 -0.009663 0.000000 
0.867276 -0.142739 0.000000 
0.624037 0.127972 0.000000 
0.621746 0.261247 0.000000 
0.990616 -0.013653 0.000000 
0.866017 0.118693 0.000000 
0.856524 0.397323 0.000000 
0.861329 0.256013 0.000000 
0.980258 0.258837 0.000000 
0.742100 0.257897 0.000000 
0.619907 0.400820 0.000000 
0.969712 0.543036 0.000000 
0.853648 0.542687 0.000000 
0.862027 0.845474 0.000000 
0.854703 0.692179 0.000000 
0.975532 0.839694 0.000000 
0.737151 0.544211 0.000000 
0.619116 0.545613 0.000000 
0.875000 1.000000 0.000000 
0.743127 0.846151 0.000000 
0.500000 0.846337 0.000000 
0.621972 0.846284 0.000000 
0.625000 1.000000 0.000000 
0.619811 0.694498 0.000000 
0.500000 0.546164 0.000000 
0.375000 1.000000 0.000000 
0.378028 0.846284 0.000000 
0.137973 0.845474 0.000000 
0.256873 0.846151 0.000000 
0.125000 1.000000 0.000000 
0.380189 0.694498 0.000000 
0.380884 0.545613 0.000000 
0.024468 0.839694 0.000000 
0.145297 0.692179 0.000000 
0.143476 0.397323 0.000000 
0.146352 0.542687 0.000000 
0.030288 0.543036 0.000000 
0.262849 0.544211 0.000000 
0.380093 0.400820 0.000000 
0.019742 0.258837 0.000000 
0.138671 0.256013 0.000000 
0.133983 0.118693 0.000000 
0.009384 -0.013653 0.000000 
0.257900 0.257897 0.000000 
0.070057 -0.142965 0.000000 
0.131804 -0.079413 0.000000 
0.070073 -0.079597 0.000000 
0.254192 -0.074079 0.000000 
0.193258 -0.077790 0.000000 
0.195568 -0.141106 0.000000 
0.192782 0.052877 0.000000 
0.192356 -0.012992 0.000000 
0.253113 0.055634 0.000000 
0.500000 -0.046973 0.000000 
0.436956 -0.049803 0.000000 
0.438840 -0.103588 0.000000 
0.437131 0.067474 0.000000 
0.436707 0.007271 0.000000 
0.500000 0.068785 0.000000 
0.320111 -0.129575 0.000000 
0.374849 -0.057551 0.000000 
0.314438 -0.067354 0.000000 
0.439533 0.331189 0.000000 
0.439004 0.262430 0.000000 
0.500000 0.331472 0.000000 
0.314861 0.124879 0.000000 
0.377123 0.193756 0.000000 
0.316347 0.191531 0.000000 
0.500000 0.195996 0.000000 
0.438398 0.195395 0.000000 
0.437751 0.130312 0.000000 
0.313183 -0.004366 0.000000 
0.374915 0.064037 0.000000 
0.313660 0.059620 0.000000 
0.561160 -0.103588 0.000000 
0.563044 -0.049803 0.000000 
0.685562 -0.067354 0.000000 
0.625151 -0.057551 0.000000 
0.679889 -0.129575 0.000000 
0.563293 0.007271 0.000000 
0.562869 0.067474 0.000000 
0.929927 -0.079597 0.000000 
0.868196 -0.079413 0.000000 
0.929943 -0.142965 0.000000 
0.746887 0.055634 0.000000 
0.807644 -0.012992 0.000000 
0.807218 0.052877 0.000000 
0.804432 -0.141106 0.000000 
0.806742 -0.077790 0.000000 
0.745808 -0.074079 0.000000 
0.560996 0.262430 0.000000 
0.560467 0.331189 0.000000 
0.562249 0.130312 0.000000 
0.561602 0.195395 0.000000 
0.683653 0.191531 0.000000 
0.622877 0.193756 0.000000 
0.685139 0.124879 0.000000 
0.686817 -0.004366 0.000000 
0.686340 0.059620 0.000000 
0.625085 0.064037 0.000000 
0.991715 -0.078957 0.000000 
0.929471 -0.014655 0.000000 
0.926221 0.118989 0.000000 
0.928226 0.051610 0.000000 
0.988843 0.053044 0.000000 
0.867640 0.051542 0.000000 
0.805861 0.119735 0.000000 
0.915266 0.397761 0.000000 
0.917935 0.326763 0.000000 
0.977056 0.328910 0.000000 
0.799648 0.326623 0.000000 
0.858819 0.326168 0.000000 
0.797738 0.397783 0.000000 
0.983456 0.189460 0.000000 
0.920811 0.256620 0.000000 
0.923660 0.187350 0.000000 
0.620731 0.330313 0.000000 
0.560037 0.401487 0.000000 
0.743955 0.189308 0.000000 
0.682117 0.259599 0.000000 
0.679498 0.399827 0.000000 
0.680688 0.329051 0.000000 
0.740308 0.327707 0.000000 
0.863818 0.186854 0.000000 
0.801793 0.256570 0.000000 
0.803949 0.187617 0.000000 
0.971546 0.470987 0.000000 
0.913068 0.469625 0.000000 
0.911107 0.616124 0.000000 
0.911595 0.542397 0.000000 
0.968824 0.615842 0.000000 
0.854729 0.469493 0.000000 
0.796318 0.470048 0.000000 
0.927676 0.922114 0.000000 
0.919521 0.843895 0.000000 
0.983383 0.917355 0.000000 
0.796917 0.693104 0.000000 
0.857448 0.768428 0.000000 
0.799359 0.769253 0.000000 
0.971206 0.763986 0.000000 
0.914523 0.766770 0.000000 
0.911933 0.690881 0.000000 
0.619342 0.472632 0.000000 
0.559735 0.473151 0.000000 
0.737664 0.470916 0.000000 
0.678675 0.471840 0.000000 
0.678532 0.619149 0.000000 
0.678324 0.544987 0.000000 
0.737371 0.618526 0.000000 
0.853543 0.616916 0.000000 
0.795702 0.617768 0.000000 
0.795568 0.543390 0.000000 
0.937500 1.000000 0.000000 
0.868236 0.922839 0.000000 
0.746446 0.922963 0.000000 
0.807591 0.922958 0.000000 
0.812500 1.000000 0.000000 
0.803017 0.845973 0.000000 
0.740381 0.769679 0.000000 
0.500000 0.922942 0.000000 
0.561743 0.922938 0.000000 
0.562500 1.000000 0.000000 
0.560430 0.770202 0.000000 
0.561034 0.846317 0.000000 
0.500000 0.770249 0.000000 
0.687500 1.000000 0.000000 
0.623435 0.922941 0.000000 
0.685025 0.922950 0.000000 
0.559627 0.546017 0.000000 
0.500000 0.473317 0.000000 
0.679349 0.694184 0.000000 
0.619267 0.619619 0.000000 
0.500000 0.620031 0.000000 
0.559707 0.619916 0.000000 
0.559978 0.694693 0.000000 
0.682713 0.846234 0.000000 
0.620732 0.770099 0.000000 
0.680769 0.769933 0.000000 
0.437500 1.000000 0.000000 
0.438257 0.922938 0.000000 
0.314975 0.922950 0.000000 
0.376565 0.922941 0.000000 
0.312500 1.000000 0.000000 
0.438966 0.846317 0.000000 
0.439570 0.770202 0.000000 
0.072324 0.922114 0.000000 
0.131764 0.922839 0.000000 
0.062500 1.000000 0.000000 
0.259619 0.769679 0.000000 
0.196983 0.845973 0.000000 
0.200641 0.769253 0.000000 
0.187500 1.000000 0.000000 
0.192409 0.922958 0.000000 
0.253554 0.922963 0.000000 
0.440373 0.546017 0.000000 
0.440265 0.473151 0.000000 
0.440022 0.694693 0.000000 
0.440293 0.619916 0.000000 
0.321468 0.619149 0.000000 
0.380733 0.619619 0.000000 
0.320651 0.694184 0.000000 
0.317287 0.846234 0.000000 
0.319231 0.769933 0.000000 
0.379268 0.770099 0.000000 
0.016617 0.917355 0.000000 
0.080479 0.843895 0.000000 
0.088067 0.690881 0.000000 
0.085477 0.766770 0.000000 
0.028794 0.763986 0.000000 
0.142552 0.768428 0.000000 
0.203083 0.693104 0.000000 
0.084734 0.397761 0.000000 
0.086932 0.469625 0.000000 
0.028454 0.470987 0.000000 
0.203682 0.470048 0.000000 
0.145271 0.469493 0.000000 
0.202262 0.397783 0.000000 
0.031176 0.615842 0.000000 
0.088405 0.542397 0.000000 
0.088893 0.616124 0.000000 
0.380658 0.472632 0.000000 
0.439963 0.401487 0.000000 
0.262629 0.618526 0.000000 
0.321676 0.544987 0.000000 
0.320502 0.399827 0.000000 
0.321325 0.471840 0.000000 
0.262336 0.470916 0.000000 
0.146457 0.616916 0.000000 
0.204432 0.543390 0.000000 
0.204298 0.617768 0.000000 
0.022944 0.328910 0.000000 
0.082065 0.326763 0.000000 
0.076340 0.187350 0.000000 
0.079189 0.256620 0.000000 
0.016544 0.189460 0.000000 
0.141181 0.326168 0.000000 
0.200352 0.326623 0.000000 
0.070529 -0.014655 0.000000 
0.008285 -0.078957 0.000000 
0.194139 0.119735 0.000000 
0.132360 0.051542 0.000000 
0.011157 0.053044 0.000000 
0.071774 0.051610 0.000000 
0.073779 0.118989 0.000000 
0.379269 0.330313 0.000000 
0.259692 0.327707 0.000000 
0.319312 0.329051 0.000000 
0.317883 0.259599 0.000000 
0.256045 0.189308 0.000000 
0.136182 0.186854 0.000000 
0.196051 0.187617 0.000000 
0.198207 0.256570 0.000000 
0.038839 -0.142773 0.000000 
0.070056 -0.111489 0.000000 
0.038976 -0.111272 0.000000 
0.132224 -0.111295 0.000000 
0.101142 -0.111529 0.000000 
0.101356 -0.142987 0.000000 
0.100921 -0.047379 0.000000 
0.100960 -0.079648 0.000000 
0.131574 -0.047147 0.000000 
0.255856 -0.105891 0.000000 
0.225150 -0.108117 0.000000 
0.226972 -0.139532 0.000000 
0.222980 -0.044039 0.000000 
0.223807 -0.076244 0.000000 
0.253222 -0.041983 0.000000 
0.164138 -0.142141 0.000000 
0.194269 -0.109678 0.000000 
0.163278 -0.110705 0.000000 
0.223497 0.087264 0.000000 
0.222945 0.054081 0.000000 
0.253650 0.088642 0.000000 
0.162013 -0.013970 0.000000 
0.192427 0.019818 0.000000 
0.162171 0.018898 0.000000 
0.252803 0.022873 0.000000 
0.222628 0.021140 0.000000 
0.222614 -0.011568 0.000000 
0.162579 -0.078818 0.000000 
0.192621 -0.045540 0.000000 
0.162147 -0.046554 0.000000 
0.500000 -0.073793 0.000000 
0.468749 -0.074659 0.000000 
0.469334 -0.100785 0.000000 
0.468290 -0.019940 0.000000 
0.468421 -0.047730 0.000000 
0.500000 -0.019299 0.000000 
0.408762 -0.108176 0.000000 
0.437627 -0.077070 0.000000 
0.406760 -0.081005 0.000000 
0.468676 0.099382 0.000000 
0.468519 0.068441 0.000000 
0.500000 0.099660 0.000000 
0.405337 0.005008 0.000000 
0.436876 0.037013 0.000000 
0.405562 0.035167 0.000000 
0.500000 0.038625 0.000000 
0.468385 0.038197 0.000000 
0.468296 0.008717 0.000000 
0.289408 -0.134101 0.000000 
0.316421 -0.098583 0.000000 
0.286307 -0.102812 0.000000 
0.376241 -0.086380 0.000000 
0.346222 -0.092743 0.000000 
0.349933 -0.122375 0.000000 
0.343734 -0.032044 0.000000 
0.344472 -0.062582 0.000000 
0.374321 -0.028024 0.000000 
0.436696 -0.021688 0.000000 
0.405334 -0.024452 0.000000 
0.405718 -0.053141 0.000000 
0.469861 0.366339 0.000000 
[...]
POINT_DATA 1089

SCALARS u_h float 2
LOOKUP_TABLE default
0.007675 -0.142575 
-0.007675 -0.142575 
0.000000 0.000000 
0.000000 0.000000 
-0.000000 -0.099843 
-0.025885 -0.100313 
0.000000 0.000000 
0.025885 -0.100313 
-0.000000 -0.098382 
0.008289 -0.137275 
-0.000000 -0.118811 
0.004349 -0.128086 
-0.008289 -0.137275 
-0.004349 -0.128086 
-0.013601 -0.129177 
-0.011237 -0.101274 
-0.030816 -0.060544 
-0.011565 -0.056263 
0.000000 0.000000 
-0.000000 -0.055228 
0.000000 0.000000 
0.011565 -0.056263 
0.030816 -0.060544 
0.011237 -0.101274 
0.013601 -0.129177 
0.007724 -0.142739 
0.002803 -0.134663 
0.006586 -0.139546 
-0.000000 -0.115756 
-0.000722 -0.122886 
0.004198 -0.114449 
0.003254 -0.113753 
0.000963 -0.122028 
-0.000000 -0.112151 
-0.004198 -0.114449 
0.000722 -0.122886 
-0.006586 -0.139546 
-0.002803 -0.134663 
-0.007724 -0.142739 
-0.000963 -0.122028 
-0.003254 -0.113753 
-0.009384 -0.138653 
-0.008983 -0.131307 
-0.018476 -0.102677 
-0.013671 -0.118987 
-0.019742 -0.116163 
-0.007900 -0.117103 
-0.005093 -0.099180 
-0.030288 -0.081964 
-0.021352 -0.082313 
-0.012973 -0.029526 
-0.020297 -0.057821 
-0.024468 -0.035306 
-0.012849 -0.080789 
-0.005884 -0.079387 
0.000000 0.000000 
-0.006873 -0.028849 
0.000000 -0.028663 
-0.003028 -0.028716 
0.000000 0.000000 
-0.005189 -0.055502 
-0.000000 -0.078836 
0.000000 0.000000 
0.003028 -0.028716 
0.012973 -0.029526 
0.006873 -0.028849 
0.000000 0.000000 
0.005189 -0.055502 
0.005884 -0.079387 
0.024468 -0.035306 
0.020297 -0.057821 
0.018476 -0.102677 
0.021352 -0.082313 
0.030288 -0.081964 
0.012849 -0.080789 
0.005093 -0.099180 
0.019742 -0.116163 
0.013671 -0.118987 
0.008983 -0.131307 
0.009384 -0.138653 
0.007900 -0.117103 
0.007557 -0.142965 
0.006804 -0.141913 
0.007573 -0.142097 
0.004192 -0.136579 
0.005758 -0.140290 
0.008068 -0.141106 
0.005282 -0.134623 
0.004856 -0.137992 
0.003113 -0.131866 
-0.000000 -0.109473 
-0.000544 -0.112303 
0.001340 -0.103588 
-0.000369 -0.120026 
-0.000793 -0.117729 
-0.000000 -0.118715 
0.007611 -0.129575 
-0.000151 -0.120051 
0.001938 -0.129854 
0.002033 -0.106311 
0.001504 -0.112570 
-0.000000 -0.106028 
0.002361 -0.125121 
0.002123 -0.118744 
0.003847 -0.120969 
-0.000000 -0.116504 
0.000898 -0.117105 
0.000251 -0.119688 
0.000683 -0.129366 
-0.000085 -0.123463 
0.001160 -0.127880 
-0.001340 -0.103588 
0.000544 -0.112303 
-0.001938 -0.129854 
0.000151 -0.120051 
-0.007611 -0.129575 
0.000793 -0.117729 
0.000369 -0.120026 
-0.007573 -0.142097 
-0.006804 -0.141913 
-0.007557 -0.142965 
-0.003113 -0.131866 
-0.004856 -0.137992 
-0.005282 -0.134623 
-0.008068 -0.141106 
-0.005758 -0.140290 
-0.004192 -0.136579 
-0.001504 -0.112570 
-0.002033 -0.106311 
-0.000251 -0.119688 
-0.000898 -0.117105 
-0.003847 -0.120969 
-0.002123 -0.118744 
-0.002361 -0.125121 
-0.000683 -0.129366 
-0.001160 -0.127880 
0.000085 -0.123463 
-0.008285 -0.141457 
-0.008029 -0.139655 
-0.011279 -0.131011 
-0.009274 -0.135890 
-0.011157 -0.134456 
-0.007360 -0.135958 
-0.006639 -0.130265 
-0.022234 -0.102239 
-0.019565 -0.110737 
-0.022944 -0.108590 
-0.012852 -0.110877 
-0.016181 -0.111332 
-0.014762 -0.102217 
-0.016544 -0.123040 
-0.016689 -0.118380 
-0.013840 -0.125150 
-0.004269 -0.107187 
-0.002463 -0.098513 
-0.006045 -0.123192 
-0.005383 -0.115401 
-0.008002 -0.100173 
-0.006812 -0.108449 
-0.009692 -0.109793 
-0.011182 -0.125646 
-0.010707 -0.118430 
-0.008551 -0.124883 
-0.028454 -0.091513 
-0.024432 -0.092875 
-0.026393 -0.071376 
-0.025905 -0.082603 
-0.031176 -0.071658 
-0.020271 -0.093007 
-0.016182 -0.092452 
-0.009824 -0.015386 
-0.017979 -0.031105 
-0.016617 -0.020145 
-0.015583 -0.056896 
-0.017552 -0.044072 
-0.013141 -0.043247 
-0.028794 -0.048514 
-0.022977 -0.045730 
-0.025567 -0.059119 
-0.005658 -0.089868 
-0.002765 -0.089349 
-0.012336 -0.091584 
-0.008825 -0.090660 
-0.008968 -0.068351 
-0.009176 -0.080013 
-0.012629 -0.068974 
-0.021457 -0.070584 
-0.016798 -0.069732 
-0.016932 -0.081610 
0.000000 0.000000 
-0.006764 -0.014661 
-0.003554 -0.014537 
-0.004909 -0.014542 
0.000000 0.000000 
-0.009483 -0.029027 
-0.009619 -0.042821 
0.000000 -0.014558 
-0.000757 -0.014562 
0.000000 0.000000 
-0.002070 -0.042298 
-0.001466 -0.028683 
0.000000 -0.042251 
0.000000 0.000000 
-0.001565 -0.014559 
-0.002475 -0.014550 
-0.002873 -0.078983 
-0.000000 -0.089183 
-0.008151 -0.055816 
-0.005733 -0.067881 
-0.000000 -0.067469 
-0.002793 -0.067584 
-0.002522 -0.055307 
-0.004787 -0.028766 
-0.004268 -0.042401 
-0.006731 -0.042567 
0.000000 0.000000 
0.000757 -0.014562 
0.002475 -0.014550 
0.001565 -0.014559 
0.000000 0.000000 
0.001466 -0.028683 
0.002070 -0.042298 
0.009824 -0.015386 
0.006764 -0.014661 
0.000000 0.000000 
0.009619 -0.042821 
0.009483 -0.029027 
0.013141 -0.043247 
0.000000 0.000000 
0.004909 -0.014542 
0.003554 -0.014537 
0.002873 -0.078983 
0.002765 -0.089349 
0.002522 -0.055307 
0.002793 -0.067584 
0.008968 -0.068351 
0.005733 -0.067881 
0.008151 -0.055816 
0.004787 -0.028766 
0.006731 -0.042567 
0.004268 -0.042401 
0.016617 -0.020145 
0.017979 -0.031105 
0.025567 -0.059119 
0.022977 -0.045730 
0.028794 -0.048514 
0.017552 -0.044072 
0.015583 -0.056896 
0.022234 -0.102239 
0.024432 -0.092875 
0.028454 -0.091513 
0.016182 -0.092452 
0.020271 -0.093007 
0.014762 -0.102217 
0.031176 -0.071658 
0.025905 -0.082603 
0.026393 -0.071376 
0.005658 -0.089868 
0.002463 -0.098513 
0.012629 -0.068974 
0.009176 -0.080013 
0.008002 -0.100173 
0.008825 -0.090660 
0.012336 -0.091584 
0.021457 -0.070584 
0.016932 -0.081610 
0.016798 -0.069732 
0.022944 -0.108590 
0.019565 -0.110737 
0.013840 -0.125150 
0.016689 -0.118380 
0.016544 -0.123040 
0.016181 -0.111332 
0.012852 -0.110877 
0.008029 -0.139655 
0.008285 -0.141457 
0.006639 -0.130265 
0.007360 -0.135958 
0.011157 -0.134456 
0.009274 -0.135890 
0.011279 -0.131011 
0.004269 -0.107187 
0.009692 -0.109793 
0.006812 -0.108449 
0.005383 -0.115401 
0.006045 -0.123192 
0.011182 -0.125646 
0.008551 -0.124883 
0.010707 -0.118430 
0.007589 -0.142773 
0.007556 -0.142739 
0.007726 -0.142522 
0.007224 -0.142545 
0.007392 -0.142779 
0.007606 -0.142987 
0.007171 -0.141129 
0.007210 -0.142148 
0.006574 -0.140897 
0.005856 -0.137141 
0.006400 -0.139367 
0.008222 -0.139532 
0.004230 -0.137789 
0.005057 -0.138744 
0.003222 -0.135733 
0.007888 -0.142141 
0.006769 -0.140928 
0.007028 -0.141955 
0.004747 -0.131486 
0.004195 -0.133419 
0.003650 -0.130108 
0.005763 -0.138970 
0.004927 -0.136432 
0.005921 -0.137352 
0.002803 -0.133377 
0.003878 -0.135110 
0.003864 -0.136568 
0.006329 -0.141318 
0.005121 -0.139290 
0.005897 -0.140304 
-0.000000 -0.105043 
-0.000001 -0.105909 
0.000584 -0.100785 
-0.000460 -0.113690 
-0.000329 -0.110230 
-0.000000 -0.113049 
0.002512 -0.108176 
0.000127 -0.108320 
0.000510 -0.112255 
-0.000074 -0.119368 
-0.000231 -0.119059 
-0.000000 -0.119090 
-0.000913 -0.119992 
-0.000624 -0.119237 
-0.000688 -0.121083 
-0.000000 -0.117625 
-0.000365 -0.118053 
-0.000454 -0.116283 
0.008158 -0.134101 
0.003921 -0.129833 
0.005057 -0.134062 
0.001241 -0.117630 
0.002472 -0.123993 
0.006183 -0.122375 
-0.000016 -0.125794 
0.000722 -0.125082 
-0.000679 -0.121774 
-0.000804 -0.115438 
-0.000916 -0.118202 
-0.000532 -0.115641 
0.001111 -0.102411 
0.000999 -0.106089 
-0.000000 -0.102379 
0.002337 -0.113081 
0.001780 -0.109644 
0.002744 -0.110080 
-0.000000 -0.109296 
0.000873 -0.109378 
0.000734 -0.112254 
0.003298 -0.126669 
0.003086 -0.123222 
0.004070 -0.124552 
0.001539 -0.120608 
0.002237 -0.121877 
0.001575 -0.123536 
0.003601 -0.117372 
0.002919 -0.119819 
0.002698 -0.116454 
-0.000000 -0.117933 
0.000260 -0.118118 
0.000092 -0.119037 
0.000584 -0.114690 
0.000426 -0.116656 
-0.000000 -0.114565 
0.000528 -0.120711 
0.000576 -0.118657 
0.000992 -0.119508 
0.001905 -0.115667 
0.001454 -0.117818 
0.001209 -0.115066 
0.003144 -0.133664 
-0.000174 -0.126134 
0.000988 -0.129711 
0.002118 -0.133053 
0.001716 -0.132254 
-0.000069 -0.120159 
0.000412 -0.122986 
0.000077 -0.121399 
-0.000339 -0.121536 
-0.000486 -0.123438 
0.002619 -0.128478 
0.001748 -0.131245 
0.002080 -0.129996 
0.001705 -0.126670 
0.000957 -0.124792 
0.000016 -0.126087 
0.000420 -0.125642 
0.000788 -0.128770 
-0.000584 -0.100785 
0.000001 -0.105909 
-0.000510 -0.112255 
-0.000127 -0.108320 
-0.002512 -0.108176 
0.000329 -0.110230 
0.000460 -0.113690 
-0.005057 -0.134062 
-0.003921 -0.129833 
-0.008158 -0.134101 
0.000679 -0.121774 
-0.000722 -0.125082 
0.000016 -0.125794 
-0.006183 -0.122375 
-0.002472 -0.123993 
-0.001241 -0.117630 
0.000231 -0.119059 
0.000074 -0.119368 
0.000454 -0.116283 
0.000365 -0.118053 
0.000688 -0.121083 
0.000624 -0.119237 
0.000913 -0.119992 
0.000532 -0.115641 
0.000916 -0.118202 
0.000804 -0.115438 
-0.007726 -0.142522 
-0.007556 -0.142739 
-0.007589 -0.142773 
-0.006574 -0.140897 
-0.007210 -0.142148 
-0.007171 -0.141129 
-0.007606 -0.142987 
-0.007392 -0.142779 
-0.007224 -0.142545 
-0.003650 -0.130108 
-0.004195 -0.133419 
-0.004747 -0.131486 
-0.003864 -0.136568 
-0.003878 -0.135110 
-0.002803 -0.133377 
-0.005921 -0.137352 
-0.004927 -0.136432 
-0.005763 -0.138970 
-0.008222 -0.139532 
-0.006400 -0.139367 
-0.005856 -0.137141 
-0.007028 -0.141955 
-0.006769 -0.140928 
-0.007888 -0.142141 
-0.003222 -0.135733 
-0.005057 -0.138744 
-0.004230 -0.137789 
-0.005897 -0.140304 
-0.005121 -0.139290 
-0.006329 -0.141318 
-0.000999 -0.106089 
-0.001111 -0.102411 
-0.000734 -0.112254 
-0.000873 -0.109378 
-0.002744 -0.110080 
-0.001780 -0.109644 
-0.002337 -0.113081 
-0.000092 -0.119037 
-0.000260 -0.118118 
-0.000992 -0.119508 
-0.000576 -0.118657 
-0.000528 -0.120711 
-0.000426 -0.116656 
-0.000584 -0.114690 
-0.004070 -0.124552 
-0.003086 -0.123222 
-0.003298 -0.126669 
-0.002698 -0.116454 
-0.002919 -0.119819 
-0.003601 -0.117372 
-0.001575 -0.123536 
-0.002237 -0.121877 
-0.001539 -0.120608 
-0.001209 -0.115066 
-0.001454 -0.117818 
-0.001905 -0.115667 
-0.003144 -0.133664 
-0.001716 -0.132254 
-0.002118 -0.133053 
-0.000988 -0.129711 
0.000174 -0.126134 
-0.002619 -0.128478 
-0.000957 -0.124792 
-0.001705 -0.126670 
-0.002080 -0.129996 
-0.001748 -0.131245 
0.000069 -0.120159 
0.000486 -0.123438 
0.000339 -0.121536 
-0.000077 -0.121399 
-0.000412 -0.122986 
-0.000788 -0.128770 
-0.000420 -0.125642 
-0.000016 -0.126087 
-0.007924 -0.142240 
-0.007919 -0.141840 
-0.008698 -0.139273 
-0.008228 -0.140745 
-0.008760 -0.140250 
-0.007712 -0.141058 
-0.007335 -0.139760 
-0.012425 -0.130303 
-0.011233 -0.132949 
-0.012303 -0.131935 
-0.009147 -0.133846 
-0.010192 -0.133580 
-0.010137 -0.131337 
-0.010181 -0.136707 
-0.010203 -0.135344 
-0.009354 -0.137461 
-0.005869 -0.132569 
-0.005475 -0.129302 
-0.006853 -0.137891 
-0.006342 -0.135469 
-0.007814 -0.130942 
-0.006986 -0.133332 
-0.008081 -0.133760 
-0.008549 -0.137923 
-0.008334 -0.136096 
-0.007723 -0.138074 
-0.024081 -0.101513 
-0.022707 -0.105796 
-0.024468 -0.104541 
-0.019155 -0.107015 
-0.020937 -0.106595 
-0.020359 -0.102601 
-0.021358 -0.112463 
-0.021255 -0.109892 
-0.019745 -0.113795 
-0.012148 -0.106231 
-0.013850 -0.106686 
-0.012968 -0.101784 
-0.014939 -0.115285 
-0.014503 -0.111208 
-0.013354 -0.115150 
-0.016604 -0.102530 
-0.015596 -0.107002 
-0.017369 -0.107130 
-0.015025 -0.126206 
-0.015179 -0.124323 
-0.013751 -0.127423 
-0.018209 -0.117504 
-0.016676 -0.121015 
-0.018127 -0.119690 
-0.013824 -0.122334 
-0.015245 -0.121876 
-0.015177 -0.118855 
-0.017872 -0.111195 
-0.016536 -0.115142 
-0.018139 -0.114667 
-0.002261 -0.102593 
-0.001220 -0.098360 
-0.003781 -0.110659 
-0.003118 -0.106685 
-0.003749 -0.098794 
-0.003455 -0.102916 
-0.004709 -0.103355 
-0.005161 -0.125785 
-0.004896 -0.122117 
-0.006597 -0.116273 
-0.005747 -0.119358 
-0.006968 -0.120299 
-0.004620 -0.118361 
-0.004268 -0.114543 
-0.009579 -0.100726 
-0.008936 -0.105083 
-0.010506 -0.105683 
-0.006037 -0.103884 
-0.007445 -0.104472 
-0.006508 -0.099648 
-0.008816 -0.113600 
-0.008212 -0.109131 
-0.007426 -0.112863 
-0.004904 -0.111345 
-0.006119 -0.112095 
-0.005498 -0.107787 
-0.012506 -0.128198 
-0.012408 -0.122441 
-0.012510 -0.125576 
-0.011269 -0.128578 
-0.010029 -0.128601 
-0.011243 -0.110390 
-0.009276 -0.117839 
-0.010278 -0.114259 
-0.011796 -0.114792 
-0.012177 -0.118829 
-0.006330 -0.126854 
-0.008785 -0.128300 
-0.007546 -0.127706 
-0.007272 -0.124132 
-0.008264 -0.121128 
-0.011002 -0.122246 
-0.009615 -0.121793 
-0.009860 -0.125402 
-0.027256 -0.096009 
-0.025356 -0.097051 
-0.027409 -0.087521 
-0.026473 -0.092388 
-0.029474 -0.086831 
-0.023408 -0.097669 
-0.021432 -0.097949 
-0.028726 -0.065867 
-0.028836 -0.071626 
-0.031175 -0.066207 
-0.023630 -0.082536 
-0.026291 -0.077113 
-0.023914 -0.076899 
-0.030868 -0.076907 
-0.028625 -0.077147 
-0.028138 -0.082442 
-0.015542 -0.097471 
-0.013662 -0.097051 
-0.019447 -0.097969 
-0.017477 -0.097792 
-0.018759 -0.087521 
-0.018206 -0.092788 
-0.020917 -0.087788 
-0.025274 -0.087855 
-0.023099 -0.087920 
-0.022356 -0.093056 
-0.006286 -0.008113 
-0.012620 -0.016805 
-0.010391 -0.011112 
-0.015242 -0.030096 
-0.014323 -0.023342 
-0.011890 -0.022495 
-0.021107 -0.028064 
-0.017476 -0.025041 
-0.021150 -0.032780 
-0.013490 -0.056551 
-0.014520 -0.050161 
-0.012519 -0.049859 
-0.019142 -0.051063 
-0.016724 -0.050551 
-0.017853 -0.057314 
-0.013333 -0.036457 
-0.015219 -0.043587 
-0.015497 -0.036877 
-0.030046 -0.054655 
-0.027338 -0.053574 
-0.028247 -0.059857 
-0.023904 -0.040077 
-0.025923 -0.046993 
-0.026974 -0.042086 
-0.022887 -0.058426 
-0.024527 -0.052573 
-0.021761 -0.051731 
-0.017993 -0.037544 
-0.020149 -0.044766 
-0.020828 -0.038575 
-0.002639 -0.094091 
-0.001320 -0.093955 
-0.005415 -0.094678 
-0.003999 -0.094338 
-0.004303 -0.084499 
-0.004184 -0.089567 
-0.005817 -0.084765 
-0.011849 -0.096572 
-0.010116 -0.096066 
-0.010823 -0.085886 
-0.010536 -0.091116 
-0.012675 -0.086320 
-0.008466 -0.095565 
-0.006901 -0.095094 
-0.010358 -0.062433 
-0.010739 -0.068645 
-0.012207 -0.062721 
-0.007488 -0.079676 
-0.009146 -0.074301 
-0.007458 -0.074005 
-0.012838 -0.075002 
-0.010937 -0.074635 
-0.010961 -0.080388 
-0.007202 -0.090238 
-0.009066 -0.085472 
-0.007400 -0.085093 
-0.026169 -0.065382 
-0.021055 -0.064331 
-0.023587 -0.064850 
-0.023913 -0.071006 
-0.021544 -0.076578 
-0.014197 -0.063051 
-0.014856 -0.075393 
-0.014648 -0.069337 
-0.016337 -0.063427 
-0.018628 -0.063853 
-0.014221 -0.092039 
-0.019109 -0.081990 
-0.016654 -0.087164 
-0.014621 -0.086754 
-0.014840 -0.081202 
-0.019074 -0.070151 
-0.016988 -0.075796 
-0.019224 -0.076199 
0.000000 0.000000 
-0.004840 -0.007545 
-0.003359 -0.007293 
-0.003979 -0.007359 
0.000000 0.000000 
-0.008051 -0.014871 
-0.010025 -0.022093 
-0.001784 -0.007294 
-0.002099 -0.007283 
0.000000 0.000000 
-0.006206 -0.021751 
-0.004188 -0.014534 
-0.005265 -0.021726 
0.000000 0.000000 
-0.002455 -0.007275 
-0.002867 -0.007274 
-0.011286 -0.043003 
-0.010701 -0.049621 
-0.011085 -0.029208 
-0.011453 -0.036189 
-0.008335 -0.035888 
-0.009802 -0.036012 
-0.008095 -0.028918 
-0.005750 -0.014574 
-0.007279 -0.021800 
-0.008528 -0.021897 
0.000000 -0.007333 
-0.000189 -0.007334 
0.000000 0.000000 
-0.000556 -0.021675 
-0.000375 -0.014561 
0.000000 -0.021670 
0.000000 0.000000 
-0.000381 -0.007334 
-0.000579 -0.007331 
-0.001150 -0.048844 
-0.001027 -0.042268 
0.000000 -0.048823 
-0.002229 -0.028698 
-0.001785 -0.035559 
-0.002712 -0.035587 
0.000000 -0.035527 
-0.000885 -0.035539 
-0.000727 -0.028671 
0.000000 0.000000 
-0.001244 -0.007314 
-0.001501 -0.007305 
-0.000787 -0.007327 
-0.001008 -0.007322 
0.000000 0.000000 
-0.002966 -0.021697 
-0.002003 -0.014555 
-0.002317 -0.021691 
-0.001122 -0.021681 
-0.001706 -0.021686 
-0.001152 -0.014561 
-0.001379 -0.089221 
-0.000000 -0.093932 
-0.004352 -0.079154 
-0.002842 -0.084305 
-0.000000 -0.084145 
-0.001415 -0.084188 
-0.001429 -0.078877 
-0.009792 -0.056021 
-0.008637 -0.062183 
-0.005510 -0.061791 
-0.007027 -0.061969 
-0.006623 -0.055644 
-0.007305 -0.068096 
-0.005858 -0.073753 
-0.000000 -0.061449 
-0.001331 -0.061479 
-0.001252 -0.055253 
-0.001420 -0.073309 
-0.001387 -0.067503 
-0.000000 -0.073271 
-0.003828 -0.055390 
-0.002681 -0.061546 
-0.004068 -0.061650 
-0.004330 -0.073551 
-0.004235 -0.067710 
-0.002857 -0.073403 
-0.002988 -0.014543 
-0.003876 -0.028739 
-0.003665 -0.021703 
-0.004425 -0.021712 
-0.005779 -0.028801 
-0.002317 -0.048886 
-0.004773 -0.049033 
-0.003519 -0.048948 
-0.003145 -0.042342 
-0.003683 -0.035624 
-0.009040 -0.049429 
-0.007016 -0.035797 
-0.008110 -0.042680 
-0.007513 -0.049270 
-0.006098 -0.049140 
-0.004711 -0.035670 
-0.005457 -0.042475 
-0.005816 -0.035726 
0.000000 0.000000 
0.000189 -0.007334 
0.000579 -0.007331 
0.000381 -0.007334 
0.000000 0.000000 
0.000375 -0.014561 
0.000556 -0.021675 
0.001501 -0.007305 
0.001244 -0.007314 
0.000000 0.000000 
0.002317 -0.021691 
0.002003 -0.014555 
0.002966 -0.021697 
0.000000 0.000000 
0.001008 -0.007322 
0.000787 -0.007327 
0.001027 -0.042268 
0.001150 -0.048844 
0.000727 -0.028671 
0.000885 -0.035539 
0.002712 -0.035587 
0.001785 -0.035559 
0.002229 -0.028698 
0.001152 -0.014561 
0.001706 -0.021686 
0.001122 -0.021681 
0.006286 -0.008113 
0.004840 -0.007545 
0.000000 0.000000 
0.010025 -0.022093 
0.008051 -0.014871 
0.011890 -0.022495 
0.000000 0.000000 
0.003979 -0.007359 
0.003359 -0.007293 
0.010701 -0.049621 
0.011286 -0.043003 
0.012519 -0.049859 
0.008095 -0.028918 
0.009802 -0.036012 
0.008335 -0.035888 
0.013333 -0.036457 
0.011453 -0.036189 
0.011085 -0.029208 
0.000000 0.000000 
0.002099 -0.007283 
0.001784 -0.007294 
0.002867 -0.007274 
0.002455 -0.007275 
0.000000 0.000000 
0.005265 -0.021726 
0.004188 -0.014534 
0.006206 -0.021751 
0.008528 -0.021897 
0.007279 -0.021800 
0.005750 -0.014574 
0.001379 -0.089221 
0.001320 -0.093955 
0.001429 -0.078877 
0.001415 -0.084188 
0.004303 -0.084499 
0.002842 -0.084305 
0.004352 -0.079154 
0.001252 -0.055253 
0.001331 -0.061479 
0.004068 -0.061650 
0.002681 -0.061546 
0.003828 -0.055390 
0.001387 -0.067503 
0.001420 -0.073309 
0.010358 -0.062433 
0.008637 -0.062183 
0.009792 -0.056021 
0.005858 -0.073753 
0.007305 -0.068096 
0.007458 -0.074005 
0.006623 -0.055644 
0.007027 -0.061969 
0.005510 -0.061791 
0.002857 -0.073403 
0.004235 -0.067710 
0.004330 -0.073551 
0.002988 -0.014543 
0.005779 -0.028801 
0.004425 -0.021712 
0.003665 -0.021703 
0.003876 -0.028739 
0.009040 -0.049429 
0.006098 -0.049140 
0.007513 -0.049270 
0.008110 -0.042680 
0.007016 -0.035797 
0.002317 -0.048886 
0.003683 -0.035624 
0.003145 -0.042342 
0.003519 -0.048948 
0.004773 -0.049033 
0.005816 -0.035726 
0.005457 -0.042475 
0.004711 -0.035670 
0.010391 -0.011112 
0.012620 -0.016805 
0.021150 -0.032780 
0.017476 -0.025041 
0.021107 -0.028064 
0.014323 -0.023342 
0.015242 -0.030096 
0.028247 -0.059857 
0.027338 -0.053574 
0.030046 -0.054655 
0.021761 -0.051731 
0.024527 -0.052573 
0.022887 -0.058426 
0.026974 -0.042086 
0.025923 -0.046993 
0.023904 -0.040077 
0.014520 -0.050161 
0.013490 -0.056551 
0.015497 -0.036877 
0.015219 -0.043587 
0.017853 -0.057314 
0.016724 -0.050551 
0.019142 -0.051063 
0.020828 -0.038575 
0.020149 -0.044766 
0.017993 -0.037544 
0.024081 -0.101513 
0.025356 -0.097051 
0.027256 -0.096009 
0.021432 -0.097949 
0.023408 -0.097669 
0.020359 -0.102601 
0.029474 -0.086831 
0.026473 -0.092388 
0.027409 -0.087521 
0.013662 -0.097051 
0.015542 -0.097471 
0.012968 -0.101784 
0.020917 -0.087788 
0.018206 -0.092788 
0.018759 -0.087521 
0.016604 -0.102530 
0.017477 -0.097792 
0.019447 -0.097969 
0.031175 -0.066207 
0.028836 -0.071626 
0.028726 -0.065867 
0.028138 -0.082442 
0.028625 -0.077147 
0.030868 -0.076907 
0.023914 -0.076899 
0.026291 -0.077113 
0.023630 -0.082536 
0.022356 -0.093056 
0.023099 -0.087920 
0.025274 -0.087855 
0.002639 -0.094091 
0.001220 -0.098360 
0.005817 -0.084765 
0.004184 -0.089567 
0.003749 -0.098794 
0.003999 -0.094338 
0.005415 -0.094678 
0.012207 -0.062721 
0.010739 -0.068645 
0.010961 -0.080388 
0.010937 -0.074635 
0.012838 -0.075002 
0.009146 -0.074301 
0.007488 -0.079676 
0.009579 -0.100726 
0.010116 -0.096066 
0.011849 -0.096572 
0.006901 -0.095094 