# vtk DataFile Version 2.0
Unstructured Grid Example
ASCII
DATASET UNSTRUCTURED_GRID

POINTS 32 float
0.000000 0.000000 0.000000 
0.062500 0.000000 0.000000 
0.062500 0.000000 0.000000 
0.125000 0.000000 0.000000 
0.125000 1.501990 0.000000 
0.187500 -3.003981 0.000000 
0.187500 3.327085 0.000000 
0.250000 -11.160142 0.000000 
0.375000 -9.445333 0.000000 
0.437500 -13.348229 0.000000 
0.437500 -11.944458 0.000000 
0.500000 -12.252876 0.000000 
0.250000 -3.903420 0.000000 
0.312500 -11.186359 0.000000 
0.312500 -6.771127 0.000000 
0.375000 -12.733884 0.000000 
0.500000 -12.252876 0.000000 
0.562500 -11.944458 0.000000 
0.562500 -13.348229 0.000000 
0.625000 -9.445333 0.000000 
0.625000 -12.733884 0.000000 
0.687500 -6.771127 0.000000 
0.687500 -11.186359 0.000000 
0.750000 -3.903420 0.000000 
0.875000 0.000000 0.000000 
0.937500 0.000000 0.000000 
0.937500 0.000000 0.000000 
1.000000 0.000000 0.000000 
0.750000 -11.160142 0.000000 
0.812500 3.327085 0.000000 
0.812500 -3.003981 0.000000 
0.875000 1.501990 0.000000 

CELLS 16 48
2  0 1 
2  2 3 
2  4 5 
2  6 7 
2  8 9 
2  10 11 
2  12 13 
2  14 15 
2  16 17 
2  18 19 
2  20 21 
2  22 23 
2  24 25 
2  26 27 
2  28 29 
2  30 31 

CELL_TYPES 16
3
3
3
3
3
3
3
3
3
3
3
3
3
3
3
3

POINT_DATA 32

SCALARS lambda_h float 1
LOOKUP_TABLE default
0.000000 
0.000000 
0.000000 
0.000000 
1.501990 
-3.003981 
3.327085 
-11.160142 
-9.445333 
-13.348229 
-11.944458 
-12.252876 
-3.903420 
-11.186359 
-6.771127 
-12.733884 
-12.252876 
-11.944458 
-13.348229 
-9.445333 
-12.733884 
-6.771127 
-11.186359 
-3.903420 
0.000000 
0.000000 
0.000000 
0.000000 
-11.160142 
3.327085 
-3.003981 
1.501990 

