# vtk DataFile Version 2.0
Unstructured Grid Example
ASCII
DATASET UNSTRUCTURED_GRID

POINTS 256 float
0.000000 0.000000 0.000000 
0.007812 0.000000 0.000000 
0.007812 0.000000 0.000000 
0.015625 0.000000 0.000000 
0.015625 0.000000 0.000000 
0.023438 0.000000 0.000000 
0.023438 0.000000 0.000000 
0.031250 0.000000 0.000000 
0.046875 0.000000 0.000000 
0.054688 0.000000 0.000000 
0.054688 0.000000 0.000000 
0.062500 0.000000 0.000000 
0.031250 0.000000 0.000000 
0.039062 0.000000 0.000000 
0.039062 0.000000 0.000000 
0.046875 0.000000 0.000000 
0.109375 0.000000 0.000000 
0.117188 0.000000 0.000000 
0.117188 0.000000 0.000000 
0.125000 0.000000 0.000000 
0.093750 0.000000 0.000000 
0.101562 0.000000 0.000000 
0.101562 0.000000 0.000000 
0.109375 0.000000 0.000000 
0.062500 0.000000 0.000000 
0.070312 0.000000 0.000000 
0.070312 0.000000 0.000000 
0.078125 0.000000 0.000000 
0.078125 0.000000 0.000000 
0.085938 0.000000 0.000000 
0.085938 0.000000 0.000000 
0.093750 0.000000 0.000000 
0.234375 -4.760036 0.000000 
0.242188 -5.852870 0.000000 
0.242188 -5.135089 0.000000 
0.250000 -6.195598 0.000000 
0.218750 -3.960551 0.000000 
0.226562 -5.140314 0.000000 
0.226562 -4.369806 0.000000 
0.234375 -5.501568 0.000000 
0.187500 -1.962482 0.000000 
0.195312 -3.555415 0.000000 
0.195312 -2.548461 0.000000 
0.203125 -3.976390 0.000000 
0.203125 -3.060517 0.000000 
0.210938 -4.380206 0.000000 
0.210938 -3.526815 0.000000 
0.218750 -4.767300 0.000000 
0.125000 0.000000 0.000000 
0.132812 0.000000 0.000000 
0.132812 0.000000 0.000000 
0.140625 0.000000 0.000000 
0.140625 0.000000 0.000000 
0.148438 0.000000 0.000000 
0.148438 0.000000 0.000000 
0.156250 0.000000 0.000000 
0.171875 1.787119 0.000000 
0.179688 -3.658829 0.000000 
0.179688 -1.193567 0.000000 
0.187500 -3.143406 0.000000 
0.156250 0.000000 0.000000 
0.164062 0.000000 0.000000 
0.164062 0.028197 0.000000 
0.171875 -0.056394 0.000000 
0.484375 -12.643086 0.000000 
0.492188 -12.727169 0.000000 
0.492188 -12.765494 0.000000 
0.500000 -12.566436 0.000000 
0.468750 -12.496472 0.000000 
0.476562 -12.689238 0.000000 
0.476562 -12.578851 0.000000 
0.484375 -12.717245 0.000000 
0.437500 -11.998074 0.000000 
0.445312 -12.395439 0.000000 
0.445312 -12.146734 0.000000 
0.453125 -12.495484 0.000000 
0.453125 -12.279806 0.000000 
0.460938 -12.578090 0.000000 
0.460938 -12.396597 0.000000 
0.468750 -12.642792 0.000000 
0.375000 -10.341266 0.000000 
0.382812 -11.046461 0.000000 
0.382812 -10.586429 0.000000 
0.390625 -11.261332 0.000000 
0.390625 -10.822253 0.000000 
0.398438 -11.464586 0.000000 
0.398438 -11.048004 0.000000 
0.406250 -11.655418 0.000000 
0.421875 -11.657007 0.000000 
0.429688 -12.145322 0.000000 
0.429688 -11.834572 0.000000 
0.437500 -12.278508 0.000000 
0.406250 -11.262912 0.000000 
0.414062 -11.833016 0.000000 
0.414062 -11.466183 0.000000 
0.421875 -11.996577 0.000000 
0.250000 -5.497745 0.000000 
0.257812 -6.530795 0.000000 
0.257812 -5.850050 0.000000 
0.265625 -6.859234 0.000000 
0.265625 -6.193520 0.000000 
0.273438 -7.181479 0.000000 
0.273438 -6.529282 0.000000 
0.281250 -7.497914 0.000000 
0.296875 -7.497513 0.000000 
0.304688 -8.414088 0.000000 
0.304688 -7.808634 0.000000 
0.312500 -8.708422 0.000000 
0.281250 -6.858168 0.000000 
0.289062 -7.808776 0.000000 
0.289062 -7.180775 0.000000 
0.296875 -8.114169 0.000000 
0.359375 -9.825637 0.000000 
0.367188 -10.585022 0.000000 
0.367188 -10.087456 0.000000 
0.375000 -10.820769 0.000000 
0.343750 -9.280234 0.000000 
0.351562 -10.086250 0.000000 
0.351562 -9.556391 0.000000 
0.359375 -10.339953 0.000000 
0.312500 -8.114256 0.000000 
0.320312 -8.996966 0.000000 
0.320312 -8.414379 0.000000 
0.328125 -9.279429 0.000000 
0.328125 -8.708899 0.000000 
0.335938 -9.555440 0.000000 
0.335938 -8.997613 0.000000 
0.343750 -9.824553 0.000000 
0.500000 -12.566436 0.000000 
0.507812 -12.765494 0.000000 
0.507812 -12.727169 0.000000 
0.515625 -12.643086 0.000000 
0.515625 -12.717245 0.000000 
0.523438 -12.578851 0.000000 
0.523438 -12.689238 0.000000 
0.531250 -12.496472 0.000000 
0.546875 -12.495484 0.000000 
0.554688 -12.146734 0.000000 
0.554688 -12.395439 0.000000 
0.562500 -11.998074 0.000000 
0.531250 -12.642792 0.000000 
0.539062 -12.396597 0.000000 
0.539062 -12.578090 0.000000 
0.546875 -12.279806 0.000000 
0.609375 -11.261332 0.000000 
0.617188 -10.586429 0.000000 
0.617188 -11.046461 0.000000 
0.625000 -10.341266 0.000000 
0.593750 -11.655418 0.000000 
0.601562 -11.048004 0.000000 
0.601562 -11.464586 0.000000 
0.609375 -10.822253 0.000000 
0.562500 -12.278508 0.000000 
0.570312 -11.834572 0.000000 
0.570312 -12.145322 0.000000 
0.578125 -11.657007 0.000000 
0.578125 -11.996577 0.000000 
0.585938 -11.466183 0.000000 
0.585938 -11.833016 0.000000 
0.593750 -11.262912 0.000000 
0.734375 -6.859234 0.000000 
0.742188 -5.850050 0.000000 
0.742188 -6.530795 0.000000 
0.750000 -5.497745 0.000000 
0.718750 -7.497914 0.000000 
0.726562 -6.529282 0.000000 
0.726562 -7.181479 0.000000 
0.734375 -6.193520 0.000000 
0.687500 -8.708422 0.000000 
0.695312 -7.808634 0.000000 
0.695312 -8.414088 0.000000 
0.703125 -7.497513 0.000000 
0.703125 -8.114169 0.000000 
0.710938 -7.180775 0.000000 
0.710938 -7.808776 0.000000 
0.718750 -6.858168 0.000000 
0.625000 -10.820769 0.000000 
0.632812 -10.087456 0.000000 
0.632812 -10.585022 0.000000 
0.640625 -9.825637 0.000000 
0.640625 -10.339953 0.000000 
0.648438 -9.556391 0.000000 
0.648438 -10.086250 0.000000 
0.656250 -9.280234 0.000000 
0.671875 -9.279429 0.000000 
0.679688 -8.414379 0.000000 
0.679688 -8.996966 0.000000 
0.687500 -8.114256 0.000000 
0.656250 -9.824553 0.000000 
0.664062 -8.997613 0.000000 
0.664062 -9.555440 0.000000 
0.671875 -8.708899 0.000000 
0.984375 0.000000 0.000000 
0.992188 0.000000 0.000000 
0.992188 0.000000 0.000000 
1.000000 0.000000 0.000000 
0.968750 0.000000 0.000000 
0.976562 0.000000 0.000000 
0.976562 0.000000 0.000000 
0.984375 0.000000 0.000000 
0.937500 0.000000 0.000000 
0.945312 0.000000 0.000000 
0.945312 0.000000 0.000000 
0.953125 0.000000 0.000000 
0.953125 0.000000 0.000000 
0.960938 0.000000 0.000000 
0.960938 0.000000 0.000000 
0.968750 0.000000 0.000000 
0.875000 0.000000 0.000000 
0.882812 0.000000 0.000000 
0.882812 0.000000 0.000000 
0.890625 0.000000 0.000000 
0.890625 0.000000 0.000000 
0.898438 0.000000 0.000000 
0.898438 0.000000 0.000000 
0.906250 0.000000 0.000000 
0.921875 0.000000 0.000000 
0.929688 0.000000 0.000000 
0.929688 0.000000 0.000000 
0.937500 0.000000 0.000000 
0.906250 0.000000 0.000000 
0.914062 0.000000 0.000000 
0.914062 0.000000 0.000000 
0.921875 0.000000 0.000000 
0.750000 -6.195598 0.000000 
0.757812 -5.135089 0.000000 
0.757812 -5.852870 0.000000 
0.765625 -4.760036 0.000000 
0.765625 -5.501568 0.000000 
0.773438 -4.369806 0.000000 
0.773438 -5.140314 0.000000 
0.781250 -3.960551 0.000000 
0.796875 -3.976390 0.000000 
0.804688 -2.548461 0.000000 
0.804688 -3.555415 0.000000 
0.812500 -1.962482 0.000000 
0.781250 -4.767300 0.000000 
0.789062 -3.526815 0.000000 
0.789062 -4.380206 0.000000 
0.796875 -3.060517 0.000000 
0.859375 0.000000 0.000000 
0.867188 0.000000 0.000000 
0.867188 0.000000 0.000000 
0.875000 0.000000 0.000000 
0.843750 0.000000 0.000000 
0.851562 0.000000 0.000000 
0.851562 0.000000 0.000000 
0.859375 0.000000 0.000000 
0.812500 -3.143406 0.000000 
0.820312 -1.193567 0.000000 
0.820312 -3.658829 0.000000 
0.828125 1.787119 0.000000 
0.828125 -0.056394 0.000000 
0.835938 0.028197 0.000000 
0.835938 0.000000 0.000000 
0.843750 0.000000 0.000000 

CELLS 128 384
2  0 1 
2  2 3 
2  4 5 
2  6 7 
2  8 9 
2  10 11 
2  12 13 
2  14 15 
2  16 17 
2  18 19 
2  20 21 
2  22 23 
2  24 25 
2  26 27 
2  28 29 
2  30 31 
2  32 33 
2  34 35 
2  36 37 
2  38 39 
2  40 41 
2  42 43 
2  44 45 
2  46 47 
2  48 49 
2  50 51 
2  52 53 
2  54 55 
2  56 57 
2  58 59 
2  60 61 
2  62 63 
2  64 65 
2  66 67 
2  68 69 
2  70 71 
2  72 73 
2  74 75 
2  76 77 
2  78 79 
2  80 81 
2  82 83 
2  84 85 
2  86 87 
2  88 89 
2  90 91 
2  92 93 
2  94 95 
2  96 97 
2  98 99 
2  100 101 
2  102 103 
2  104 105 
2  106 107 
2  108 109 
2  110 111 
2  112 113 
2  114 115 
2  116 117 
2  118 119 
2  120 121 
2  122 123 
2  124 125 
2  126 127 
2  128 129 
2  130 131 
2  132 133 
2  134 135 
2  136 137 
2  138 139 
2  140 141 
2  142 143 
2  144 145 
2  146 147 
2  148 149 
2  150 151 
2  152 153 
2  154 155 
2  156 157 
2  158 159 
2  160 161 
2  162 163 
2  164 165 
2  166 167 
2  168 169 
2  170 171 
2  172 173 
2  174 175 
2  176 177 
2  178 179 
2  180 181 
2  182 183 
2  184 185 
2  186 187 
2  188 189 
2  190 191 
2  192 193 
2  194 195 
2  196 197 
2  198 199 
2  200 201 
2  202 203 
2  204 205 
2  206 207 
2  208 209 
2  210 211 
2  212 213 
2  214 215 
2  216 217 
2  218 219 
2  220 221 
2  222 223 
2  224 225 
2  226 227 
2  228 229 
2  230 231 
2  232 233 
2  234 235 
2  236 237 
2  238 239 
2  240 241 
2  242 243 
2  244 245 
2  246 247 
2  248 249 
2  250 251 
2  252 253 
2  254 255 

CELL_TYPES 128
3
3
3
3
3
3
3
3
3
3
3
3
3
3
3
3
3
3
3
3
3
3
3
3
3
3
3
3
3
3
3
3
3
3
3
3
3
3
3
3
3
3
3
3
3
3
3
3
3
3
3
3
3
3
3
3
3
3
3
3
3
3
3
3
3
3
3
3
3
3
3
3
3
3
3
3
3
3
3
3
3
3
3
3
3
3
3
3
3
3
3
3
3
3
3
3
3
3
3
3
3
3
3
3
3
3
3
3
3
3
3
3
3
3
3
3
3
3
3
3
3
3
3
3
3
3
3
3

POINT_DATA 256

SCALARS lambda_h float 1
LOOKUP_TABLE default
0.000000 
0.000000 
0.000000 
0.000000 
0.000000 
0.000000 
0.000000 
0.000000 
0.000000 
0.000000 
0.000000 
0.000000 
0.000000 
0.000000 
0.000000 
0.000000 
0.000000 
0.000000 
0.000000 
0.000000 
0.000000 
0.000000 
0.000000 
0.000000 
0.000000 
0.000000 
0.000000 
0.000000 
0.000000 
0.000000 
0.000000 
0.000000 
-4.760036 
-5.852870 
-5.135089 
-6.195598 
-3.960551 
-5.140314 
-4.369806 
-5.501568 
-1.962482 
-3.555415 
-2.548461 
-3.976390 
-3.060517 
-4.380206 
-3.526815 
-4.767300 
0.000000 
0.000000 
0.000000 
0.000000 
0.000000 
0.000000 
0.000000 
0.000000 
1.787119 
-3.658829 
-1.193567 
-3.143406 
0.000000 
0.000000 
0.028197 
-0.056394 
-12.643086 
-12.727169 
-12.765494 
-12.566436 
-12.496472 
-12.689238 
-12.578851 
-12.717245 
-11.998074 
-12.395439 
-12.146734 
-12.495484 
-12.279806 
-12.578090 
-12.396597 
-12.642792 
-10.341266 
-11.046461 
-10.586429 
-11.261332 
-10.822253 
-11.464586 
-11.048004 
-11.655418 
-11.657007 
-12.145322 
-11.834572 
-12.278508 
-11.262912 
-11.833016 
-11.466183 
-11.996577 
-5.497745 
-6.530795 
-5.850050 
-6.859234 
-6.193520 
-7.181479 
-6.529282 
-7.497914 
-7.497513 
-8.414088 
-7.808634 
-8.708422 
-6.858168 
-7.808776 
-7.180775 
-8.114169 
-9.825637 
-10.585022 
-10.087456 
-10.820769 
-9.280234 
-10.086250 
-9.556391 
-10.339953 
-8.114256 
-8.996966 
-8.414379 
-9.279429 
-8.708899 
-9.555440 
-8.997613 
-9.824553 
-12.566436 
-12.765494 
-12.727169 
-12.643086 
-12.717245 
-12.578851 
-12.689238 
-12.496472 
-12.495484 
-12.146734 
-12.395439 
-11.998074 
-12.642792 
-12.396597 
-12.578090 
-12.279806 
-11.261332 
-10.586429 
-11.046461 
-10.341266 
-11.655418 
-11.048004 
-11.464586 
-10.822253 
-12.278508 
-11.834572 
-12.145322 
-11.657007 
-11.996577 
-11.466183 
-11.833016 
-11.262912 
-6.859234 
-5.850050 
-6.530795 
-5.497745 
-7.497914 
-6.529282 
-7.181479 
-6.193520 
-8.708422 
-7.808634 
-8.414088 
-7.497513 
-8.114169 
-7.180775 
-7.808776 
-6.858168 
-10.820769 
-10.087456 
-10.585022 
-9.825637 
-10.339953 
-9.556391 
-10.086250 
-9.280234 
-9.279429 
-8.414379 
-8.996966 
-8.114256 
-9.824553 
-8.997613 
-9.555440 
-8.708899 
0.000000 
0.000000 
0.000000 
0.000000 
0.000000 
0.000000 
0.000000 
0.000000 
0.000000 
0.000000 
0.000000 
0.000000 
0.000000 
0.000000 
0.000000 
0.000000 
0.000000 
0.000000 
0.000000 
0.000000 
0.000000 
0.000000 
0.000000 
0.000000 
0.000000 
0.000000 
0.000000 
0.000000 
0.000000 
0.000000 
0.000000 
0.000000 
-6.195598 
-5.135089 
-5.852870 
-4.760036 
-5.501568 
-4.369806 
-5.140314 
-3.960551 
-3.976390 
-2.548461 
-3.555415 
-1.962482 
-4.767300 
-3.526815 
-4.380206 
-3.060517 
0.000000 
0.000000 
0.000000 
0.000000 
0.000000 
0.000000 
0.000000 
0.000000 
-3.143406 
-1.193567 
-3.658829 
1.787119 
-0.056394 
0.028197 
0.000000 
0.000000 

