# vtk DataFile Version 2.0
Unstructured Grid Example
ASCII
DATASET UNSTRUCTURED_GRID

POINTS 128 float
0.000000 0.000000 0.000000 
0.015625 0.000000 0.000000 
0.015625 0.000000 0.000000 
0.031250 0.000000 0.000000 
0.031250 0.000000 0.000000 
0.046875 0.000000 0.000000 
0.046875 0.000000 0.000000 
0.062500 0.000000 0.000000 
0.093750 0.000000 0.000000 
0.109375 0.000000 0.000000 
0.109375 0.000000 0.000000 
0.125000 0.000000 0.000000 
0.062500 0.000000 0.000000 
0.078125 0.000000 0.000000 
0.078125 0.000000 0.000000 
0.093750 0.000000 0.000000 
0.218750 -3.663272 0.000000 
0.234375 -5.916731 0.000000 
0.234375 -4.458317 0.000000 
0.250000 -6.580100 0.000000 
0.187500 -1.643849 0.000000 
0.203125 -4.570859 0.000000 
0.203125 -2.775953 0.000000 
0.218750 -5.233661 0.000000 
0.125000 0.000000 0.000000 
0.140625 0.000000 0.000000 
0.140625 0.000000 0.000000 
0.156250 0.000000 0.000000 
0.156250 0.000000 0.000000 
0.171875 0.000000 0.000000 
0.171875 2.619519 0.000000 
0.187500 -5.239039 0.000000 
0.468750 -12.441131 0.000000 
0.484375 -12.762732 0.000000 
0.484375 -12.756577 0.000000 
0.500000 -12.453442 0.000000 
0.437500 -11.881542 0.000000 
0.453125 -12.615578 0.000000 
0.453125 -12.193468 0.000000 
0.468750 -12.725763 0.000000 
0.375000 -10.127497 0.000000 
0.390625 -11.499707 0.000000 
0.390625 -10.628755 0.000000 
0.406250 -11.869399 0.000000 
0.406250 -11.092452 0.000000 
0.421875 -12.182650 0.000000 
0.421875 -11.512280 0.000000 
0.437500 -12.433191 0.000000 
0.250000 -5.198116 0.000000 
0.265625 -7.222285 0.000000 
0.265625 -5.899108 0.000000 
0.281250 -7.844470 0.000000 
0.281250 -6.570595 0.000000 
0.296875 -8.446859 0.000000 
0.296875 -7.217993 0.000000 
0.312500 -9.028327 0.000000 
0.343750 -9.033819 0.000000 
0.359375 -10.617483 0.000000 
0.359375 -9.594290 0.000000 
0.375000 -11.080205 0.000000 
0.312500 -7.844085 0.000000 
0.328125 -9.586476 0.000000 
0.328125 -8.449651 0.000000 
0.343750 -10.117735 0.000000 
0.500000 -12.453442 0.000000 
0.515625 -12.756577 0.000000 
0.515625 -12.762732 0.000000 
0.531250 -12.441131 0.000000 
0.531250 -12.725763 0.000000 
0.546875 -12.193468 0.000000 
0.546875 -12.615578 0.000000 
0.562500 -11.881542 0.000000 
0.593750 -11.869399 0.000000 
0.609375 -10.628755 0.000000 
0.609375 -11.499707 0.000000 
0.625000 -10.127497 0.000000 
0.562500 -12.433191 0.000000 
0.578125 -11.512280 0.000000 
0.578125 -12.182650 0.000000 
0.593750 -11.092452 0.000000 
0.718750 -7.844470 0.000000 
0.734375 -5.899108 0.000000 
0.734375 -7.222285 0.000000 
0.750000 -5.198116 0.000000 
0.687500 -9.028327 0.000000 
0.703125 -7.217993 0.000000 
0.703125 -8.446859 0.000000 
0.718750 -6.570595 0.000000 
0.625000 -11.080205 0.000000 
0.640625 -9.594290 0.000000 
0.640625 -10.617483 0.000000 
0.656250 -9.033819 0.000000 
0.656250 -10.117735 0.000000 
0.671875 -8.449651 0.000000 
0.671875 -9.586476 0.000000 
0.687500 -7.844085 0.000000 
0.968750 0.000000 0.000000 
0.984375 0.000000 0.000000 
0.984375 0.000000 0.000000 
1.000000 0.000000 0.000000 
0.937500 0.000000 0.000000 
0.953125 0.000000 0.000000 
0.953125 0.000000 0.000000 
0.968750 0.000000 0.000000 
0.875000 0.000000 0.000000 
0.890625 0.000000 0.000000 
0.890625 0.000000 0.000000 
0.906250 0.000000 0.000000 
0.906250 0.000000 0.000000 
0.921875 0.000000 0.000000 
0.921875 0.000000 0.000000 
0.937500 0.000000 0.000000 
0.750000 -6.580100 0.000000 
0.765625 -4.458317 0.000000 
0.765625 -5.916731 0.000000 
0.781250 -3.663272 0.000000 
0.781250 -5.233661 0.000000 
0.796875 -2.775953 0.000000 
0.796875 -4.570859 0.000000 
0.812500 -1.643849 0.000000 
0.843750 0.000000 0.000000 
0.859375 0.000000 0.000000 
0.859375 0.000000 0.000000 
0.875000 0.000000 0.000000 
0.812500 -5.239039 0.000000 
0.828125 2.619519 0.000000 
0.828125 0.000000 0.000000 
0.843750 0.000000 0.000000 

CELLS 64 192
2  0 1 
2  2 3 
2  4 5 
2  6 7 
2  8 9 
2  10 11 
2  12 13 
2  14 15 
2  16 17 
2  18 19 
2  20 21 
2  22 23 
2  24 25 
2  26 27 
2  28 29 
2  30 31 
2  32 33 
2  34 35 
2  36 37 
2  38 39 
2  40 41 
2  42 43 
2  44 45 
2  46 47 
2  48 49 
2  50 51 
2  52 53 
2  54 55 
2  56 57 
2  58 59 
2  60 61 
2  62 63 
2  64 65 
2  66 67 
2  68 69 
2  70 71 
2  72 73 
2  74 75 
2  76 77 
2  78 79 
2  80 81 
2  82 83 
2  84 85 
2  86 87 
2  88 89 
2  90 91 
2  92 93 
2  94 95 
2  96 97 
2  98 99 
2  100 101 
2  102 103 
2  104 105 
2  106 107 
2  108 109 
2  110 111 
2  112 113 
2  114 115 
2  116 117 
2  118 119 
2  120 121 
2  122 123 
2  124 125 
2  126 127 

CELL_TYPES 64
3
3
3
3
3
3
3
3
3
3
3
3
3
3
3
3
3
3
3
3
3
3
3
3
3
3
3
3
3
3
3
3
3
3
3
3
3
3
3
3
3
3
3
3
3
3
3
3
3
3
3
3
3
3
3
3
3
3
3
3
3
3
3
3

POINT_DATA 128

SCALARS lambda_h float 1
LOOKUP_TABLE default
0.000000 
0.000000 
0.000000 
0.000000 
0.000000 
0.000000 
0.000000 
0.000000 
0.000000 
0.000000 
0.000000 
0.000000 
0.000000 
0.000000 
0.000000 
0.000000 
-3.663272 
-5.916731 
-4.458317 
-6.580100 
-1.643849 
-4.570859 
-2.775953 
-5.233661 
0.000000 
0.000000 
0.000000 
0.000000 
0.000000 
0.000000 
2.619519 
-5.239039 
-12.441131 
-12.762732 
-12.756577 
-12.453442 
-11.881542 
-12.615578 
-12.193468 
-12.725763 
-10.127497 
-11.499707 
-10.628755 
-11.869399 
-11.092452 
-12.182650 
-11.512280 
-12.433191 
-5.198116 
-7.222285 
-5.899108 
-7.844470 
-6.570595 
-8.446859 
-7.217993 
-9.028327 
-9.033819 
-10.617483 
-9.594290 
-11.080205 
-7.844085 
-9.586476 
-8.449651 
-10.117735 
-12.453442 
-12.756577 
-12.762732 
-12.441131 
-12.725763 
-12.193468 
-12.615578 
-11.881542 
-11.869399 
-10.628755 
-11.499707 
-10.127497 
-12.433191 
-11.512280 
-12.182650 
-11.092452 
-7.844470 
-5.899108 
-7.222285 
-5.198116 
-9.028327 
-7.217993 
-8.446859 
-6.570595 
-11.080205 
-9.594290 
-10.617483 
-9.033819 
-10.117735 
-8.449651 
-9.586476 
-7.844085 
0.000000 
0.000000 
0.000000 
0.000000 
0.000000 
0.000000 
0.000000 
0.000000 
0.000000 
0.000000 
0.000000 
0.000000 
0.000000 
0.000000 
0.000000 
0.000000 
-6.580100 
-4.458317 
-5.916731 
-3.663272 
-5.233661 
-2.775953 
-4.570859 
-1.643849 
0.000000 
0.000000 
0.000000 
0.000000 
-5.239039 
2.619519 
0.000000 
0.000000 

