# vtk DataFile Version 2.0
Unstructured Grid Example
ASCII
DATASET UNSTRUCTURED_GRID

POINTS 16 float
0.000000 0.000000 0.000000 
0.125000 0.000000 0.000000 
0.125000 6.012985 0.000000 
0.250000 -12.025970 0.000000 
0.250000 -1.003701 0.000000 
0.375000 -16.031554 0.000000 
0.375000 -10.160128 0.000000 
0.500000 -12.746553 0.000000 
0.500000 -12.746553 0.000000 
0.625000 -10.160128 0.000000 
0.625000 -16.031554 0.000000 
0.750000 -1.003701 0.000000 
0.750000 -12.025970 0.000000 
0.875000 6.012985 0.000000 
0.875000 0.000000 0.000000 
1.000000 0.000000 0.000000 

CELLS 8 24
2  0 1 
2  2 3 
2  4 5 
2  6 7 
2  8 9 
2  10 11 
2  12 13 
2  14 15 

CELL_TYPES 8
3
3
3
3
3
3
3
3

POINT_DATA 16

SCALARS lambda_h float 1
LOOKUP_TABLE default
0.000000 
0.000000 
6.012985 
-12.025970 
-1.003701 
-16.031554 
-10.160128 
-12.746553 
-12.746553 
-10.160128 
-16.031554 
-1.003701 
-12.025970 
6.012985 
0.000000 
0.000000 

