# vtk DataFile Version 2.0
Unstructured Grid Example
ASCII
DATASET UNSTRUCTURED_GRID

POINTS 64 float
0.000000 0.000000 0.000000 
0.031250 0.000000 0.000000 
0.031250 0.000000 0.000000 
0.062500 0.000000 0.000000 
0.062500 0.000000 0.000000 
0.093750 0.000000 0.000000 
0.093750 0.000000 0.000000 
0.125000 0.000000 0.000000 
0.187500 0.824745 0.000000 
0.218750 -7.233181 0.000000 
0.218750 -3.111524 0.000000 
0.250000 -7.418568 0.000000 
0.125000 0.000000 0.000000 
0.156250 0.000000 0.000000 
0.156250 1.861231 0.000000 
0.187500 -3.722461 0.000000 
0.437500 -11.718042 0.000000 
0.468750 -12.895556 0.000000 
0.468750 -12.599010 0.000000 
0.500000 -12.311134 0.000000 
0.375000 -9.769895 0.000000 
0.406250 -12.316868 0.000000 
0.406250 -10.825208 0.000000 
0.437500 -12.753216 0.000000 
0.250000 -4.687531 0.000000 
0.281250 -8.573598 0.000000 
0.281250 -6.066885 0.000000 
0.312500 -9.700956 0.000000 
0.312500 -7.366966 0.000000 
0.343750 -10.734866 0.000000 
0.343750 -8.605579 0.000000 
0.375000 -11.625540 0.000000 
0.500000 -12.311134 0.000000 
0.531250 -12.599010 0.000000 
0.531250 -12.895556 0.000000 
0.562500 -11.718042 0.000000 
0.562500 -12.753216 0.000000 
0.593750 -10.825208 0.000000 
0.593750 -12.316868 0.000000 
0.625000 -9.769895 0.000000 
0.687500 -9.700956 0.000000 
0.718750 -6.066885 0.000000 
0.718750 -8.573598 0.000000 
0.750000 -4.687531 0.000000 
0.625000 -11.625540 0.000000 
0.656250 -8.605579 0.000000 
0.656250 -10.734866 0.000000 
0.687500 -7.366966 0.000000 
0.937500 0.000000 0.000000 
0.968750 0.000000 0.000000 
0.968750 0.000000 0.000000 
1.000000 0.000000 0.000000 
0.875000 0.000000 0.000000 
0.906250 0.000000 0.000000 
0.906250 0.000000 0.000000 
0.937500 0.000000 0.000000 
0.750000 -7.418568 0.000000 
0.781250 -3.111524 0.000000 
0.781250 -7.233181 0.000000 
0.812500 0.824745 0.000000 
0.812500 -3.722461 0.000000 
0.843750 1.861231 0.000000 
0.843750 0.000000 0.000000 
0.875000 0.000000 0.000000 

CELLS 32 96
2  0 1 
2  2 3 
2  4 5 
2  6 7 
2  8 9 
2  10 11 
2  12 13 
2  14 15 
2  16 17 
2  18 19 
2  20 21 
2  22 23 
2  24 25 
2  26 27 
2  28 29 
2  30 31 
2  32 33 
2  34 35 
2  36 37 
2  38 39 
2  40 41 
2  42 43 
2  44 45 
2  46 47 
2  48 49 
2  50 51 
2  52 53 
2  54 55 
2  56 57 
2  58 59 
2  60 61 
2  62 63 

CELL_TYPES 32
3
3
3
3
3
3
3
3
3
3
3
3
3
3
3
3
3
3
3
3
3
3
3
3
3
3
3
3
3
3
3
3

POINT_DATA 64

SCALARS lambda_h float 1
LOOKUP_TABLE default
0.000000 
0.000000 
0.000000 
0.000000 
0.000000 
0.000000 
0.000000 
0.000000 
0.824745 
-7.233181 
-3.111524 
-7.418568 
0.000000 
0.000000 
1.861231 
-3.722461 
-11.718042 
-12.895556 
-12.599010 
-12.311134 
-9.769895 
-12.316868 
-10.825208 
-12.753216 
-4.687531 
-8.573598 
-6.066885 
-9.700956 
-7.366966 
-10.734866 
-8.605579 
-11.625540 
-12.311134 
-12.599010 
-12.895556 
-11.718042 
-12.753216 
-10.825208 
-12.316868 
-9.769895 
-9.700956 
-6.066885 
-8.573598 
-4.687531 
-11.625540 
-8.605579 
-10.734866 
-7.366966 
0.000000 
0.000000 
0.000000 
0.000000 
0.000000 
0.000000 
0.000000 
0.000000 
-7.418568 
-3.111524 
-7.233181 
0.824745 
-3.722461 
1.861231 
0.000000 
0.000000 

