# vtk DataFile Version 2.0
Unstructured Grid Example
ASCII
DATASET UNSTRUCTURED_GRID

POINTS 16641 float
-0.016165 -0.253617 0.000000 
1.016165 -0.253617 0.000000 
1.000000 1.000000 0.000000 
0.000000 1.000000 0.000000 
0.500000 -0.099985 0.000000 
0.975794 0.314281 0.000000 
0.500000 1.000000 0.000000 
0.024206 0.314281 0.000000 
0.500000 0.311426 0.000000 
0.226159 -0.174980 0.000000 
0.500000 0.062468 0.000000 
0.229307 0.037934 0.000000 
0.773841 -0.174980 0.000000 
0.770693 0.037934 0.000000 
1.017064 0.022572 0.000000 
0.742932 0.304458 0.000000 
0.945374 0.628475 0.000000 
0.727952 0.629727 0.000000 
0.750000 1.000000 0.000000 
0.500000 0.631861 0.000000 
0.250000 1.000000 0.000000 
0.272048 0.629727 0.000000 
0.054626 0.628475 0.000000 
0.257068 0.304458 0.000000 
-0.017064 0.022572 0.000000 
0.110975 -0.235006 0.000000 
0.220927 -0.073741 0.000000 
0.095309 -0.107507 0.000000 
0.500000 -0.030699 0.000000 
0.356928 -0.042658 0.000000 
0.352925 -0.121619 0.000000 
0.369963 0.172970 0.000000 
0.362444 0.055409 0.000000 
0.500000 0.176986 0.000000 
0.647075 -0.121619 0.000000 
0.643072 -0.042658 0.000000 
0.904691 -0.107507 0.000000 
0.779073 -0.073741 0.000000 
0.889025 -0.235006 0.000000 
0.637556 0.055409 0.000000 
0.630037 0.172970 0.000000 
1.025157 -0.119868 0.000000 
0.896800 0.021543 0.000000 
0.860267 0.302997 0.000000 
0.879389 0.157513 0.000000 
0.997792 0.166730 0.000000 
0.757044 0.163727 0.000000 
0.622557 0.309230 0.000000 
0.956604 0.467578 0.000000 
0.844578 0.459358 0.000000 
0.845548 0.809770 0.000000 
0.837263 0.627913 0.000000 
0.950148 0.799286 0.000000 
0.732045 0.460038 0.000000 
0.617001 0.462728 0.000000 
0.875000 1.000000 0.000000 
0.734059 0.811300 0.000000 
0.500000 0.811669 0.000000 
0.617987 0.811577 0.000000 
0.625000 1.000000 0.000000 
0.615095 0.631252 0.000000 
0.500000 0.463987 0.000000 
0.375000 1.000000 0.000000 
0.382013 0.811577 0.000000 
0.154452 0.809770 0.000000 
0.265941 0.811300 0.000000 
0.125000 1.000000 0.000000 
0.384905 0.631252 0.000000 
0.382999 0.462728 0.000000 
0.049852 0.799286 0.000000 
0.162737 0.627913 0.000000 
0.139733 0.302997 0.000000 
0.155422 0.459358 0.000000 
0.043396 0.467578 0.000000 
0.267955 0.460038 0.000000 
0.377443 0.309230 0.000000 
0.002208 0.166730 0.000000 
0.120611 0.157513 0.000000 
0.103200 0.021543 0.000000 
-0.025157 -0.119868 0.000000 
0.242956 0.163727 0.000000 
0.046805 -0.246869 0.000000 
0.098803 -0.171293 0.000000 
0.038683 -0.182913 0.000000 
0.221113 -0.125029 0.000000 
0.158635 -0.150154 0.000000 
0.170881 -0.208312 0.000000 
0.159670 -0.032785 0.000000 
0.156829 -0.092093 0.000000 
0.224073 -0.019564 0.000000 
0.500000 -0.068696 0.000000 
0.426690 -0.072761 0.000000 
0.424788 -0.105643 0.000000 
0.429292 0.010767 0.000000 
0.427941 -0.033769 0.000000 
0.500000 0.013133 0.000000 
0.286534 -0.145557 0.000000 
0.355154 -0.084443 0.000000 
0.286542 -0.102415 0.000000 
0.436739 0.241049 0.000000 
0.434776 0.175939 0.000000 
0.500000 0.241830 0.000000 
0.295089 0.047442 0.000000 
0.366081 0.111785 0.000000 
0.300302 0.105854 0.000000 
0.500000 0.117137 0.000000 
0.432796 0.115749 0.000000 
0.430928 0.060647 0.000000 
0.287756 -0.056461 0.000000 
0.359322 0.003924 0.000000 
0.290740 -0.006632 0.000000 
0.575212 -0.105643 0.000000 
0.573310 -0.072761 0.000000 
0.713458 -0.102415 0.000000 
0.644846 -0.084443 0.000000 
0.713466 -0.145557 0.000000 
0.572059 -0.033769 0.000000 
0.570708 0.010767 0.000000 
0.961317 -0.182913 0.000000 
0.901197 -0.171293 0.000000 
0.953195 -0.246869 0.000000 
0.775927 -0.019564 0.000000 
0.843171 -0.092093 0.000000 
0.840330 -0.032785 0.000000 
0.829119 -0.208312 0.000000 
0.841365 -0.150154 0.000000 
0.778887 -0.125029 0.000000 
0.565224 0.175939 0.000000 
0.563261 0.241049 0.000000 
0.569072 0.060647 0.000000 
0.567204 0.115749 0.000000 
0.699698 0.105854 0.000000 
0.633919 0.111785 0.000000 
0.704911 0.047442 0.000000 
0.712244 -0.056461 0.000000 
0.709260 -0.006632 0.000000 
0.640678 0.003924 0.000000 
1.022212 -0.188823 0.000000 
0.965090 -0.116742 0.000000 
0.957508 0.018856 0.000000 
0.963393 -0.049464 0.000000 
1.023170 -0.048947 0.000000 
0.902591 -0.043563 0.000000 
0.834639 0.028604 0.000000 
0.918099 0.306340 0.000000 
0.928426 0.231889 0.000000 
0.986743 0.239906 0.000000 
0.810210 0.229569 0.000000 
0.869688 0.228972 0.000000 
0.801953 0.302800 0.000000 
1.008207 0.094398 0.000000 
0.938945 0.159311 0.000000 
0.948948 0.088376 0.000000 
0.626169 0.238839 0.000000 
0.561431 0.310877 0.000000 
0.764186 0.098986 0.000000 
0.694070 0.168606 0.000000 
0.683115 0.306886 0.000000 
0.688423 0.235647 0.000000 
0.749803 0.232216 0.000000 
0.888706 0.088446 0.000000 
0.818812 0.159539 0.000000 
0.827185 0.092608 0.000000 
0.965545 0.390072 0.000000 
0.908576 0.382884 0.000000 
0.894329 0.543153 0.000000 
0.900437 0.461741 0.000000 
0.949613 0.546977 0.000000 
0.851710 0.379740 0.000000 
0.794567 0.379299 0.000000 
0.913464 0.902501 0.000000 
0.898364 0.806500 0.000000 
0.964041 0.890909 0.000000 
0.783040 0.628803 0.000000 
0.838871 0.717189 0.000000 
0.784877 0.718494 0.000000 
0.944987 0.712373 0.000000 
0.891832 0.714988 0.000000 
0.891077 0.627423 0.000000 
0.619425 0.383942 0.000000 
0.559851 0.385176 0.000000 
0.736868 0.380420 0.000000 
0.678481 0.382196 0.000000 
0.672563 0.544301 0.000000 
0.674853 0.461409 0.000000 
0.728914 0.543204 0.000000 
0.839502 0.542021 0.000000 
0.784506 0.542293 0.000000 
0.788564 0.459119 0.000000 
0.937500 1.000000 0.000000 
0.858136 0.904743 0.000000 
0.741136 0.905095 0.000000 
0.800234 0.905105 0.000000 
0.812500 1.000000 0.000000 
0.790614 0.810905 0.000000 
0.729590 0.719272 0.000000 
0.500000 0.904941 0.000000 
0.560626 0.904947 0.000000 
0.562500 1.000000 0.000000 
0.558102 0.720417 0.000000 
0.559107 0.811643 0.000000 
0.500000 0.720503 0.000000 
0.687500 1.000000 0.000000 
0.621122 0.904976 0.000000 
0.681348 0.905028 0.000000 
0.558638 0.463654 0.000000 
0.500000 0.385616 0.000000 
0.671925 0.630569 0.000000 
0.615496 0.545289 0.000000 
0.500000 0.546205 0.000000 
0.557890 0.545964 0.000000 
0.557694 0.631701 0.000000 
0.676396 0.811473 0.000000 
0.615924 0.720178 0.000000 
0.673181 0.719799 0.000000 
0.437500 1.000000 0.000000 
0.439374 0.904947 0.000000 
0.318652 0.905028 0.000000 
0.378878 0.904976 0.000000 
0.312500 1.000000 0.000000 
0.440893 0.811643 0.000000 
0.441898 0.720417 0.000000 
0.086536 0.902501 0.000000 
0.141864 0.904743 0.000000 
0.062500 1.000000 0.000000 
0.270410 0.719272 0.000000 
0.209386 0.810905 0.000000 
0.215123 0.718494 0.000000 
0.187500 1.000000 0.000000 
0.199766 0.905105 0.000000 
0.258864 0.905095 0.000000 
0.441362 0.463654 0.000000 
0.440149 0.385176 0.000000 
0.442306 0.631701 0.000000 
0.442110 0.545964 0.000000 
0.327437 0.544301 0.000000 
0.384504 0.545289 0.000000 
0.328075 0.630569 0.000000 
0.323604 0.811473 0.000000 
0.326819 0.719799 0.000000 
0.384076 0.720178 0.000000 
0.035959 0.890909 0.000000 
0.101636 0.806500 0.000000 
0.108923 0.627423 0.000000 
0.108168 0.714988 0.000000 
0.055013 0.712373 0.000000 
0.161129 0.717189 0.000000 
0.216960 0.628803 0.000000 
0.081901 0.306340 0.000000 
0.091424 0.382884 0.000000 
0.034455 0.390072 0.000000 
0.205433 0.379299 0.000000 
0.148290 0.379740 0.000000 
0.198047 0.302800 0.000000 
0.050387 0.546977 0.000000 
0.099563 0.461741 0.000000 
0.105671 0.543153 0.000000 
0.380575 0.383942 0.000000 
0.438569 0.310877 0.000000 
0.271086 0.543204 0.000000 
0.325147 0.461409 0.000000 
0.316885 0.306886 0.000000 
0.321519 0.382196 0.000000 
0.263132 0.380420 0.000000 
0.160498 0.542021 0.000000 
0.211436 0.459119 0.000000 
0.215494 0.542293 0.000000 
0.013257 0.239906 0.000000 
0.071574 0.231889 0.000000 
0.051052 0.088376 0.000000 
0.061055 0.159311 0.000000 
-0.008207 0.094398 0.000000 
0.130312 0.228972 0.000000 
0.189790 0.229569 0.000000 
0.034910 -0.116742 0.000000 
-0.022212 -0.188823 0.000000 
0.165361 0.028604 0.000000 
0.097409 -0.043563 0.000000 
-0.023170 -0.048947 0.000000 
0.036607 -0.049464 0.000000 
0.042492 0.018856 0.000000 
0.373831 0.238839 0.000000 
0.250197 0.232216 0.000000 
0.311577 0.235647 0.000000 
0.305930 0.168606 0.000000 
0.235814 0.098986 0.000000 
0.111294 0.088446 0.000000 
0.172815 0.092608 0.000000 
0.181188 0.159539 0.000000 
0.015117 -0.250464 0.000000 
0.042495 -0.215312 0.000000 
0.011578 -0.218806 0.000000 
0.103598 -0.203354 0.000000 
0.073261 -0.210450 0.000000 
0.078863 -0.241997 0.000000 
0.066184 -0.145605 0.000000 
0.068897 -0.178154 0.000000 
0.096199 -0.139350 0.000000 
0.223006 -0.149960 0.000000 
0.192520 -0.164207 0.000000 
0.198021 -0.191184 0.000000 
0.188349 -0.110483 0.000000 
0.189499 -0.137497 0.000000 
0.220498 -0.099700 0.000000 
0.142450 -0.224687 0.000000 
0.162596 -0.179071 0.000000 
0.133235 -0.193024 0.000000 
0.194100 0.003043 0.000000 
0.191580 -0.026301 0.000000 
0.226486 0.008753 0.000000 
0.125817 -0.100445 0.000000 
0.157809 -0.062655 0.000000 
0.126558 -0.069682 0.000000 
0.222176 -0.047048 0.000000 
0.189667 -0.054962 0.000000 
0.188518 -0.082999 0.000000 
0.128544 -0.161868 0.000000 
0.156973 -0.121214 0.000000 
0.126342 -0.131103 0.000000 
0.500000 -0.085274 0.000000 
0.462787 -0.086473 0.000000 
0.462169 -0.101416 0.000000 
0.463577 -0.051347 0.000000 
0.463226 -0.069720 0.000000 
0.500000 -0.050462 0.000000 
0.388266 -0.112471 0.000000 
0.425902 -0.090031 0.000000 
0.389638 -0.095808 0.000000 
0.464996 0.036601 0.000000 
0.464599 0.012537 0.000000 
0.500000 0.037124 0.000000 
0.392246 -0.037530 0.000000 
0.428584 -0.012178 0.000000 
0.393149 -0.015477 0.000000 
0.500000 -0.009485 0.000000 
0.464236 -0.010163 0.000000 
0.463901 -0.031472 0.000000 
0.255615 -0.159715 0.000000 
0.286515 -0.124237 0.000000 
0.254274 -0.136576 0.000000 
0.354229 -0.103601 0.000000 
0.319830 -0.113163 0.000000 
0.318977 -0.132758 0.000000 
0.321141 -0.071395 0.000000 
0.320445 -0.092744 0.000000 
0.355997 -0.064138 0.000000 
0.427332 -0.053979 0.000000 
0.391427 -0.058283 0.000000 
[...]
POINT_DATA 16641

SCALARS u_h float 2
LOOKUP_TABLE default
-0.016165 -0.253617 
0.016165 -0.253617 
0.000000 0.000000 
0.000000 0.000000 
-0.000000 -0.099985 
-0.024206 -0.185719 
0.000000 0.000000 
0.024206 -0.185719 
-0.000000 -0.188574 
-0.023841 -0.174980 
-0.000000 -0.187532 
-0.020693 -0.212066 
0.023841 -0.174980 
0.020693 -0.212066 
0.017064 -0.227428 
-0.007068 -0.195542 
-0.054626 -0.121525 
-0.022048 -0.120273 
0.000000 0.000000 
-0.000000 -0.118139 
0.000000 0.000000 
0.022048 -0.120273 
0.054626 -0.121525 
0.007068 -0.195542 
-0.017064 -0.227428 
-0.014025 -0.235006 
-0.029073 -0.198741 
-0.029691 -0.232507 
-0.000000 -0.155699 
-0.018072 -0.167658 
-0.022075 -0.121619 
-0.005037 -0.202030 
-0.012556 -0.194591 
-0.000000 -0.198014 
0.022075 -0.121619 
0.018072 -0.167658 
0.029691 -0.232507 
0.029073 -0.198741 
0.014025 -0.235006 
0.012556 -0.194591 
0.005037 -0.202030 
0.025157 -0.244868 
0.021800 -0.228457 
-0.014733 -0.197003 
0.004389 -0.217487 
-0.002208 -0.208270 
0.007044 -0.211273 
-0.002443 -0.190770 
-0.043396 -0.157422 
-0.030422 -0.165642 
-0.029452 -0.065230 
-0.037737 -0.122087 
-0.049852 -0.075714 
-0.017955 -0.164962 
-0.007999 -0.162272 
0.000000 0.000000 
-0.015941 -0.063700 
-0.000000 -0.063331 
-0.007013 -0.063423 
0.000000 0.000000 
-0.009905 -0.118748 
-0.000000 -0.161013 
0.000000 0.000000 
0.007013 -0.063423 
0.029452 -0.065230 
0.015941 -0.063700 
0.000000 0.000000 
0.009905 -0.118748 
0.007999 -0.162272 
0.049852 -0.075714 
0.037737 -0.122087 
0.014733 -0.197003 
0.030422 -0.165642 
0.043396 -0.157422 
0.017955 -0.164962 
0.002443 -0.190770 
0.002208 -0.208270 
-0.004389 -0.217487 
-0.021800 -0.228457 
-0.025157 -0.244868 
-0.007044 -0.211273 
-0.015695 -0.246869 
-0.026197 -0.233793 
-0.023817 -0.245413 
-0.028887 -0.187529 
-0.028865 -0.212654 
-0.016619 -0.208312 
-0.027830 -0.220285 
-0.030671 -0.217093 
-0.025927 -0.207064 
-0.000000 -0.131196 
-0.010810 -0.135261 
-0.012712 -0.105643 
-0.008208 -0.176733 
-0.009559 -0.158769 
-0.000000 -0.174367 
-0.025966 -0.145557 
-0.019846 -0.146943 
-0.025958 -0.164915 
-0.000761 -0.196451 
-0.002724 -0.199061 
-0.000000 -0.195670 
-0.017411 -0.202558 
-0.008919 -0.200715 
-0.012198 -0.206646 
-0.000000 -0.195363 
-0.004704 -0.196751 
-0.006572 -0.189353 
-0.024744 -0.181461 
-0.015678 -0.183576 
-0.021760 -0.194132 
0.012712 -0.105643 
0.010810 -0.135261 
0.025958 -0.164915 
0.019846 -0.146943 
0.025966 -0.145557 
0.009559 -0.158769 
0.008208 -0.176733 
0.023817 -0.245413 
0.026197 -0.233793 
0.015695 -0.246869 
0.025927 -0.207064 
0.030671 -0.217093 
0.027830 -0.220285 
0.016619 -0.208312 
0.028865 -0.212654 
0.028887 -0.187529 
0.002724 -0.199061 
0.000761 -0.196451 
0.006572 -0.189353 
0.004704 -0.196751 
0.012198 -0.206646 
0.008919 -0.200715 
0.017411 -0.202558 
0.024744 -0.181461 
0.021760 -0.194132 
0.015678 -0.183576 
0.022212 -0.251323 
0.027590 -0.241742 
0.020008 -0.231144 
0.025893 -0.236964 
0.023170 -0.236447 
0.027591 -0.231063 
0.022139 -0.221396 
-0.019401 -0.193660 
-0.009074 -0.205611 
-0.013257 -0.197594 
-0.002290 -0.207931 
-0.005312 -0.208528 
-0.010547 -0.197200 
0.008207 -0.218102 
0.001445 -0.215689 
0.011448 -0.224124 
0.001169 -0.198661 
-0.001069 -0.189123 
0.014186 -0.213514 
0.006570 -0.206394 
-0.004385 -0.193114 
0.000923 -0.201853 
-0.000197 -0.205284 
0.013706 -0.224054 
0.006312 -0.215461 
0.014685 -0.219892 
-0.034455 -0.172428 
-0.028924 -0.179616 
-0.043171 -0.144347 
-0.037063 -0.163259 
-0.050387 -0.140523 
-0.023290 -0.182760 
-0.017933 -0.183201 
-0.024036 -0.034999 
-0.039136 -0.068500 
-0.035959 -0.046591 
-0.029460 -0.121197 
-0.036129 -0.095311 
-0.027623 -0.094006 
-0.055013 -0.100127 
-0.045668 -0.097512 
-0.046423 -0.122577 
-0.005575 -0.178558 
-0.002649 -0.177324 
-0.013132 -0.182080 
-0.009019 -0.180304 
-0.014937 -0.143199 
-0.012647 -0.163591 
-0.021086 -0.144296 
-0.035498 -0.145479 
-0.027994 -0.145207 
-0.023936 -0.165881 
0.000000 0.000000 
-0.016864 -0.032757 
-0.008864 -0.032405 
-0.012266 -0.032395 
0.000000 0.000000 
-0.021886 -0.064095 
-0.020410 -0.093228 
-0.000000 -0.032559 
-0.001874 -0.032553 
0.000000 0.000000 
-0.004398 -0.092083 
-0.003393 -0.063357 
-0.000000 -0.091997 
0.000000 0.000000 
-0.003878 -0.032524 
-0.006152 -0.032472 
-0.003862 -0.161346 
-0.000000 -0.176884 
-0.015575 -0.119431 
-0.009504 -0.142211 
-0.000000 -0.141295 
-0.004610 -0.141536 
-0.004806 -0.118299 
-0.011104 -0.063527 
-0.009076 -0.092322 
-0.014319 -0.092701 
0.000000 0.000000 
0.001874 -0.032553 
0.006152 -0.032472 
0.003878 -0.032524 
0.000000 0.000000 
0.003393 -0.063357 
0.004398 -0.092083 
0.024036 -0.034999 
0.016864 -0.032757 
0.000000 0.000000 
0.020410 -0.093228 
0.021886 -0.064095 
0.027623 -0.094006 
0.000000 0.000000 
0.012266 -0.032395 
0.008864 -0.032405 
0.003862 -0.161346 
0.002649 -0.177324 
0.004806 -0.118299 
0.004610 -0.141536 
0.014937 -0.143199 
0.009504 -0.142211 
0.015575 -0.119431 
0.011104 -0.063527 
0.014319 -0.092701 
0.009076 -0.092322 
0.035959 -0.046591 
0.039136 -0.068500 
0.046423 -0.122577 
0.045668 -0.097512 
0.055013 -0.100127 
0.036129 -0.095311 
0.029460 -0.121197 
0.019401 -0.193660 
0.028924 -0.179616 
0.034455 -0.172428 
0.017933 -0.183201 
0.023290 -0.182760 
0.010547 -0.197200 
0.050387 -0.140523 
0.037063 -0.163259 
0.043171 -0.144347 
0.005575 -0.178558 
0.001069 -0.189123 
0.021086 -0.144296 
0.012647 -0.163591 
0.004385 -0.193114 
0.009019 -0.180304 
0.013132 -0.182080 
0.035498 -0.145479 
0.023936 -0.165881 
0.027994 -0.145207 
0.013257 -0.197594 
0.009074 -0.205611 
-0.011448 -0.224124 
-0.001445 -0.215689 
-0.008207 -0.218102 
0.005312 -0.208528 
0.002290 -0.207931 
-0.027590 -0.241742 
-0.022212 -0.251323 
-0.022139 -0.221396 
-0.027591 -0.231063 
-0.023170 -0.236447 
-0.025893 -0.236964 
-0.020008 -0.231144 
-0.001169 -0.198661 
0.000197 -0.205284 
-0.000923 -0.201853 
-0.006570 -0.206394 
-0.014186 -0.213514 
-0.013706 -0.224054 
-0.014685 -0.219892 
-0.006312 -0.215461 
-0.016133 -0.250464 
-0.020005 -0.246562 
-0.019672 -0.250056 
-0.021402 -0.234604 
-0.020489 -0.241700 
-0.014887 -0.241997 
-0.027566 -0.239355 
-0.024853 -0.240654 
-0.028801 -0.233100 
-0.026994 -0.181210 
-0.026230 -0.195457 
-0.020729 -0.191184 
-0.030401 -0.204233 
-0.029251 -0.199997 
-0.029502 -0.193450 
-0.013800 -0.224687 
-0.024904 -0.210321 
-0.023015 -0.224274 
-0.024650 -0.215707 
-0.027170 -0.213801 
-0.023514 -0.209997 
-0.030433 -0.225445 
-0.029691 -0.218905 
-0.029692 -0.225932 
-0.027824 -0.203298 
-0.029083 -0.211212 
-0.030232 -0.207999 
-0.027706 -0.224368 
-0.030527 -0.214964 
-0.029908 -0.224853 
-0.000000 -0.116524 
-0.005963 -0.117723 
-0.006581 -0.101416 
-0.005173 -0.145097 
-0.005524 -0.132220 
-0.000000 -0.144212 
-0.017984 -0.112471 
-0.011598 -0.121281 
-0.016612 -0.127058 
-0.003754 -0.182149 
-0.004151 -0.174963 
-0.000000 -0.181626 
-0.014004 -0.162530 
-0.008916 -0.168428 
-0.013101 -0.171727 
-0.000000 -0.165735 
-0.004514 -0.166413 
-0.004849 -0.156472 
-0.025635 -0.159715 
-0.025985 -0.155487 
-0.026976 -0.167826 
-0.020771 -0.134851 
-0.023920 -0.144413 
-0.024773 -0.132758 
-0.022609 -0.165145 
-0.023305 -0.155244 
-0.019003 -0.157888 
-0.010168 -0.147729 
-0.014823 -0.152033 
-0.015641 -0.140220 
0.000066 -0.192859 
-0.000404 -0.195866 
-0.000000 -0.192694 
-0.003956 -0.200330 
-0.001733 -0.198359 
-0.002479 -0.199456 
-0.000000 -0.197453 
-0.000891 -0.197682 
-0.001389 -0.198278 
-0.019271 -0.207215 
-0.014883 -0.205146 
-0.016417 -0.209131 
-0.010785 -0.198260 
-0.012990 -0.201471 
-0.015156 -0.198295 
-0.008330 -0.204356 
-0.010700 -0.203489 
-0.006992 -0.201967 
-0.000000 -0.192105 
-0.002864 -0.192507 
-0.003323 -0.187991 
-0.001889 -0.197630 
-0.002383 -0.195713 
-0.000000 -0.197325 
-0.009673 -0.191577 
-0.005660 -0.193697 
-0.008322 -0.195637 
-0.005439 -0.199998 
-0.006902 -0.198439 
-0.003720 -0.198532 
-0.027805 -0.175748 
-0.021675 -0.174021 
-0.025580 -0.173627 
-0.027884 -0.183140 
-0.027227 -0.189783 
-0.007425 -0.183704 
-0.014198 -0.189697 
-0.010932 -0.186244 
-0.012078 -0.179630 
-0.016972 -0.176226 
-0.021862 -0.204304 
-0.025933 -0.195560 
-0.024111 -0.200412 
-0.019724 -0.198885 
-0.017150 -0.193957 
-0.020447 -0.181806 
-0.018928 -0.188458 
-0.023455 -0.188314 
0.006581 -0.101416 
0.005963 -0.117723 
0.016612 -0.127058 
0.011598 -0.121281 
0.017984 -0.112471 
0.005524 -0.132220 
0.005173 -0.145097 
0.026976 -0.167826 
0.025985 -0.155487 
0.025635 -0.159715 
0.019003 -0.157888 
0.023305 -0.155244 
0.022609 -0.165145 
0.024773 -0.132758 
0.023920 -0.144413 
0.020771 -0.134851 
0.004151 -0.174963 
0.003754 -0.182149 
0.004849 -0.156472 
0.004514 -0.166413 
0.013101 -0.171727 
0.008916 -0.168428 
0.014004 -0.162530 
0.015641 -0.140220 
0.014823 -0.152033 
0.010168 -0.147729 
0.019672 -0.250056 
0.020005 -0.246562 
0.016133 -0.250464 
0.028801 -0.233100 
0.024853 -0.240654 
0.027566 -0.239355 
0.014887 -0.241997 
0.020489 -0.241700 
0.021402 -0.234604 
0.023514 -0.209997 
0.027170 -0.213801 
0.024650 -0.215707 
0.030232 -0.207999 
0.029083 -0.211212 
0.027824 -0.203298 
0.029692 -0.225932 
0.029691 -0.218905 
0.030433 -0.225445 
0.020729 -0.191184 
0.026230 -0.195457 
0.026994 -0.181210 
0.023015 -0.224274 
0.024904 -0.210321 
0.013800 -0.224687 
0.029502 -0.193450 
0.029251 -0.199997 
0.030401 -0.204233 
0.029908 -0.224853 
0.030527 -0.214964 
0.027706 -0.224368 
0.000404 -0.195866 
-0.000066 -0.192859 
0.001389 -0.198278 
0.000891 -0.197682 
0.002479 -0.199456 
0.001733 -0.198359 
0.003956 -0.200330 
0.003323 -0.187991 
0.002864 -0.192507 
0.008322 -0.195637 
0.005660 -0.193697 
0.009673 -0.191577 
0.002383 -0.195713 
0.001889 -0.197630 
0.016417 -0.209131 
0.014883 -0.205146 
0.019271 -0.207215 
0.006992 -0.201967 
0.010700 -0.203489 
0.008330 -0.204356 
0.015156 -0.198295 
0.012990 -0.201471 
0.010785 -0.198260 
0.003720 -0.198532 
0.006902 -0.198439 
0.005439 -0.199998 
0.027805 -0.175748 
0.027227 -0.189783 
0.027884 -0.183140 
0.025580 -0.173627 
0.021675 -0.174021 
0.021862 -0.204304 
0.017150 -0.193957 
0.019724 -0.198885 
0.024111 -0.200412 
0.025933 -0.195560 
0.007425 -0.183704 
0.016972 -0.176226 
0.012078 -0.179630 
0.010932 -0.186244 
0.014198 -0.189697 
0.023455 -0.188314 
0.018928 -0.188458 
0.020447 -0.181806 
0.019304 -0.253067 
0.023004 -0.248720 
0.026457 -0.243990 
0.025381 -0.246633 
0.024281 -0.248482 
0.026419 -0.243745 
0.028683 -0.237957 
0.018670 -0.230224 
0.022103 -0.234015 
0.020546 -0.231977 
0.024372 -0.232765 
0.023375 -0.234192 
0.021062 -0.230472 
0.024759 -0.240786 
0.024672 -0.237596 
0.026183 -0.240942 
0.025265 -0.221140 
0.021650 -0.216879 
0.029203 -0.231875 
0.027943 -0.226154 
0.022176 -0.225346 
0.025384 -0.225989 
0.025062 -0.229953 
0.027364 -0.239477 
0.026878 -0.234733 
0.028384 -0.236439 
-0.021812 -0.190362 
-0.016532 -0.196557 
-0.018785 -0.191830 
-0.012140 -0.201999 
-0.014300 -0.199883 
-0.017026 -0.195812 
-0.007703 -0.203060 
-0.011138 -0.202340 
-0.005706 -0.207743 
-0.004992 -0.202092 
-0.006495 -0.202970 
-0.008710 -0.196530 
-0.000458 -0.213318 
-0.003694 -0.208573 
0.000896 -0.213062 
-0.012562 -0.197410 
-0.008203 -0.203361 
-0.010095 -0.203096 
0.012899 -0.222809 
0.009929 -0.222008 
0.014557 -0.226227 
-0.000318 -0.212799 
0.004929 -0.217543 
0.003131 -0.213269 
0.007981 -0.221188 
0.006563 -0.220097 
0.003029 -0.217175 
-0.007118 -0.207606 
-0.002035 -0.212656 
-0.003798 -0.210870 
-0.000178 -0.193362 
-0.000514 -0.188689 
0.003086 -0.200922 
0.001029 -0.197398 
-0.001700 -0.189830 
-0.000371 -0.194180 
-0.000683 -0.195269 
0.017556 -0.213245 
0.013370 -0.210043 
0.006952 -0.208837 
0.010196 -0.209946 
0.010659 -0.212860 
0.009410 -0.207060 
0.005921 -0.204084 
-0.005627 -0.194365 
-0.002642 -0.199475 
-0.003706 -0.200881 
-0.001148 -0.196568 
-0.001794 -0.198001 
-0.003330 -0.191887 
0.003406 -0.208748 
0.000482 -0.203596 
0.003697 -0.206719 
0.003513 -0.202685 
0.003726 -0.204655 
0.001144 -0.200174 
0.015977 -0.227797 
0.009143 -0.221057 
0.012720 -0.224721 
0.017125 -0.227804 
0.017967 -0.226507 
-0.001121 -0.206779 
0.006832 -0.213540 
0.002841 -0.210593 
0.002002 -0.212091 
0.005492 -0.216844 
0.018277 -0.217276 
0.018462 -0.224155 
0.018575 -0.220994 
0.014626 -0.216867 
0.010785 -0.215627 
0.010014 -0.219938 
0.010567 -0.218055 
0.014371 -0.222365 
-0.029460 -0.179278 
-0.026902 -0.183726 
-0.036218 -0.169006 
-0.031728 -0.176617 
-0.039126 -0.165150 
-0.024298 -0.186914 
-0.021700 -0.189023 
-0.049175 -0.132958 
-0.046876 -0.142877 
-0.052910 -0.131302 
-0.033751 -0.164792 
-0.040417 -0.154139 
-0.036854 -0.155341 
-0.047180 -0.149221 
-0.043881 -0.152167 
-0.040297 -0.160866 
-0.014380 -0.190613 
-0.012216 -0.190090 
-0.019153 -0.190231 
-0.016701 -0.190708 
-0.024058 -0.174997 
-0.020556 -0.183242 
-0.027071 -0.174570 
-0.033204 -0.171741 
-0.030137 -0.173538 
-0.026094 -0.181606 
-0.016377 -0.019432 
-0.029508 -0.038738 
-0.023386 -0.028413 
-0.034025 -0.066462 
-0.032867 -0.052291 
-0.027972 -0.050235 
-0.044316 -0.061949 
-0.038529 -0.056045 
-0.044578 -0.071608 
-0.025635 -0.120730 
-0.028998 -0.107980 
-0.025150 -0.107513 
-0.037487 -0.109127 
-0.033120 -0.108515 
-0.033508 -0.121659 
-0.029177 -0.079867 
-0.031714 -0.094567 
-0.033501 -0.080657 
-0.055388 -0.111153 
-0.051150 -0.111033 
-0.050650 -0.122363 
-0.048403 -0.085801 
-0.050482 -0.098885 
-0.053271 -0.088360 
-0.042076 -0.122428 
-0.046638 -0.110492 
-0.042031 -0.109806 
-0.038229 -0.081842 
-0.040818 -0.096289 
-0.043271 -0.083548 
-0.001898 -0.183766 
-0.000933 -0.183389 
-0.004084 -0.185190 
-0.002938 -0.184378 
-0.005047 -0.170297 
-0.004060 -0.177855 
-0.006889 -0.170907 
-0.010228 -0.189273 
-0.008425 -0.188278 
-0.013267 -0.173226 
-0.010987 -0.181226 
-0.015726 -0.173973 
-0.006807 -0.187208 
-0.005366 -0.186154 
-0.018570 -0.132194 
-0.017915 -0.143750 
-0.021867 -0.132688 
-0.010247 -0.162900 
-0.013980 -0.153838 
-0.011352 -0.153235 
-0.019762 -0.155063 
-0.016780 -0.154462 
-0.015214 -0.164297 
-0.007220 -0.179393 
-0.010980 -0.172423 
-0.008859 -0.171631 
-0.045216 -0.133842 
-0.037029 -0.134198 
-0.041133 -0.134196 
-0.039350 -0.145154 
-0.033262 -0.155952 
-0.025378 -0.133171 
-0.022922 -0.155586 
-0.024449 -0.144798 
-0.029095 -0.133614 
-0.032994 -0.133976 
-0.015451 -0.182774 
-0.027134 -0.165960 
-0.021141 -0.174959 
-0.018355 -0.174582 
-0.020868 -0.165517 
-0.031692 -0.145461 
-0.026247 -0.155964 
-0.029707 -0.156119 
0.000000 0.000000 
-0.012589 -0.017192 
-0.008707 -0.016287 
-0.010329 -0.016514 
0.000000 0.000000 
-0.019971 -0.033420 
-0.023887 -0.049178 
-0.004586 -0.016313 
-0.005409 -0.016270 
0.000000 0.000000 
-0.014956 -0.048277 
-0.010457 -0.032383 
-0.012690 -0.048226 
0.000000 0.000000 
-0.006341 -0.016235 
-0.007419 -0.016227 
-0.023861 -0.093573 
-0.021576 -0.107100 
-0.025428 -0.064511 
-0.025264 -0.079343 
-0.018529 -0.078732 
-0.021730 -0.078987 
-0.018747 -0.063850 
-0.014363 -0.032487 
-0.017516 -0.048395 
-0.020454 -0.048651 
0.000000 -0.016489 
-0.000480 -0.016487 
0.000000 0.000000 
-0.001333 -0.048188 
-0.000929 -0.032558 
-0.000000 -0.048186 
0.000000 0.000000 
-0.000969 -0.016480 
-0.001474 -0.016467 
-0.002321 -0.105444 
-0.002181 -0.092020 
-0.000000 -0.105412 
-0.005160 -0.063385 
-0.003966 -0.078005 
-0.006031 -0.078067 
-0.000000 -0.077952 
-0.001967 -0.077967 
-0.001682 -0.063339 
0.000000 0.000000 
-0.003183 -0.016392 
-0.003850 -0.016355 
-0.002006 -0.016449 
-0.002572 -0.016424 
0.000000 0.000000 
-0.007129 -0.048199 
-0.004972 -0.032501 
-0.005563 -0.048197 
-0.002689 -0.048191 
-0.004091 -0.048194 
-0.002851 -0.032541 
-0.001307 -0.176996 
-0.000000 -0.183266 
-0.005880 -0.161744 
-0.003307 -0.169837 
-0.000000 -0.169453 
-0.001636 -0.169551 
-0.001913 -0.161098 
-0.018700 -0.119837 
-0.015481 -0.131714 
-0.009853 -0.130879 
-0.012582 -0.131270 
-0.012653 -0.119065 
-0.012140 -0.142677 
-0.008879 -0.152692 
-0.000000 -0.130119 
-0.002372 -0.130171 
-0.002384 -0.118180 
-0.002132 -0.151684 
-0.002287 -0.141357 
-0.000000 -0.151611 
-0.007301 -0.118490 
-0.004781 -0.130319 
-0.007263 -0.130558 
-0.006538 -0.152238 
-0.007004 -0.141825 
-0.004300 -0.151896 
-0.007441 -0.032438 
-0.008984 -0.063469 
-0.008818 -0.048201 
-0.010659 -0.048207 
-0.013409 -0.063599 
-0.004678 -0.105534 
-0.009648 -0.105876 
-0.007109 -0.105679 
-0.006684 -0.092185 
-0.008193 -0.078151 
-0.018266 -0.106733 
-0.015617 -0.078538 
-0.017241 -0.092943 
-0.015194 -0.106406 
-0.012332 -0.106119 
-0.010488 -0.078256 
-0.011610 -0.092495 
-0.012950 -0.078384 
0.000000 0.000000 
0.000480 -0.016487 
0.001474 -0.016467 
0.000969 -0.016480 
0.000000 0.000000 
0.000929 -0.032558 
0.001333 -0.048188 
0.003850 -0.016355 
0.003183 -0.016392 
0.000000 0.000000 
0.005563 -0.048197 
0.004972 -0.032501 
0.007129 -0.048199 
0.000000 0.000000 
0.002572 -0.016424 
0.002006 -0.016449 
0.002181 -0.092020 
0.002321 -0.105444 
0.001682 -0.063339 
0.001967 -0.077967 
0.006031 -0.078067 
0.003966 -0.078005 
0.005160 -0.063385 
0.002851 -0.032541 
0.004091 -0.048194 
0.002689 -0.048191 
0.016377 -0.019432 
0.012589 -0.017192 
0.000000 0.000000 
0.023887 -0.049178 
0.019971 -0.033420 
0.027972 -0.050235 
0.000000 0.000000 
0.010329 -0.016514 
0.008707 -0.016287 
0.021576 -0.107100 
0.023861 -0.093573 
0.025150 -0.107513 
0.018747 -0.063850 
0.021730 -0.078987 
0.018529 -0.078732 
0.029177 -0.079867 
0.025264 -0.079343 
0.025428 -0.064511 
0.000000 0.000000 
0.005409 -0.016270 
0.004586 -0.016313 
0.007419 -0.016227 
0.006341 -0.016235 
0.000000 0.000000 
0.012690 -0.048226 
0.010457 -0.032383 
0.014956 -0.048277 
0.020454 -0.048651 
0.017516 -0.048395 
0.014363 -0.032487 
0.001307 -0.176996 
0.000933 -0.183389 
0.001913 -0.161098 
0.001636 -0.169551 
0.005047 -0.170297 
0.003307 -0.169837 
0.005880 -0.161744 
0.002384 -0.118180 
0.002372 -0.130171 
0.007263 -0.130558 
0.004781 -0.130319 
0.007301 -0.118490 
0.002287 -0.141357 
0.002132 -0.151684 
0.018570 -0.132194 
0.015481 -0.131714 
0.018700 -0.119837 
0.008879 -0.152692 
0.012140 -0.142677 
0.011352 -0.153235 
0.012653 -0.119065 
0.012582 -0.131270 
0.009853 -0.130879 
0.004300 -0.151896 
0.007004 -0.141825 
0.006538 -0.152238 
0.007441 -0.032438 
0.013409 -0.063599 
0.010659 -0.048207 
0.008818 -0.048201 
0.008984 -0.063469 
0.018266 -0.106733 
0.012332 -0.106119 
0.015194 -0.106406 
0.017241 -0.092943 
0.015617 -0.078538 
0.004678 -0.105534 
0.008193 -0.078151 
0.006684 -0.092185 
0.007109 -0.105679 
0.009648 -0.105876 
0.012950 -0.078384 
0.011610 -0.092495 
0.010488 -0.078256 
0.023386 -0.028413 
0.029508 -0.038738 
0.044578 -0.071608 
0.038529 -0.056045 
0.044316 -0.061949 
0.032867 -0.052291 
0.034025 -0.066462 
0.050650 -0.122363 
0.051150 -0.111033 
0.055388 -0.111153 
0.042031 -0.109806 
0.046638 -0.110492 
0.042076 -0.122428 
0.053271 -0.088360 
0.050482 -0.098885 
0.048403 -0.085801 
0.028998 -0.107980 
0.025635 -0.120730 
0.033501 -0.080657 
0.031714 -0.094567 
0.033508 -0.121659 
0.033120 -0.108515 
0.037487 -0.109127 
0.043271 -0.083548 
0.040818 -0.096289 
0.038229 -0.081842 
0.021812 -0.190362 
0.026902 -0.183726 
0.029460 -0.179278 
0.021700 -0.189023 
0.024298 -0.186914 
0.017026 -0.195812 
0.039126 -0.165150 
0.031728 -0.176617 
0.036218 -0.169006 
0.012216 -0.190090 
0.014380 -0.190613 
0.008710 -0.196530 
0.027071 -0.174570 
0.020556 -0.183242 
0.024058 -0.174997 
0.012562 -0.197410 
0.016701 -0.190708 
0.019153 -0.190231 
0.052910 -0.131302 
0.046876 -0.142877 
0.049175 -0.132958 
0.040297 -0.160866 
0.043881 -0.152167 
0.047180 -0.149221 
0.036854 -0.155341 
0.040417 -0.154139 
0.033751 -0.164792 
0.026094 -0.181606 
0.030137 -0.173538 
0.033204 -0.171741 
0.001898 -0.183766 
0.000514 -0.188689 
0.006889 -0.170907 
0.004060 -0.177855 
0.001700 -0.189830 
0.002938 -0.184378 
0.004084 -0.185190 
0.021867 -0.132688 
0.017915 -0.143750 
0.015214 -0.164297 
0.016780 -0.154462 
0.019762 -0.155063 
0.013980 -0.153838 
0.010247 -0.162900 
0.005627 -0.194365 
0.008425 -0.188278 
0.010228 -0.189273 
0.005366 -0.186154 
0.006807 -0.187208 
0.003330 -0.191887 
0.015726 -0.173973 