# vtk DataFile Version 2.0
Unstructured Grid Example
ASCII
DATASET UNSTRUCTURED_GRID

POINTS 9 float
0.016676 -0.267767 0.000000 
0.983324 -0.267767 0.000000 
1.000000 1.000000 0.000000 
0.000000 1.000000 0.000000 
0.500000 -0.061066 0.000000 
0.959329 0.309698 0.000000 
0.500000 1.000000 0.000000 
0.040671 0.309698 0.000000 
0.500000 0.339649 0.000000 

CELLS 8 32
3  0 4 8 
3  4 1 8 
3  1 5 8 
3  5 2 8 
3  2 6 8 
3  6 3 8 
3  3 7 8 
3  7 0 8 

CELL_TYPES 8
5
5
5
5
5
5
5
5

POINT_DATA 9

SCALARS u_h float 2
LOOKUP_TABLE default
0.016676 -0.267767 
-0.016676 -0.267767 
0.000000 0.000000 
0.000000 0.000000 
-0.000000 -0.061066 
-0.040671 -0.190302 
0.000000 0.000000 
0.040671 -0.190302 
-0.000000 -0.160351 

CELL_DATA 8

SCALARS epsilon float 4
LOOKUP_TABLE default
-0.033907 -0.074694 0.000000 0.257608
-0.033907 -0.074694 0.000000 -0.257608
-0.086286 0.142083 0.000000 -0.051382
-0.078777 0.318326 0.000000 0.019299
0.000000 0.272309 0.000000 0.000000
0.000000 0.272309 0.000000 0.000000
-0.078777 0.318326 0.000000 -0.019299
-0.086286 0.142083 0.000000 0.051382

SCALARS sigma float 4
LOOKUP_TABLE default
-3.388544 -6.886090 -2.822702 4.375745
-3.388544 -6.886090 -2.822702 -4.375745
-1.097679 2.564381 0.402940 -0.836125
0.556936 6.507333 1.940733 0.138081
2.428265 6.410620 2.428265 0.000000
2.428265 6.410620 2.428265 0.000000
0.556936 6.507333 1.940733 -0.138081
-1.097679 2.564381 0.402940 0.836125

