# vtk DataFile Version 2.0
Unstructured Grid Example
ASCII
DATASET UNSTRUCTURED_GRID

POINTS 1089 float
-0.015934 -0.253283 0.000000 
1.015934 -0.253283 0.000000 
1.000000 1.000000 0.000000 
0.000000 1.000000 0.000000 
0.500000 -0.099765 0.000000 
0.975854 0.314590 0.000000 
0.500000 1.000000 0.000000 
0.024146 0.314590 0.000000 
0.500000 0.311317 0.000000 
0.226387 -0.174723 0.000000 
0.500000 0.062969 0.000000 
0.229393 0.038278 0.000000 
0.773613 -0.174723 0.000000 
0.770607 0.038278 0.000000 
1.016755 0.022722 0.000000 
0.742968 0.304862 0.000000 
0.945791 0.628478 0.000000 
0.728182 0.629996 0.000000 
0.750000 1.000000 0.000000 
0.500000 0.632151 0.000000 
0.250000 1.000000 0.000000 
0.271818 0.629996 0.000000 
0.054209 0.628478 0.000000 
0.257032 0.304862 0.000000 
-0.016755 0.022722 0.000000 
0.110184 -0.234046 0.000000 
0.221061 -0.073523 0.000000 
0.095591 -0.107310 0.000000 
0.500000 -0.030169 0.000000 
0.356978 -0.042197 0.000000 
0.353589 -0.121236 0.000000 
0.369912 0.173385 0.000000 
0.362432 0.055864 0.000000 
0.500000 0.177335 0.000000 
0.646411 -0.121236 0.000000 
0.643022 -0.042197 0.000000 
0.904409 -0.107310 0.000000 
0.778939 -0.073523 0.000000 
0.889816 -0.234046 0.000000 
0.637568 0.055864 0.000000 
0.630088 0.173385 0.000000 
1.025132 -0.119162 0.000000 
0.896536 0.021765 0.000000 
0.860268 0.303323 0.000000 
0.879298 0.157810 0.000000 
0.997634 0.166785 0.000000 
0.757042 0.164125 0.000000 
0.622607 0.309603 0.000000 
0.956820 0.467634 0.000000 
0.844739 0.459654 0.000000 
0.846099 0.810008 0.000000 
0.837616 0.628189 0.000000 
0.950908 0.799534 0.000000 
0.732154 0.460387 0.000000 
0.617028 0.463038 0.000000 
0.875000 1.000000 0.000000 
0.734300 0.811437 0.000000 
0.500000 0.811835 0.000000 
0.618077 0.811690 0.000000 
0.625000 1.000000 0.000000 
0.615189 0.631487 0.000000 
0.500000 0.464270 0.000000 
0.375000 1.000000 0.000000 
0.381923 0.811690 0.000000 
0.153901 0.810008 0.000000 
0.265700 0.811437 0.000000 
0.125000 1.000000 0.000000 
0.384811 0.631487 0.000000 
0.382972 0.463038 0.000000 
0.049092 0.799534 0.000000 
0.162384 0.628189 0.000000 
0.139732 0.303323 0.000000 
0.155261 0.459654 0.000000 
0.043180 0.467634 0.000000 
0.267846 0.460387 0.000000 
0.377393 0.309603 0.000000 
0.002366 0.166785 0.000000 
0.120702 0.157810 0.000000 
0.103464 0.021765 0.000000 
-0.025132 -0.119162 0.000000 
0.242958 0.164125 0.000000 
0.046820 -0.246166 0.000000 
0.098828 -0.170814 0.000000 
0.038434 -0.182207 0.000000 
0.221223 -0.124883 0.000000 
0.158874 -0.150288 0.000000 
0.169931 -0.208810 0.000000 
0.159896 -0.032598 0.000000 
0.157092 -0.092021 0.000000 
0.224192 -0.019273 0.000000 
0.500000 -0.068235 0.000000 
0.426811 -0.072292 0.000000 
0.425303 -0.105354 0.000000 
0.429288 0.011274 0.000000 
0.427964 -0.033257 0.000000 
0.500000 0.013666 0.000000 
0.287091 -0.145162 0.000000 
0.355342 -0.084003 0.000000 
0.286713 -0.102064 0.000000 
0.436675 0.241366 0.000000 
0.434730 0.176321 0.000000 
0.500000 0.242031 0.000000 
0.295111 0.047851 0.000000 
0.366050 0.112223 0.000000 
0.300297 0.106274 0.000000 
0.500000 0.117578 0.000000 
0.432766 0.116188 0.000000 
0.430911 0.061127 0.000000 
0.287834 -0.056103 0.000000 
0.359331 0.004387 0.000000 
0.290786 -0.006245 0.000000 
0.574697 -0.105354 0.000000 
0.573189 -0.072292 0.000000 
0.713287 -0.102064 0.000000 
0.644658 -0.084003 0.000000 
0.712909 -0.145162 0.000000 
0.572036 -0.033257 0.000000 
0.570712 0.011274 0.000000 
0.961566 -0.182207 0.000000 
0.901172 -0.170814 0.000000 
0.953180 -0.246166 0.000000 
0.775808 -0.019273 0.000000 
0.842908 -0.092021 0.000000 
0.840104 -0.032598 0.000000 
0.830069 -0.208810 0.000000 
0.841126 -0.150288 0.000000 
0.778777 -0.124883 0.000000 
0.565270 0.176321 0.000000 
0.563325 0.241366 0.000000 
0.569089 0.061127 0.000000 
0.567234 0.116188 0.000000 
0.699703 0.106274 0.000000 
0.633950 0.112223 0.000000 
0.704889 0.047851 0.000000 
0.712166 -0.056103 0.000000 
0.709214 -0.006245 0.000000 
0.640669 0.004387 0.000000 
1.022504 -0.188018 0.000000 
0.964971 -0.116285 0.000000 
0.957198 0.019091 0.000000 
0.963086 -0.049158 0.000000 
1.022905 -0.048565 0.000000 
0.902279 -0.043384 0.000000 
0.834464 0.028870 0.000000 
0.918105 0.306605 0.000000 
0.928391 0.232136 0.000000 
0.986682 0.240043 0.000000 
0.810211 0.229939 0.000000 
0.869667 0.229289 0.000000 
0.801969 0.303176 0.000000 
1.007958 0.094451 0.000000 
0.938820 0.159531 0.000000 
0.948721 0.088588 0.000000 
0.626231 0.239231 0.000000 
0.561467 0.311153 0.000000 
0.764142 0.099365 0.000000 
0.694102 0.169027 0.000000 
0.683165 0.307291 0.000000 
0.688471 0.236062 0.000000 
0.749830 0.232621 0.000000 
0.888526 0.088712 0.000000 
0.818766 0.159892 0.000000 
0.827074 0.092928 0.000000 
0.965667 0.390206 0.000000 
0.908666 0.383122 0.000000 
0.894604 0.543357 0.000000 
0.900617 0.461954 0.000000 
0.949923 0.546993 0.000000 
0.851790 0.380052 0.000000 
0.794641 0.379659 0.000000 
0.914296 0.902823 0.000000 
0.899074 0.806812 0.000000 
0.964969 0.891974 0.000000 
0.783339 0.629086 0.000000 
0.839337 0.717458 0.000000 
0.785246 0.718739 0.000000 
0.945547 0.712416 0.000000 
0.892359 0.715250 0.000000 
0.891461 0.627642 0.000000 
0.619436 0.384282 0.000000 
0.559825 0.385440 0.000000 
0.736931 0.380801 0.000000 
0.678523 0.382572 0.000000 
0.672678 0.544599 0.000000 
0.674923 0.461747 0.000000 
0.729084 0.543516 0.000000 
0.839752 0.542304 0.000000 
0.784722 0.542603 0.000000 
0.788703 0.459455 0.000000 
0.937500 1.000000 0.000000 
0.858556 0.904858 0.000000 
0.741276 0.905149 0.000000 
0.800468 0.905173 0.000000 
0.812500 1.000000 0.000000 
0.790986 0.811079 0.000000 
0.729855 0.719485 0.000000 
0.500000 0.905025 0.000000 
0.560653 0.905006 0.000000 
0.562500 1.000000 0.000000 
0.558152 0.720606 0.000000 
0.559151 0.811768 0.000000 
0.500000 0.720741 0.000000 
0.687500 1.000000 0.000000 
0.621174 0.905025 0.000000 
0.681434 0.905077 0.000000 
0.558634 0.463931 0.000000 
0.500000 0.385795 0.000000 
0.672083 0.630818 0.000000 
0.615559 0.545567 0.000000 
0.500000 0.546514 0.000000 
0.557913 0.546236 0.000000 
0.557736 0.631943 0.000000 
0.676548 0.811591 0.000000 
0.616029 0.720355 0.000000 
0.673357 0.719988 0.000000 
0.437500 1.000000 0.000000 
0.439347 0.905006 0.000000 
0.318566 0.905077 0.000000 
0.378826 0.905025 0.000000 
0.312500 1.000000 0.000000 
0.440849 0.811768 0.000000 
0.441848 0.720606 0.000000 
0.085704 0.902823 0.000000 
0.141444 0.904858 0.000000 
0.062500 1.000000 0.000000 
0.270145 0.719485 0.000000 
0.209014 0.811079 0.000000 
0.214754 0.718739 0.000000 
0.187500 1.000000 0.000000 
0.199532 0.905173 0.000000 
0.258724 0.905149 0.000000 
0.441366 0.463931 0.000000 
0.440175 0.385440 0.000000 
0.442264 0.631943 0.000000 
0.442087 0.546236 0.000000 
0.327322 0.544599 0.000000 
0.384441 0.545567 0.000000 
0.327917 0.630818 0.000000 
0.323452 0.811591 0.000000 
0.326643 0.719988 0.000000 
0.383971 0.720355 0.000000 
0.035031 0.891974 0.000000 
0.100926 0.806812 0.000000 
0.108539 0.627642 0.000000 
0.107641 0.715250 0.000000 
0.054453 0.712416 0.000000 
0.160663 0.717458 0.000000 
0.216661 0.629086 0.000000 
0.081895 0.306605 0.000000 
0.091334 0.383122 0.000000 
0.034333 0.390206 0.000000 
0.205359 0.379659 0.000000 
0.148210 0.380052 0.000000 
0.198031 0.303176 0.000000 
0.050077 0.546993 0.000000 
0.099383 0.461954 0.000000 
0.105396 0.543357 0.000000 
0.380564 0.384282 0.000000 
0.438533 0.311153 0.000000 
0.270916 0.543516 0.000000 
0.325077 0.461747 0.000000 
0.316835 0.307291 0.000000 
0.321477 0.382572 0.000000 
0.263069 0.380801 0.000000 
0.160248 0.542304 0.000000 
0.211297 0.459455 0.000000 
0.215278 0.542603 0.000000 
0.013318 0.240043 0.000000 
0.071609 0.232136 0.000000 
0.051279 0.088588 0.000000 
0.061180 0.159531 0.000000 
-0.007958 0.094451 0.000000 
0.130333 0.229289 0.000000 
0.189789 0.229939 0.000000 
0.035029 -0.116285 0.000000 
-0.022504 -0.188018 0.000000 
0.165536 0.028870 0.000000 
0.097721 -0.043384 0.000000 
-0.022905 -0.048565 0.000000 
0.036914 -0.049158 0.000000 
0.042802 0.019091 0.000000 
0.373769 0.239231 0.000000 
0.250170 0.232621 0.000000 
0.311529 0.236062 0.000000 
0.305898 0.169027 0.000000 
0.235858 0.099365 0.000000 
0.111474 0.088712 0.000000 
0.172926 0.092928 0.000000 
0.181234 0.159892 0.000000 
0.015277 -0.249882 0.000000 
0.042181 -0.214532 0.000000 
0.011322 -0.218123 0.000000 
0.103239 -0.202566 0.000000 
0.072879 -0.209595 0.000000 
0.078585 -0.241153 0.000000 
0.066243 -0.145131 0.000000 
0.068744 -0.177484 0.000000 
0.096404 -0.139065 0.000000 
0.223101 -0.149794 0.000000 
0.192500 -0.164286 0.000000 
0.197888 -0.191139 0.000000 
0.188528 -0.110402 0.000000 
0.189625 -0.137499 0.000000 
0.220627 -0.099524 0.000000 
0.140947 -0.223907 0.000000 
0.162649 -0.179394 0.000000 
0.133116 -0.192725 0.000000 
0.194250 0.003318 0.000000 
0.191749 -0.026062 0.000000 
0.226590 0.009073 0.000000 
0.126126 -0.100368 0.000000 
0.158056 -0.062519 0.000000 
0.126857 -0.069565 0.000000 
0.222305 -0.046791 0.000000 
0.189850 -0.054765 0.000000 
0.188707 -0.082854 0.000000 
0.128769 -0.161779 0.000000 
0.157242 -0.121227 0.000000 
0.126643 -0.131048 0.000000 
0.500000 -0.084894 0.000000 
0.462925 -0.086081 0.000000 
0.462475 -0.101176 0.000000 
0.463605 -0.050839 0.000000 
0.463289 -0.069250 0.000000 
0.500000 -0.049956 0.000000 
0.388896 -0.112130 0.000000 
0.426154 -0.089626 0.000000 
0.389965 -0.095392 0.000000 
0.464988 0.037108 0.000000 
0.464595 0.013057 0.000000 
0.500000 0.037645 0.000000 
0.392282 -0.037038 0.000000 
0.428590 -0.011665 0.000000 
0.393162 -0.014985 0.000000 
0.500000 -0.008948 0.000000 
0.464238 -0.009637 0.000000 
0.463912 -0.030948 0.000000 
0.256044 -0.159361 0.000000 
0.286811 -0.123868 0.000000 
0.254484 -0.136277 0.000000 
0.354587 -0.103183 0.000000 
0.320177 -0.112758 0.000000 
0.319614 -0.132355 0.000000 
0.321248 -0.070985 0.000000 
0.320635 -0.092337 0.000000 
0.356094 -0.063684 0.000000 
0.427387 -0.053479 0.000000 
0.391506 -0.057799 0.000000 
0.390773 -0.077260 0.000000 
[...]
POINT_DATA 1089

SCALARS u_h float 2
LOOKUP_TABLE default
-0.015934 -0.253283 
0.015934 -0.253283 
0.000000 0.000000 
0.000000 0.000000 
0.000000 -0.099765 
-0.024146 -0.185410 
0.000000 0.000000 
0.024146 -0.185410 
0.000000 -0.188683 
-0.023613 -0.174723 
0.000000 -0.187031 
-0.020607 -0.211722 
0.023613 -0.174723 
0.020607 -0.211722 
0.016755 -0.227278 
-0.007032 -0.195138 
-0.054209 -0.121522 
-0.021818 -0.120004 
0.000000 0.000000 
0.000000 -0.117849 
0.000000 0.000000 
0.021818 -0.120004 
0.054209 -0.121522 
0.007032 -0.195138 
-0.016755 -0.227278 
-0.014816 -0.234046 
-0.028939 -0.198523 
-0.029409 -0.232310 
0.000000 -0.155169 
-0.018022 -0.167197 
-0.021411 -0.121236 
-0.005088 -0.201615 
-0.012568 -0.194136 
0.000000 -0.197665 
0.021411 -0.121236 
0.018022 -0.167197 
0.029409 -0.232310 
0.028939 -0.198523 
0.014816 -0.234046 
0.012568 -0.194136 
0.005088 -0.201615 
0.025132 -0.244162 
0.021536 -0.228235 
-0.014732 -0.196677 
0.004298 -0.217190 
-0.002366 -0.208215 
0.007042 -0.210875 
-0.002393 -0.190397 
-0.043180 -0.157366 
-0.030261 -0.165346 
-0.028901 -0.064992 
-0.037384 -0.121811 
-0.049092 -0.075466 
-0.017846 -0.164613 
-0.007972 -0.161962 
0.000000 0.000000 
-0.015700 -0.063563 
0.000000 -0.063165 
-0.006923 -0.063310 
0.000000 0.000000 
-0.009811 -0.118513 
0.000000 -0.160730 
0.000000 0.000000 
0.006923 -0.063310 
0.028901 -0.064992 
0.015700 -0.063563 
0.000000 0.000000 
0.009811 -0.118513 
0.007972 -0.161962 
0.049092 -0.075466 
0.037384 -0.121811 
0.014732 -0.196677 
0.030261 -0.165346 
0.043180 -0.157366 
0.017846 -0.164613 
0.002393 -0.190397 
0.002366 -0.208215 
-0.004298 -0.217190 
-0.021536 -0.228235 
-0.025132 -0.244162 
-0.007042 -0.210875 
-0.015680 -0.246166 
-0.026172 -0.233314 
-0.024066 -0.244707 
-0.028777 -0.187383 
-0.028626 -0.212788 
-0.017569 -0.208810 
-0.027604 -0.220098 
-0.030408 -0.217021 
-0.025808 -0.206773 
0.000000 -0.130735 
-0.010689 -0.134792 
-0.012197 -0.105354 
-0.008212 -0.176226 
-0.009536 -0.158257 
0.000000 -0.173834 
-0.025409 -0.145162 
-0.019658 -0.146503 
-0.025787 -0.164564 
-0.000825 -0.196134 
-0.002770 -0.198679 
0.000000 -0.195469 
-0.017389 -0.202149 
-0.008950 -0.200277 
-0.012203 -0.206226 
0.000000 -0.194922 
-0.004734 -0.196312 
-0.006589 -0.188873 
-0.024666 -0.181103 
-0.015669 -0.183113 
-0.021714 -0.193745 
0.012197 -0.105354 
0.010689 -0.134792 
0.025787 -0.164564 
0.019658 -0.146503 
0.025409 -0.145162 
0.009536 -0.158257 
0.008212 -0.176226 
0.024066 -0.244707 
0.026172 -0.233314 
0.015680 -0.246166 
0.025808 -0.206773 
0.030408 -0.217021 
0.027604 -0.220098 
0.017569 -0.208810 
0.028626 -0.212788 
0.028777 -0.187383 
0.002770 -0.198679 
0.000825 -0.196134 
0.006589 -0.188873 
0.004734 -0.196312 
0.012203 -0.206226 
0.008950 -0.200277 
0.017389 -0.202149 
0.024666 -0.181103 
0.021714 -0.193745 
0.015669 -0.183113 
0.022504 -0.250518 
0.027471 -0.241285 
0.019698 -0.230909 
0.025586 -0.236658 
0.022905 -0.236065 
0.027279 -0.230884 
0.021964 -0.221130 
-0.019395 -0.193395 
-0.009109 -0.205364 
-0.013318 -0.197457 
-0.002289 -0.207561 
-0.005333 -0.208211 
-0.010531 -0.196824 
0.007958 -0.218049 
0.001320 -0.215469 
0.011221 -0.223912 
0.001231 -0.198269 
-0.001033 -0.188847 
0.014142 -0.213135 
0.006602 -0.205973 
-0.004335 -0.192709 
0.000971 -0.201438 
-0.000170 -0.204879 
0.013526 -0.223788 
0.006266 -0.215108 
0.014574 -0.219572 
-0.034333 -0.172294 
-0.028834 -0.179378 
-0.042896 -0.144143 
-0.036883 -0.163046 
-0.050077 -0.140507 
-0.023210 -0.182448 
-0.017859 -0.182841 
-0.023204 -0.034677 
-0.038426 -0.068188 
-0.035031 -0.045526 
-0.029161 -0.120914 
-0.035663 -0.095042 
-0.027254 -0.093761 
-0.054453 -0.100084 
-0.045141 -0.097250 
-0.046039 -0.122358 
-0.005564 -0.178218 
-0.002675 -0.177060 
-0.013069 -0.181699 
-0.008977 -0.179928 
-0.014822 -0.142901 
-0.012577 -0.163253 
-0.020916 -0.143984 
-0.035248 -0.145196 
-0.027778 -0.144897 
-0.023797 -0.165545 
0.000000 0.000000 
-0.016444 -0.032642 
-0.008724 -0.032351 
-0.012032 -0.032327 
0.000000 0.000000 
-0.021514 -0.063921 
-0.020145 -0.093015 
0.000000 -0.032475 
-0.001847 -0.032494 
0.000000 0.000000 
-0.004348 -0.091894 
-0.003349 -0.063232 
0.000000 -0.091759 
0.000000 0.000000 
-0.003826 -0.032475 
-0.006066 -0.032423 
-0.003866 -0.161069 
0.000000 -0.176705 
-0.015417 -0.119182 
-0.009441 -0.141933 
0.000000 -0.140986 
-0.004587 -0.141264 
-0.004764 -0.118057 
-0.010952 -0.063409 
-0.008971 -0.092145 
-0.014143 -0.092512 
0.000000 0.000000 
0.001847 -0.032494 
0.006066 -0.032423 
0.003826 -0.032475 
0.000000 0.000000 
0.003349 -0.063232 
0.004348 -0.091894 
0.023204 -0.034677 
0.016444 -0.032642 
0.000000 0.000000 
0.020145 -0.093015 
0.021514 -0.063921 
0.027254 -0.093761 
0.000000 0.000000 
0.012032 -0.032327 
0.008724 -0.032351 
0.003866 -0.161069 
0.002675 -0.177060 
0.004764 -0.118057 
0.004587 -0.141264 
0.014822 -0.142901 
0.009441 -0.141933 
0.015417 -0.119182 
0.010952 -0.063409 
0.014143 -0.092512 
0.008971 -0.092145 
0.035031 -0.045526 
0.038426 -0.068188 
0.046039 -0.122358 
0.045141 -0.097250 
0.054453 -0.100084 
0.035663 -0.095042 
0.029161 -0.120914 
0.019395 -0.193395 
0.028834 -0.179378 
0.034333 -0.172294 
0.017859 -0.182841 
0.023210 -0.182448 
0.010531 -0.196824 
0.050077 -0.140507 
0.036883 -0.163046 
0.042896 -0.144143 
0.005564 -0.178218 
0.001033 -0.188847 
0.020916 -0.143984 
0.012577 -0.163253 
0.004335 -0.192709 
0.008977 -0.179928 
0.013069 -0.181699 
0.035248 -0.145196 
0.023797 -0.165545 
0.027778 -0.144897 
0.013318 -0.197457 
0.009109 -0.205364 
-0.011221 -0.223912 
-0.001320 -0.215469 
-0.007958 -0.218049 
0.005333 -0.208211 
0.002289 -0.207561 
-0.027471 -0.241285 
-0.022504 -0.250518 
-0.021964 -0.221130 
-0.027279 -0.230884 
-0.022905 -0.236065 
-0.025586 -0.236658 
-0.019698 -0.230909 
-0.001231 -0.198269 
0.000170 -0.204879 
-0.000971 -0.201438 
-0.006602 -0.205973 
-0.014142 -0.213135 
-0.013526 -0.223788 
-0.014574 -0.219572 
-0.006266 -0.215108 
-0.015973 -0.249882 
-0.020319 -0.245782 
-0.019928 -0.249373 
-0.021761 -0.233816 
-0.020871 -0.240845 
-0.015165 -0.241153 
-0.027507 -0.238881 
-0.025006 -0.239984 
-0.028596 -0.232815 
-0.026899 -0.181044 
-0.026250 -0.195536 
-0.020862 -0.191139 
-0.030222 -0.204152 
-0.029125 -0.199999 
-0.029373 -0.193274 
-0.015303 -0.223907 
-0.024851 -0.210644 
-0.023134 -0.223975 
-0.024500 -0.215432 
-0.027001 -0.213562 
-0.023410 -0.209677 
-0.030124 -0.225368 
-0.029444 -0.218769 
-0.029393 -0.225815 
-0.027695 -0.203041 
-0.028900 -0.211015 
-0.030043 -0.207854 
-0.027481 -0.224279 
-0.030258 -0.214977 
-0.029607 -0.224798 
0.000000 -0.116144 
-0.005825 -0.117331 
-0.006275 -0.101176 
-0.005145 -0.144589 
-0.005461 -0.131750 
0.000000 -0.143706 
-0.017354 -0.112130 
-0.011346 -0.120876 
-0.016285 -0.126642 
-0.003762 -0.181642 
-0.004155 -0.174443 
0.000000 -0.181105 
-0.013968 -0.162038 
-0.008910 -0.167915 
-0.013088 -0.171235 
0.000000 -0.165198 
-0.004512 -0.165887 
-0.004838 -0.155948 
-0.025206 -0.159361 
-0.025689 -0.155118 
-0.026766 -0.167527 
-0.020413 -0.134433 
-0.023573 -0.144008 
-0.024136 -0.132355 
-0.022502 -0.164735 
-0.023115 -0.154837 
-0.018906 -0.157434 
-0.010113 -0.147229 
-0.014744 -0.151549 
-0.015477 -0.139760 
0.000007 -0.192660 
-0.000452 -0.195607 
0.000000 -0.192618 
-0.004009 -0.199929 
-0.001789 -0.198010 
-0.002540 -0.199076 
0.000000 -0.197168 
-0.000928 -0.197367 
-0.001417 -0.197916 
-0.019221 -0.206836 
-0.014875 -0.204729 
-0.016383 -0.208739 
-0.010806 -0.197812 
-0.013000 -0.201036 
-0.015154 -0.197860 
-0.008363 -0.203929 
-0.010722 -0.203057 
-0.007033 -0.201540 
0.000000 -0.191631 
-0.002878 -0.192040 
-0.003334 -0.187502 
-0.001911 -0.197227 
-0.002401 -0.195275 
0.000000 -0.196926 
-0.009690 -0.191107 
-0.005683 -0.193236 
-0.008347 -0.195181 
-0.005482 -0.199577 
-0.006936 -0.197999 
-0.003757 -0.198120 
-0.027665 -0.175480 
-0.021612 -0.173605 
-0.025469 -0.173278 
-0.027770 -0.182870 
-0.027127 -0.189493 
-0.007436 -0.183208 
-0.014200 -0.189237 
-0.010941 -0.185764 
-0.012079 -0.179142 
-0.016948 -0.175763 
-0.021797 -0.203942 
-0.025844 -0.195244 
-0.024034 -0.200071 
-0.019690 -0.198485 
-0.017138 -0.193524 
-0.020408 -0.181383 
-0.018905 -0.188030 
-0.023395 -0.187942 
0.006275 -0.101176 
0.005825 -0.117331 
0.016285 -0.126642 
0.011346 -0.120876 
0.017354 -0.112130 
0.005461 -0.131750 
0.005145 -0.144589 
0.026766 -0.167527 
0.025689 -0.155118 
0.025206 -0.159361 
0.018906 -0.157434 
0.023115 -0.154837 
0.022502 -0.164735 
0.024136 -0.132355 
0.023573 -0.144008 
0.020413 -0.134433 
0.004155 -0.174443 
0.003762 -0.181642 
0.004838 -0.155948 
0.004512 -0.165887 
0.013088 -0.171235 
0.008910 -0.167915 
0.013968 -0.162038 
0.015477 -0.139760 
0.014744 -0.151549 
0.010113 -0.147229 
0.019928 -0.249373 
0.020319 -0.245782 
0.015973 -0.249882 
0.028596 -0.232815 
0.025006 -0.239984 
0.027507 -0.238881 
0.015165 -0.241153 
0.020871 -0.240845 
0.021761 -0.233816 
0.023410 -0.209677 
0.027001 -0.213562 
0.024500 -0.215432 
0.030043 -0.207854 
0.028900 -0.211015 
0.027695 -0.203041 
0.029393 -0.225815 
0.029444 -0.218769 
0.030124 -0.225368 
0.020862 -0.191139 
0.026250 -0.195536 
0.026899 -0.181044 
0.023134 -0.223975 
0.024851 -0.210644 
0.015303 -0.223907 
0.029373 -0.193274 
0.029125 -0.199999 
0.030222 -0.204152 
0.029607 -0.224798 
0.030258 -0.214977 
0.027481 -0.224279 
0.000452 -0.195607 
-0.000007 -0.192660 
0.001417 -0.197916 
0.000928 -0.197367 
0.002540 -0.199076 
0.001789 -0.198010 
0.004009 -0.199929 
0.003334 -0.187502 
0.002878 -0.192040 
0.008347 -0.195181 
0.005683 -0.193236 
0.009690 -0.191107 
0.002401 -0.195275 
0.001911 -0.197227 
0.016383 -0.208739 
0.014875 -0.204729 
0.019221 -0.206836 
0.007033 -0.201540 
0.010722 -0.203057 
0.008363 -0.203929 
0.015154 -0.197860 
0.013000 -0.201036 
0.010806 -0.197812 
0.003757 -0.198120 
0.006936 -0.197999 
0.005482 -0.199577 
0.027665 -0.175480 
0.027127 -0.189493 
0.027770 -0.182870 
0.025469 -0.173278 
0.021612 -0.173605 
0.021797 -0.203942 
0.017138 -0.193524 
0.019690 -0.198485 
0.024034 -0.200071 
0.025844 -0.195244 
0.007436 -0.183208 
0.016948 -0.175763 
0.012079 -0.179142 
0.010941 -0.185764 
0.014200 -0.189237 
0.023395 -0.187942 
0.018905 -0.188030 
0.020408 -0.181383 
0.019516 -0.252462 
0.023294 -0.248021 
0.026395 -0.243429 
0.025510 -0.245985 
0.024439 -0.247663 
0.026480 -0.243168 
0.028481 -0.237615 
0.018357 -0.230001 
0.021783 -0.233730 
0.020240 -0.231728 
0.024054 -0.232539 
0.023050 -0.233929 
0.020768 -0.230245 
0.024586 -0.240242 
0.024382 -0.237232 
0.025976 -0.240482 
0.025063 -0.220911 
0.021522 -0.216573 
0.028893 -0.231703 
0.027664 -0.225995 
0.021953 -0.225111 
0.025130 -0.225790 
0.024768 -0.229755 
0.027121 -0.239109 
0.026559 -0.234497 
0.028100 -0.236171 
-0.021788 -0.190112 
-0.016533 -0.196326 
-0.018797 -0.191617 
-0.012144 -0.201708 
-0.014303 -0.199624 
-0.017027 -0.195517 
-0.007812 -0.202974 
-0.011181 -0.202139 
-0.005795 -0.207569 
-0.004968 -0.201701 
-0.006481 -0.202597 
-0.008684 -0.196137 
-0.000510 -0.213010 
-0.003704 -0.208228 
0.000860 -0.212725 
-0.012555 -0.197056 
-0.008198 -0.203011 
-0.010097 -0.202774 
0.012612 -0.222723 
0.009689 -0.221851 
0.014274 -0.226046 
-0.000458 -0.212643 
0.004739 -0.217393 
0.002926 -0.213226 
0.007823 -0.220936 
0.006387 -0.219885 
0.002919 -0.216912 
-0.007146 -0.207322 
-0.002100 -0.212382 
-0.003875 -0.210638 
-0.000116 -0.193070 
-0.000494 -0.188526 
0.003145 -0.200519 
0.001095 -0.197036 
-0.001654 -0.189494 
-0.000310 -0.193832 
-0.000625 -0.194887 
0.017490 -0.212881 
0.013354 -0.209641 
0.006969 -0.208424 
0.010196 -0.209537 
0.010637 -0.212469 
0.009429 -0.206638 
0.005965 -0.203663 
-0.005583 -0.193957 
-0.002599 -0.199064 
-0.003672 -0.200476 
-0.001093 -0.196166 
-0.001744 -0.197591 
-0.003278 -0.191494 
0.003420 -0.208345 
0.000520 -0.203183 
0.003726 -0.206305 
0.003565 -0.202270 
0.003768 -0.204236 
0.001200 -0.199765 
0.015703 -0.227578 
0.009008 -0.220775 
0.012512 -0.224479 
0.016871 -0.227571 
0.017743 -0.226262 
-0.001107 -0.206390 
0.006809 -0.213162 
0.002839 -0.210208 
0.001982 -0.211728 
0.005423 -0.216518 
0.018174 -0.216946 
0.018277 -0.223889 
0.018431 -0.220699 
0.014550 -0.216516 
0.010736 -0.215261 
0.009907 -0.219627 
0.010490 -0.217716 
0.014224 -0.222074 
-0.029381 -0.179076 
-0.026847 -0.183505 
-0.036070 -0.168840 
-0.031627 -0.176425 
-0.038957 -0.165061 
-0.024253 -0.186662 
-0.021658 -0.188736 
-0.048835 -0.132828 
-0.046587 -0.142749 
-0.052550 -0.131296 
-0.033581 -0.164531 
-0.040190 -0.153933 
-0.036638 -0.155086 
-0.046918 -0.149188 
-0.043640 -0.152033 
-0.040102 -0.160719 
-0.014335 -0.190243 
-0.012169 -0.189705 
-0.019112 -0.189911 
-0.016659 -0.190360 
-0.023945 -0.174667 
-0.020479 -0.182902 
-0.026951 -0.174266 
-0.033069 -0.171517 
-0.030011 -0.173269 
-0.026011 -0.181328 
-0.015344 -0.018801 
-0.028530 -0.038228 
-0.022526 -0.026436 
-0.033384 -0.066188 
-0.032069 -0.051968 
-0.027298 -0.049981 
-0.043448 -0.061424 
-0.037653 -0.055604 
-0.043827 -0.071256 
-0.025369 -0.120452 
-0.028661 -0.107713 
-0.024854 -0.107257 
-0.037078 -0.108854 
-0.032745 -0.108242 
-0.033180 -0.121375 
-0.028725 -0.079629 
-0.031294 -0.094308 
-0.032983 -0.080397 
-0.054905 -0.111140 
-0.050687 -0.110865 
-0.050254 -0.122221 
-0.047766 -0.085530 
-0.049941 -0.098675 
-0.052618 -0.088250 
-0.041705 -0.122170 
-0.046187 -0.110254 
-0.041597 -0.109541 
-0.037656 -0.081564 
-0.040317 -0.096017 
-0.042656 -0.083259 
-0.001914 -0.183500 
-0.000969 -0.183214 
-0.004062 -0.184832 
-0.002932 -0.184056 
-0.005052 -0.169998 
-0.004069 -0.177547 
-0.006875 -0.170582 
-0.010181 -0.188879 
-0.008380 -0.187881 
-0.013198 -0.172862 
-0.010934 -0.180844 
-0.015643 -0.173607 
-0.006766 -0.186816 
-0.005333 -0.185774 
-0.018400 -0.131910 
-0.017772 -0.143443 
-0.021666 -0.132396 
-0.010199 -0.162574 
-0.013888 -0.153519 
-0.011284 -0.152928 
-0.019624 -0.154732 
-0.016665 -0.154136 
-0.015124 -0.163951 
-0.007193 -0.179030 
-0.010927 -0.172065 
-0.008825 -0.171286 
-0.044889 -0.133635 
-0.036730 -0.133920 
-0.040818 -0.133943 
-0.039087 -0.144902 
-0.033057 -0.155664 
-0.025147 -0.132875 
-0.022763 -0.155256 
-0.024255 -0.144485 
-0.028838 -0.133317 
-0.032713 -0.133684 
-0.015382 -0.182400 
-0.026983 -0.165641 
-0.021036 -0.174611 
-0.018260 -0.174221 
-0.020742 -0.165171 
-0.031457 -0.145160 
-0.026070 -0.155641 
-0.029516 -0.155809 
0.000000 0.000000 
-0.012077 -0.017028 
-0.008486 -0.016251 
-0.010013 -0.016450 
0.000000 0.000000 
-0.019382 -0.033240 
-0.023355 -0.048986 
-0.004513 -0.016291 
-0.005314 -0.016248 
0.000000 0.000000 
-0.014703 -0.048171 
-0.010276 -0.032324 
-0.012491 -0.048132 
0.000000 0.000000 
-0.006218 -0.016211 
-0.007257 -0.016200 
-0.023545 -0.093344 
-0.021324 -0.106856 
-0.024971 -0.064308 
-0.024880 -0.079128 
-0.018267 -0.078555 
-0.021410 -0.078792 
-0.018447 -0.063698 
-0.014053 -0.032403 
-0.017194 -0.048272 
-0.020040 -0.048501 
0.000000 -0.016447 
-0.000471 -0.016454 
0.000000 0.000000 
-0.001314 -0.048083 
-0.000914 -0.032490 
0.000000 -0.048059 
0.000000 0.000000 
-0.000954 -0.016452 
-0.001454 -0.016442 
-0.002298 -0.105208 
-0.002157 -0.091812 
0.000000 -0.105145 
-0.005094 -0.063269 
-0.003918 -0.077847 
-0.005958 -0.077919 
0.000000 -0.077748 
-0.001943 -0.077791 
-0.001660 -0.063198 
0.000000 0.000000 
-0.003139 -0.016371 
-0.003793 -0.016334 
-0.001979 -0.016426 
-0.002537 -0.016402 
0.000000 0.000000 
-0.007033 -0.048119 
-0.004904 -0.032452 
-0.005489 -0.048117 
-0.002653 -0.048100 
-0.004037 -0.048110 
-0.002812 -0.032489 
-0.001337 -0.176780 
0.000000 -0.183196 
-0.005871 -0.161451 
-0.003325 -0.169566 
0.000000 -0.169208 
-0.001654 -0.169302 
-0.001920 -0.160827 
-0.018506 -0.119578 
-0.015342 -0.131439 
-0.009772 -0.130621 
-0.012474 -0.131004 
-0.012528 -0.118825 
-0.012052 -0.142389 
-0.008834 -0.152397 
0.000000 -0.129815 
-0.002356 -0.129895 
-0.002364 -0.117921 
-0.002130 -0.151401 
-0.002277 -0.141074 
0.000000 -0.151308 
-0.007234 -0.118256 
-0.004747 -0.130059 
-0.007208 -0.130302 
-0.006513 -0.151954 
-0.006963 -0.141553 
-0.004290 -0.151618 
-0.007331 -0.032387 
-0.008865 -0.063356 
-0.008695 -0.048119 
-0.010503 -0.048121 
-0.013217 -0.063474 
-0.004631 -0.105316 
-0.009545 -0.105668 
-0.007035 -0.105470 
-0.006608 -0.092005 
-0.008092 -0.078005 
-0.018054 -0.106501 
-0.015405 -0.078375 
-0.017023 -0.092743 
-0.015022 -0.106186 
-0.012196 -0.105907 
-0.010355 -0.078109 
-0.011471 -0.092314 
-0.012780 -0.078230 
0.000000 0.000000 
0.000471 -0.016454 
0.001454 -0.016442 
0.000954 -0.016452 
0.000000 0.000000 
0.000914 -0.032490 
0.001314 -0.048083 
0.003793 -0.016334 
0.003139 -0.016371 
0.000000 0.000000 
0.005489 -0.048117 
0.004904 -0.032452 
0.007033 -0.048119 
0.000000 0.000000 
0.002537 -0.016402 
0.001979 -0.016426 
0.002157 -0.091812 
0.002298 -0.105208 
0.001660 -0.063198 
0.001943 -0.077791 
0.005958 -0.077919 
0.003918 -0.077847 
0.005094 -0.063269 
0.002812 -0.032489 
0.004037 -0.048110 
0.002653 -0.048100 
0.015344 -0.018801 
0.012077 -0.017028 
0.000000 0.000000 
0.023355 -0.048986 
0.019382 -0.033240 
0.027298 -0.049981 
0.000000 0.000000 
0.010013 -0.016450 
0.008486 -0.016251 
0.021324 -0.106856 
0.023545 -0.093344 
0.024854 -0.107257 
0.018447 -0.063698 
0.021410 -0.078792 
0.018267 -0.078555 
0.028725 -0.079629 
0.024880 -0.079128 
0.024971 -0.064308 
0.000000 0.000000 
0.005314 -0.016248 
0.004513 -0.016291 
0.007257 -0.016200 
0.006218 -0.016211 
0.000000 0.000000 
0.012491 -0.048132 
0.010276 -0.032324 
0.014703 -0.048171 
0.020040 -0.048501 
0.017194 -0.048272 
0.014053 -0.032403 
0.001337 -0.176780 
0.000969 -0.183214 
0.001920 -0.160827 
0.001654 -0.169302 
0.005052 -0.169998 
0.003325 -0.169566 
0.005871 -0.161451 
0.002364 -0.117921 
0.002356 -0.129895 
0.007208 -0.130302 
0.004747 -0.130059 
0.007234 -0.118256 
0.002277 -0.141074 
0.002130 -0.151401 
0.018400 -0.131910 
0.015342 -0.131439 
0.018506 -0.119578 
0.008834 -0.152397 
0.012052 -0.142389 
0.011284 -0.152928 
0.012528 -0.118825 
0.012474 -0.131004 
0.009772 -0.130621 
0.004290 -0.151618 
0.006963 -0.141553 
0.006513 -0.151954 
0.007331 -0.032387 
0.013217 -0.063474 
0.010503 -0.048121 
0.008695 -0.048119 
0.008865 -0.063356 
0.018054 -0.106501 
0.012196 -0.105907 
0.015022 -0.106186 
0.017023 -0.092743 
0.015405 -0.078375 
0.004631 -0.105316 
0.008092 -0.078005 
0.006608 -0.092005 
0.007035 -0.105470 
0.009545 -0.105668 
0.012780 -0.078230 
0.011471 -0.092314 
0.010355 -0.078109 
0.022526 -0.026436 
0.028530 -0.038228 
0.043827 -0.071256 
0.037653 -0.055604 
0.043448 -0.061424 
0.032069 -0.051968 
0.033384 -0.066188 
0.050254 -0.122221 
0.050687 -0.110865 
0.054905 -0.111140 
0.041597 -0.109541 
0.046187 -0.110254 
0.041705 -0.122170 
0.052618 -0.088250 
0.049941 -0.098675 
0.047766 -0.085530 
0.028661 -0.107713 
0.025369 -0.120452 
0.032983 -0.080397 
0.031294 -0.094308 
0.033180 -0.121375 
0.032745 -0.108242 
0.037078 -0.108854 
0.042656 -0.083259 
0.040317 -0.096017 
0.037656 -0.081564 
0.021788 -0.190112 
0.026847 -0.183505 
0.029381 -0.179076 
0.021658 -0.188736 
0.024253 -0.186662 
0.017027 -0.195517 
0.038957 -0.165061 
0.031627 -0.176425 
0.036070 -0.168840 
0.012169 -0.189705 
0.014335 -0.190243 
0.008684 -0.196137 
0.026951 -0.174266 
0.020479 -0.182902 
0.023945 -0.174667 
0.012555 -0.197056 
0.016659 -0.190360 
0.019112 -0.189911 
0.052550 -0.131296 
0.046587 -0.142749 
0.048835 -0.132828 
0.040102 -0.160719 
0.043640 -0.152033 
0.046918 -0.149188 
0.036638 -0.155086 
0.040190 -0.153933 
0.033581 -0.164531 
0.026011 -0.181328 
0.030011 -0.173269 
0.033069 -0.171517 
0.001914 -0.183500 
0.000494 -0.188526 
0.006875 -0.170582 
0.004069 -0.177547 
0.001654 -0.189494 
0.002932 -0.184056 
0.004062 -0.184832 
0.021666 -0.132396 
0.017772 -0.143443 
0.015124 -0.163951 
0.016665 -0.154136 
0.019624 -0.154732 
0.013888 -0.153519 
0.010199 -0.162574 
0.005583 -0.193957 
0.008380 -0.187881 
0.010181 -0.188879 
0.005333 -0.185774 
0.006766 -0.186816 
0.003278 -0.191494 
0.015643 -0.173607 
0.010934 -0.180844 
0.013198 -0.172862 