# vtk DataFile Version 2.0
Unstructured Grid Example
ASCII
DATASET UNSTRUCTURED_GRID

POINTS 25 float
-0.030750 -0.226950 0.000000 
1.030750 -0.226950 0.000000 
1.000000 1.000000 0.000000 
0.000000 1.000000 0.000000 
0.500000 -0.086746 0.000000 
0.975623 0.323552 0.000000 
0.500000 1.000000 0.000000 
0.024377 0.323552 0.000000 
0.500000 0.314079 0.000000 
0.217998 -0.167741 0.000000 
0.500000 0.076111 0.000000 
0.232445 0.047454 0.000000 
0.782002 -0.167741 0.000000 
0.767555 0.047454 0.000000 
1.012597 0.033616 0.000000 
0.741808 0.315546 0.000000 
0.954320 0.631926 0.000000 
0.731740 0.636699 0.000000 
0.750000 1.000000 0.000000 
0.500000 0.638958 0.000000 
0.250000 1.000000 0.000000 
0.268260 0.636699 0.000000 
0.045680 0.631926 0.000000 
0.258192 0.315546 0.000000 
-0.012597 0.033616 0.000000 

CELLS 32 128
3  0 9 11 
3  4 10 9 
3  8 11 10 
3  9 10 11 
3  4 12 10 
3  1 13 12 
3  8 10 13 
3  12 13 10 
3  1 14 13 
3  5 15 14 
3  8 13 15 
3  14 15 13 
3  5 16 15 
3  2 17 16 
3  8 15 17 
3  16 17 15 
3  2 18 17 
3  6 19 18 
3  8 17 19 
3  18 19 17 
3  6 20 19 
3  3 21 20 
3  8 19 21 
3  20 21 19 
3  3 22 21 
3  7 23 22 
3  8 21 23 
3  22 23 21 
3  7 24 23 
3  0 11 24 
3  8 23 11 
3  24 11 23 

CELL_TYPES 32
5
5
5
5
5
5
5
5
5
5
5
5
5
5
5
5
5
5
5
5
5
5
5
5
5
5
5
5
5
5
5
5

POINT_DATA 25

SCALARS u_h float 2
LOOKUP_TABLE default
-0.030750 -0.226950 
0.030750 -0.226950 
0.000000 0.000000 
0.000000 0.000000 
-0.000000 -0.086746 
-0.024377 -0.176448 
0.000000 0.000000 
0.024377 -0.176448 
-0.000000 -0.185921 
-0.032002 -0.167741 
-0.000000 -0.173889 
-0.017555 -0.202546 
0.032002 -0.167741 
0.017555 -0.202546 
0.012597 -0.216384 
-0.008192 -0.184454 
-0.045680 -0.118074 
-0.018260 -0.113301 
0.000000 0.000000 
-0.000000 -0.111042 
0.000000 0.000000 
0.018260 -0.113301 
0.045680 -0.118074 
0.008192 -0.184454 
-0.012597 -0.216384 

CELL_DATA 32

SCALARS epsilon float 4
LOOKUP_TABLE default
-0.018772 -0.124809 0.000000 0.165597
0.119919 -0.294730 0.000000 0.245468
0.067765 -0.042953 0.000000 0.059955
0.062573 -0.147821 0.000000 0.092571
0.119919 -0.294730 0.000000 -0.245468
-0.018772 -0.124809 0.000000 -0.165597
0.067765 -0.042953 0.000000 -0.059955
0.062573 -0.147821 0.000000 -0.092571
-0.021424 0.038916 0.000000 -0.063528
-0.053275 0.151931 0.000000 -0.063735
-0.027797 0.070360 0.000000 -0.050258
-0.020612 0.065751 0.000000 -0.078120
-0.061761 0.209872 0.000000 -0.030967
-0.103322 0.374730 0.000000 0.085547
-0.032587 0.246289 0.000000 -0.017515
-0.115646 0.245597 0.000000 -0.028830
0.001263 0.360495 0.000000 0.032968
0.000000 0.354856 0.000000 0.000000
-0.075692 0.257071 0.000000 -0.003455
-0.073736 0.360960 0.000000 0.032468
0.000000 0.354856 0.000000 0.000000
0.001263 0.360495 0.000000 -0.032968
-0.075692 0.257071 0.000000 0.003455
-0.073736 0.360960 0.000000 -0.032468
-0.103322 0.374730 0.000000 -0.085547
-0.061761 0.209872 0.000000 0.030967
-0.032587 0.246289 0.000000 0.017515
-0.115646 0.245597 0.000000 0.028830
-0.053275 0.151931 0.000000 0.063735
-0.021424 0.038916 0.000000 0.063528
-0.027797 0.070360 0.000000 0.050258
-0.020612 0.065751 0.000000 0.078120

SCALARS sigma float 4
LOOKUP_TABLE default
-2.369662 -4.981387 -2.019519 2.866537
-2.354982 -12.991465 -4.216057 3.615402
1.226558 -0.678712 0.150507 0.922714
-0.147989 -3.903527 -1.113054 1.545841
-2.354982 -12.991465 -4.216057 -3.615402
-2.369662 -4.981387 -2.019519 -2.866537
1.226558 -0.678712 0.150507 -0.922714
-0.147989 -3.903527 -1.113054 -1.545841
-0.272965 0.727855 0.124970 -1.031178
-0.289902 3.089558 0.769136 -0.872176
-0.198137 1.463247 0.347558 -0.767337
-0.057034 1.389443 0.366046 -1.241959
0.151185 4.380899 1.245078 -0.377176
0.052331 7.314301 2.023800 1.020895
1.327884 5.516142 1.880227 -0.227025
-1.061933 4.595719 0.970820 -0.425923
3.118654 8.233246 3.118654 0.412148
3.075598 8.119579 3.075598 0.000000
0.224602 5.296762 1.516858 -0.061511
1.055753 7.459464 2.339345 0.389427
3.075598 8.119579 3.075598 0.000000
3.118654 8.233246 3.118654 -0.412148
0.224602 5.296762 1.516858 0.061511
1.055753 7.459464 2.339345 -0.389427
0.052331 7.314301 2.023800 -1.020895
0.151185 4.380899 1.245078 0.377176
1.327884 5.516142 1.880227 0.227025
-1.061933 4.595719 0.970820 0.425923
-0.289902 3.089558 0.769136 0.872176
-0.272965 0.727855 0.124970 1.031178
-0.198137 1.463247 0.347558 0.767337
-0.057034 1.389443 0.366046 1.241959

