# vtk DataFile Version 2.0
Unstructured Grid Example
ASCII
DATASET UNSTRUCTURED_GRID

POINTS 4225 float
-0.015955 -0.253725 0.000000 
1.015955 -0.253725 0.000000 
1.000000 1.000000 0.000000 
0.000000 1.000000 0.000000 
0.500000 -0.099940 0.000000 
0.975816 0.314336 0.000000 
0.500000 1.000000 0.000000 
0.024184 0.314336 0.000000 
0.500000 0.311399 0.000000 
0.226267 -0.174895 0.000000 
0.500000 0.062589 0.000000 
0.229330 0.038007 0.000000 
0.773733 -0.174895 0.000000 
0.770670 0.038007 0.000000 
1.016983 0.022534 0.000000 
0.742949 0.304542 0.000000 
0.945472 0.628476 0.000000 
0.728014 0.629788 0.000000 
0.750000 1.000000 0.000000 
0.500000 0.631925 0.000000 
0.250000 1.000000 0.000000 
0.271986 0.629788 0.000000 
0.054528 0.628476 0.000000 
0.257051 0.304542 0.000000 
-0.016983 0.022534 0.000000 
0.110959 -0.234878 0.000000 
0.220982 -0.073684 0.000000 
0.095411 -0.107524 0.000000 
0.500000 -0.030578 0.000000 
0.356956 -0.042547 0.000000 
0.353088 -0.121533 0.000000 
0.369951 0.173068 0.000000 
0.362447 0.055519 0.000000 
0.500000 0.177075 0.000000 
0.646912 -0.121533 0.000000 
0.643044 -0.042547 0.000000 
0.904589 -0.107524 0.000000 
0.779018 -0.073684 0.000000 
0.889041 -0.234878 0.000000 
0.637553 0.055519 0.000000 
0.630049 0.173068 0.000000 
1.025097 -0.119820 0.000000 
0.896739 0.021557 0.000000 
0.860277 0.303053 0.000000 
0.879377 0.157554 0.000000 
0.997759 0.166702 0.000000 
0.757049 0.163809 0.000000 
0.622573 0.309317 0.000000 
0.956657 0.467582 0.000000 
0.844622 0.459417 0.000000 
0.845694 0.809834 0.000000 
0.837353 0.627977 0.000000 
0.950341 0.799326 0.000000 
0.732079 0.460113 0.000000 
0.617014 0.462799 0.000000 
0.875000 1.000000 0.000000 
0.734125 0.811333 0.000000 
0.500000 0.811704 0.000000 
0.618012 0.811602 0.000000 
0.625000 1.000000 0.000000 
0.615122 0.631305 0.000000 
0.500000 0.464055 0.000000 
0.375000 1.000000 0.000000 
0.381988 0.811602 0.000000 
0.154306 0.809834 0.000000 
0.265875 0.811333 0.000000 
0.125000 1.000000 0.000000 
0.384878 0.631305 0.000000 
0.382986 0.462799 0.000000 
0.049659 0.799326 0.000000 
0.162647 0.627977 0.000000 
0.139723 0.303053 0.000000 
0.155378 0.459417 0.000000 
0.043343 0.467582 0.000000 
0.267921 0.460113 0.000000 
0.377427 0.309317 0.000000 
0.002241 0.166702 0.000000 
0.120623 0.157554 0.000000 
0.103261 0.021557 0.000000 
-0.025097 -0.119820 0.000000 
0.242951 0.163809 0.000000 
0.046952 -0.246825 0.000000 
0.098891 -0.171267 0.000000 
0.038709 -0.182853 0.000000 
0.221181 -0.124973 0.000000 
0.158726 -0.150190 0.000000 
0.170775 -0.208358 0.000000 
0.159730 -0.032759 0.000000 
0.156910 -0.092090 0.000000 
0.224111 -0.019498 0.000000 
0.500000 -0.068597 0.000000 
0.426727 -0.072656 0.000000 
0.424911 -0.105581 0.000000 
0.429297 0.010888 0.000000 
0.427955 -0.033650 0.000000 
0.500000 0.013259 0.000000 
0.286686 -0.145461 0.000000 
0.355217 -0.084341 0.000000 
0.286613 -0.102325 0.000000 
0.436724 0.241128 0.000000 
0.434766 0.176033 0.000000 
0.500000 0.241888 0.000000 
0.295099 0.047537 0.000000 
0.366075 0.111889 0.000000 
0.300301 0.105950 0.000000 
0.500000 0.117246 0.000000 
0.432791 0.115856 0.000000 
0.430928 0.060763 0.000000 
0.287797 -0.056369 0.000000 
0.359335 0.004037 0.000000 
0.290763 -0.006538 0.000000 
0.575089 -0.105581 0.000000 
0.573273 -0.072656 0.000000 
0.713387 -0.102325 0.000000 
0.644783 -0.084341 0.000000 
0.713314 -0.145461 0.000000 
0.572045 -0.033650 0.000000 
0.570703 0.010888 0.000000 
0.961291 -0.182853 0.000000 
0.901109 -0.171267 0.000000 
0.953048 -0.246825 0.000000 
0.775889 -0.019498 0.000000 
0.843090 -0.092090 0.000000 
0.840270 -0.032759 0.000000 
0.829225 -0.208358 0.000000 
0.841274 -0.150190 0.000000 
0.778819 -0.124973 0.000000 
0.565234 0.176033 0.000000 
0.563276 0.241128 0.000000 
0.569072 0.060763 0.000000 
0.567209 0.115856 0.000000 
0.699699 0.105950 0.000000 
0.633925 0.111889 0.000000 
0.704901 0.047537 0.000000 
0.712203 -0.056369 0.000000 
0.709237 -0.006538 0.000000 
0.640665 0.004037 0.000000 
1.022191 -0.188773 0.000000 
0.965015 -0.116726 0.000000 
0.957432 0.018853 0.000000 
0.963302 -0.049466 0.000000 
1.023081 -0.048953 0.000000 
0.902507 -0.043567 0.000000 
0.834599 0.028647 0.000000 
0.918108 0.306377 0.000000 
0.928427 0.231918 0.000000 
0.986735 0.239905 0.000000 
0.810219 0.229638 0.000000 
0.869693 0.229022 0.000000 
0.801967 0.302872 0.000000 
1.008149 0.094357 0.000000 
0.938924 0.159325 0.000000 
0.948900 0.088380 0.000000 
0.626186 0.238931 0.000000 
0.561442 0.310946 0.000000 
0.764179 0.099065 0.000000 
0.694080 0.168700 0.000000 
0.683133 0.306975 0.000000 
0.688439 0.235739 0.000000 
0.749816 0.232300 0.000000 
0.888670 0.088476 0.000000 
0.818809 0.159603 0.000000 
0.827164 0.092663 0.000000 
0.965576 0.390086 0.000000 
0.908603 0.382922 0.000000 
0.894398 0.543195 0.000000 
0.900484 0.461780 0.000000 
0.949687 0.546978 0.000000 
0.851737 0.379798 0.000000 
0.794594 0.379371 0.000000 
0.913704 0.902587 0.000000 
0.898549 0.806587 0.000000 
0.964349 0.891124 0.000000 
0.783118 0.628868 0.000000 
0.838990 0.717256 0.000000 
0.784973 0.718554 0.000000 
0.945120 0.712382 0.000000 
0.891961 0.715054 0.000000 
0.891171 0.627473 0.000000 
0.619434 0.384020 0.000000 
0.559850 0.385240 0.000000 
0.736892 0.380500 0.000000 
0.678498 0.382279 0.000000 
0.672597 0.544368 0.000000 
0.674877 0.461484 0.000000 
0.728962 0.543273 0.000000 
0.839566 0.542082 0.000000 
0.784564 0.542360 0.000000 
0.788605 0.459189 0.000000 
0.937500 1.000000 0.000000 
0.858257 0.904776 0.000000 
0.741175 0.905107 0.000000 
0.800300 0.905122 0.000000 
0.812500 1.000000 0.000000 
0.790714 0.810949 0.000000 
0.729661 0.719322 0.000000 
0.500000 0.904958 0.000000 
0.560634 0.904959 0.000000 
0.562500 1.000000 0.000000 
0.558116 0.720459 0.000000 
0.559120 0.811670 0.000000 
0.500000 0.720554 0.000000 
0.687500 1.000000 0.000000 
0.621137 0.904986 0.000000 
0.681372 0.905039 0.000000 
0.558641 0.463719 0.000000 
0.500000 0.385665 0.000000 
0.671969 0.630625 0.000000 
0.615516 0.545352 0.000000 
0.500000 0.546276 0.000000 
0.557899 0.546026 0.000000 
0.557707 0.631756 0.000000 
0.676438 0.811500 0.000000 
0.615953 0.720217 0.000000 
0.673229 0.719842 0.000000 
0.437500 1.000000 0.000000 
0.439366 0.904959 0.000000 
0.318628 0.905039 0.000000 
0.378863 0.904986 0.000000 
0.312500 1.000000 0.000000 
0.440880 0.811670 0.000000 
0.441884 0.720459 0.000000 
0.086296 0.902587 0.000000 
0.141743 0.904776 0.000000 
0.062500 1.000000 0.000000 
0.270339 0.719322 0.000000 
0.209286 0.810949 0.000000 
0.215027 0.718554 0.000000 
0.187500 1.000000 0.000000 
0.199700 0.905122 0.000000 
0.258825 0.905107 0.000000 
0.441359 0.463719 0.000000 
0.440150 0.385240 0.000000 
0.442293 0.631756 0.000000 
0.442101 0.546026 0.000000 
0.327403 0.544368 0.000000 
0.384484 0.545352 0.000000 
0.328031 0.630625 0.000000 
0.323562 0.811500 0.000000 
0.326771 0.719842 0.000000 
0.384047 0.720217 0.000000 
0.035651 0.891124 0.000000 
0.101451 0.806587 0.000000 
0.108829 0.627473 0.000000 
0.108039 0.715054 0.000000 
0.054880 0.712382 0.000000 
0.161010 0.717256 0.000000 
0.216882 0.628868 0.000000 
0.081892 0.306377 0.000000 
0.091397 0.382922 0.000000 
0.034424 0.390086 0.000000 
0.205406 0.379371 0.000000 
0.148263 0.379798 0.000000 
0.198033 0.302872 0.000000 
0.050313 0.546978 0.000000 
0.099516 0.461780 0.000000 
0.105602 0.543195 0.000000 
0.380566 0.384020 0.000000 
0.438558 0.310946 0.000000 
0.271038 0.543273 0.000000 
0.325123 0.461484 0.000000 
0.316867 0.306975 0.000000 
0.321502 0.382279 0.000000 
0.263108 0.380500 0.000000 
0.160434 0.542082 0.000000 
0.211395 0.459189 0.000000 
0.215436 0.542360 0.000000 
0.013265 0.239905 0.000000 
0.071573 0.231918 0.000000 
0.051100 0.088380 0.000000 
0.061076 0.159325 0.000000 
-0.008149 0.094357 0.000000 
0.130307 0.229022 0.000000 
0.189781 0.229638 0.000000 
0.034985 -0.116726 0.000000 
-0.022191 -0.188773 0.000000 
0.165401 0.028647 0.000000 
0.097493 -0.043567 0.000000 
-0.023081 -0.048953 0.000000 
0.036698 -0.049466 0.000000 
0.042568 0.018853 0.000000 
0.373814 0.238931 0.000000 
0.250184 0.232300 0.000000 
0.311561 0.235739 0.000000 
0.305920 0.168700 0.000000 
0.235821 0.099065 0.000000 
0.111330 0.088476 0.000000 
0.172836 0.092663 0.000000 
0.181191 0.159603 0.000000 
0.015296 -0.250461 0.000000 
0.042534 -0.215243 0.000000 
0.011632 -0.218776 0.000000 
0.103617 -0.203255 0.000000 
0.073278 -0.210349 0.000000 
0.078957 -0.241914 0.000000 
0.066260 -0.145581 0.000000 
0.068943 -0.178090 0.000000 
0.096304 -0.139359 0.000000 
0.223078 -0.149892 0.000000 
0.192573 -0.164181 0.000000 
0.198078 -0.191125 0.000000 
0.188420 -0.110457 0.000000 
0.189569 -0.137478 0.000000 
0.220561 -0.099646 0.000000 
0.142197 -0.224594 0.000000 
0.162658 -0.179145 0.000000 
0.133324 -0.193066 0.000000 
0.194139 0.003096 0.000000 
0.191629 -0.026254 0.000000 
0.226516 0.008822 0.000000 
0.125915 -0.100465 0.000000 
0.157880 -0.062639 0.000000 
0.126643 -0.069687 0.000000 
0.222222 -0.046987 0.000000 
0.189725 -0.054921 0.000000 
0.188583 -0.082966 0.000000 
0.128669 -0.161927 0.000000 
0.157063 -0.121227 0.000000 
0.126455 -0.131142 0.000000 
0.500000 -0.085195 0.000000 
0.462822 -0.086388 0.000000 
0.462244 -0.101367 0.000000 
0.463588 -0.051232 0.000000 
0.463245 -0.069615 0.000000 
0.500000 -0.050349 0.000000 
0.388418 -0.112397 0.000000 
0.425967 -0.089942 0.000000 
0.389725 -0.095716 0.000000 
0.464997 0.036722 0.000000 
0.464601 0.012660 0.000000 
0.500000 0.037249 0.000000 
0.392267 -0.037414 0.000000 
0.428593 -0.012057 0.000000 
0.393163 -0.015360 0.000000 
0.500000 -0.009360 0.000000 
0.464240 -0.010040 0.000000 
0.463908 -0.031351 0.000000 
0.255749 -0.159621 0.000000 
0.286615 -0.124145 0.000000 
0.254362 -0.136491 0.000000 
0.354328 -0.103506 0.000000 
0.319933 -0.113068 0.000000 
0.319139 -0.132665 0.000000 
0.321189 -0.071294 0.000000 
0.320514 -0.092645 0.000000 
0.356038 -0.064030 0.000000 
0.427353 -0.053864 0.000000 
0.391459 -0.058170 0.000000 
0.390660 -0.077615 0.000000 
[...]
POINT_DATA 4225

SCALARS u_h float 2
LOOKUP_TABLE default
-0.015955 -0.253725 
0.015955 -0.253725 
0.000000 0.000000 
0.000000 0.000000 
-0.000000 -0.099940 
-0.024184 -0.185664 
0.000000 0.000000 
0.024184 -0.185664 
-0.000000 -0.188601 
-0.023733 -0.174895 
-0.000000 -0.187411 
-0.020670 -0.211993 
0.023733 -0.174895 
0.020670 -0.211993 
0.016983 -0.227466 
-0.007051 -0.195458 
-0.054528 -0.121524 
-0.021986 -0.120212 
0.000000 0.000000 
-0.000000 -0.118075 
0.000000 0.000000 
0.021986 -0.120212 
0.054528 -0.121524 
0.007051 -0.195458 
-0.016983 -0.227466 
-0.014041 -0.234878 
-0.029018 -0.198684 
-0.029589 -0.232524 
-0.000000 -0.155578 
-0.018044 -0.167547 
-0.021912 -0.121533 
-0.005049 -0.201932 
-0.012553 -0.194481 
-0.000000 -0.197925 
0.021912 -0.121533 
0.018044 -0.167547 
0.029589 -0.232524 
0.029018 -0.198684 
0.014041 -0.234878 
0.012553 -0.194481 
0.005049 -0.201932 
0.025097 -0.244820 
0.021739 -0.228443 
-0.014723 -0.196947 
0.004377 -0.217446 
-0.002241 -0.208298 
0.007049 -0.211191 
-0.002427 -0.190683 
-0.043343 -0.157418 
-0.030378 -0.165583 
-0.029306 -0.065166 
-0.037647 -0.122023 
-0.049659 -0.075674 
-0.017921 -0.164887 
-0.007986 -0.162201 
0.000000 0.000000 
-0.015875 -0.063667 
-0.000000 -0.063296 
-0.006988 -0.063398 
0.000000 0.000000 
-0.009878 -0.118695 
-0.000000 -0.160945 
0.000000 0.000000 
0.006988 -0.063398 
0.029306 -0.065166 
0.015875 -0.063667 
0.000000 0.000000 
0.009878 -0.118695 
0.007986 -0.162201 
0.049659 -0.075674 
0.037647 -0.122023 
0.014723 -0.196947 
0.030378 -0.165583 
0.043343 -0.157418 
0.017921 -0.164887 
0.002427 -0.190683 
0.002241 -0.208298 
-0.004377 -0.217446 
-0.021739 -0.228443 
-0.025097 -0.244820 
-0.007049 -0.211191 
-0.015548 -0.246825 
-0.026109 -0.233767 
-0.023791 -0.245353 
-0.028819 -0.187473 
-0.028774 -0.212690 
-0.016725 -0.208358 
-0.027770 -0.220259 
-0.030590 -0.217090 
-0.025889 -0.206998 
-0.000000 -0.131097 
-0.010773 -0.135156 
-0.012589 -0.105581 
-0.008203 -0.176612 
-0.009545 -0.158650 
-0.000000 -0.174241 
-0.025814 -0.145461 
-0.019783 -0.146841 
-0.025887 -0.164825 
-0.000776 -0.196372 
-0.002734 -0.198967 
-0.000000 -0.195612 
-0.017401 -0.202463 
-0.008925 -0.200611 
-0.012199 -0.206550 
-0.000000 -0.195254 
-0.004709 -0.196644 
-0.006572 -0.189237 
-0.024703 -0.181369 
-0.015665 -0.183463 
-0.021737 -0.194038 
0.012589 -0.105581 
0.010773 -0.135156 
0.025887 -0.164825 
0.019783 -0.146841 
0.025814 -0.145461 
0.009545 -0.158650 
0.008203 -0.176612 
0.023791 -0.245353 
0.026109 -0.233767 
0.015548 -0.246825 
0.025889 -0.206998 
0.030590 -0.217090 
0.027770 -0.220259 
0.016725 -0.208358 
0.028774 -0.212690 
0.028819 -0.187473 
0.002734 -0.198967 
0.000776 -0.196372 
0.006572 -0.189237 
0.004709 -0.196644 
0.012199 -0.206550 
0.008925 -0.200611 
0.017401 -0.202463 
0.024703 -0.181369 
0.021737 -0.194038 
0.015665 -0.183463 
0.022191 -0.251273 
0.027515 -0.241726 
0.019932 -0.231147 
0.025802 -0.236966 
0.023081 -0.236453 
0.027507 -0.231067 
0.022099 -0.221353 
-0.019392 -0.193623 
-0.009073 -0.205582 
-0.013265 -0.197595 
-0.002281 -0.207862 
-0.005307 -0.208478 
-0.010533 -0.197128 
0.008149 -0.218143 
0.001424 -0.215675 
0.011400 -0.224120 
0.001186 -0.198569 
-0.001058 -0.189054 
0.014179 -0.213435 
0.006580 -0.206300 
-0.004367 -0.193025 
0.000939 -0.201761 
-0.000184 -0.205200 
0.013670 -0.224024 
0.006309 -0.215397 
0.014664 -0.219837 
-0.034424 -0.172414 
-0.028897 -0.179578 
-0.043102 -0.144305 
-0.037016 -0.163220 
-0.050313 -0.140522 
-0.023263 -0.182702 
-0.017906 -0.183129 
-0.023796 -0.034913 
-0.038951 -0.068413 
-0.035651 -0.046376 
-0.029382 -0.121132 
-0.036010 -0.095244 
-0.027527 -0.093946 
-0.054880 -0.100118 
-0.045539 -0.097446 
-0.046329 -0.122527 
-0.005566 -0.178480 
-0.002650 -0.177260 
-0.013108 -0.182000 
-0.009002 -0.180221 
-0.014903 -0.143132 
-0.012623 -0.163516 
-0.021038 -0.144227 
-0.035434 -0.145418 
-0.027936 -0.145140 
-0.023895 -0.165811 
0.000000 0.000000 
-0.016743 -0.032724 
-0.008825 -0.032393 
-0.012200 -0.032378 
0.000000 0.000000 
-0.021786 -0.064051 
-0.020339 -0.093178 
-0.000000 -0.032542 
-0.001866 -0.032541 
0.000000 0.000000 
-0.004384 -0.092041 
-0.003380 -0.063330 
-0.000000 -0.091946 
0.000000 0.000000 
-0.003863 -0.032514 
-0.006128 -0.032461 
-0.003859 -0.161281 
-0.000000 -0.176835 
-0.015531 -0.119375 
-0.009484 -0.142148 
-0.000000 -0.141224 
-0.004601 -0.141474 
-0.004793 -0.118244 
-0.011062 -0.063500 
-0.009047 -0.092283 
-0.014271 -0.092658 
0.000000 0.000000 
0.001866 -0.032541 
0.006128 -0.032461 
0.003863 -0.032514 
0.000000 0.000000 
0.003380 -0.063330 
0.004384 -0.092041 
0.023796 -0.034913 
0.016743 -0.032724 
0.000000 0.000000 
0.020339 -0.093178 
0.021786 -0.064051 
0.027527 -0.093946 
0.000000 0.000000 
0.012200 -0.032378 
0.008825 -0.032393 
0.003859 -0.161281 
0.002650 -0.177260 
0.004793 -0.118244 
0.004601 -0.141474 
0.014903 -0.143132 
0.009484 -0.142148 
0.015531 -0.119375 
0.011062 -0.063500 
0.014271 -0.092658 
0.009047 -0.092283 
0.035651 -0.046376 
0.038951 -0.068413 
0.046329 -0.122527 
0.045539 -0.097446 
0.054880 -0.100118 
0.036010 -0.095244 
0.029382 -0.121132 
0.019392 -0.193623 
0.028897 -0.179578 
0.034424 -0.172414 
0.017906 -0.183129 
0.023263 -0.182702 
0.010533 -0.197128 
0.050313 -0.140522 
0.037016 -0.163220 
0.043102 -0.144305 
0.005566 -0.178480 
0.001058 -0.189054 
0.021038 -0.144227 
0.012623 -0.163516 
0.004367 -0.193025 
0.009002 -0.180221 
0.013108 -0.182000 
0.035434 -0.145418 
0.023895 -0.165811 
0.027936 -0.145140 
0.013265 -0.197595 
0.009073 -0.205582 
-0.011400 -0.224120 
-0.001424 -0.215675 
-0.008149 -0.218143 
0.005307 -0.208478 
0.002281 -0.207862 
-0.027515 -0.241726 
-0.022191 -0.251273 
-0.022099 -0.221353 
-0.027507 -0.231067 
-0.023081 -0.236453 
-0.025802 -0.236966 
-0.019932 -0.231147 
-0.001186 -0.198569 
0.000184 -0.205200 
-0.000939 -0.201761 
-0.006580 -0.206300 
-0.014179 -0.213435 
-0.013670 -0.224024 
-0.014664 -0.219837 
-0.006309 -0.215397 
-0.015954 -0.250461 
-0.019966 -0.246493 
-0.019618 -0.250026 
-0.021383 -0.234505 
-0.020472 -0.241599 
-0.014793 -0.241914 
-0.027490 -0.239331 
-0.024807 -0.240590 
-0.028696 -0.233109 
-0.026922 -0.181142 
-0.026177 -0.195431 
-0.020672 -0.191125 
-0.030330 -0.204207 
-0.029181 -0.199978 
-0.029439 -0.193396 
-0.014053 -0.224594 
-0.024842 -0.210395 
-0.022926 -0.224316 
-0.024611 -0.215654 
-0.027121 -0.213754 
-0.023484 -0.209928 
-0.030335 -0.225465 
-0.029620 -0.218889 
-0.029607 -0.225937 
-0.027778 -0.203237 
-0.029025 -0.211171 
-0.030167 -0.207966 
-0.027581 -0.224427 
-0.030437 -0.214977 
-0.029795 -0.224892 
-0.000000 -0.116445 
-0.005928 -0.117638 
-0.006506 -0.101367 
-0.005162 -0.144982 
-0.005505 -0.132115 
-0.000000 -0.144099 
-0.017832 -0.112397 
-0.011533 -0.121192 
-0.016525 -0.126966 
-0.003753 -0.182028 
-0.004149 -0.174840 
-0.000000 -0.181501 
-0.013983 -0.162414 
-0.008907 -0.168307 
-0.013087 -0.171610 
-0.000000 -0.165610 
-0.004510 -0.166290 
-0.004842 -0.156351 
-0.025501 -0.159621 
-0.025885 -0.155395 
-0.026888 -0.167741 
-0.020672 -0.134756 
-0.023817 -0.144318 
-0.024611 -0.132665 
-0.022561 -0.165044 
-0.023236 -0.155145 
-0.018962 -0.157780 
-0.010147 -0.147614 
-0.014791 -0.151920 
-0.015590 -0.140115 
0.000053 -0.192805 
-0.000414 -0.195799 
-0.000000 -0.192665 
-0.003969 -0.200233 
-0.001746 -0.198273 
-0.002494 -0.199365 
-0.000000 -0.197377 
-0.000899 -0.197602 
-0.001395 -0.198188 
-0.019255 -0.207129 
-0.014879 -0.205050 
-0.016408 -0.209044 
-0.010787 -0.198153 
-0.012990 -0.201368 
-0.015150 -0.198191 
-0.008338 -0.204257 
-0.010704 -0.203388 
-0.007001 -0.201866 
-0.000000 -0.191989 
-0.002866 -0.192393 
-0.003324 -0.187873 
-0.001893 -0.197530 
-0.002386 -0.195606 
-0.000000 -0.197226 
-0.009672 -0.191463 
-0.005663 -0.193585 
-0.008324 -0.195527 
-0.005448 -0.199896 
-0.006908 -0.198333 
-0.003728 -0.198432 
-0.027734 -0.175671 
-0.021640 -0.173918 
-0.025526 -0.173537 
-0.027826 -0.183065 
-0.027179 -0.189707 
-0.007423 -0.183584 
-0.014190 -0.189586 
-0.010927 -0.186128 
-0.012070 -0.179513 
-0.016953 -0.176114 
-0.021839 -0.204220 
-0.025894 -0.195482 
-0.024081 -0.200330 
-0.019708 -0.198790 
-0.017139 -0.193853 
-0.020422 -0.181702 
-0.018911 -0.188354 
-0.023423 -0.188221 
0.006506 -0.101367 
0.005928 -0.117638 
0.016525 -0.126966 
0.011533 -0.121192 
0.017832 -0.112397 
0.005505 -0.132115 
0.005162 -0.144982 
0.026888 -0.167741 
0.025885 -0.155395 
0.025501 -0.159621 
0.018962 -0.157780 
0.023236 -0.155145 
0.022561 -0.165044 
0.024611 -0.132665 
0.023817 -0.144318 
0.020672 -0.134756 
0.004149 -0.174840 
0.003753 -0.182028 
0.004842 -0.156351 
0.004510 -0.166290 
0.013087 -0.171610 
0.008907 -0.168307 
0.013983 -0.162414 
0.015590 -0.140115 
0.014791 -0.151920 
0.010147 -0.147614 
0.019618 -0.250026 
0.019966 -0.246493 
0.015954 -0.250461 
0.028696 -0.233109 
0.024807 -0.240590 
0.027490 -0.239331 
0.014793 -0.241914 
0.020472 -0.241599 
0.021383 -0.234505 
0.023484 -0.209928 
0.027121 -0.213754 
0.024611 -0.215654 
0.030167 -0.207966 
0.029025 -0.211171 
0.027778 -0.203237 
0.029607 -0.225937 
0.029620 -0.218889 
0.030335 -0.225465 
0.020672 -0.191125 
0.026177 -0.195431 
0.026922 -0.181142 
0.022926 -0.224316 
0.024842 -0.210395 
0.014053 -0.224594 
0.029439 -0.193396 
0.029181 -0.199978 
0.030330 -0.204207 
0.029795 -0.224892 
0.030437 -0.214977 
0.027581 -0.224427 
0.000414 -0.195799 
-0.000053 -0.192805 
0.001395 -0.198188 
0.000899 -0.197602 
0.002494 -0.199365 
0.001746 -0.198273 
0.003969 -0.200233 
0.003324 -0.187873 
0.002866 -0.192393 
0.008324 -0.195527 
0.005663 -0.193585 
0.009672 -0.191463 
0.002386 -0.195606 
0.001893 -0.197530 
0.016408 -0.209044 
0.014879 -0.205050 
0.019255 -0.207129 
0.007001 -0.201866 
0.010704 -0.203388 
0.008338 -0.204257 
0.015150 -0.198191 
0.012990 -0.201368 
0.010787 -0.198153 
0.003728 -0.198432 
0.006908 -0.198333 
0.005448 -0.199896 
0.027734 -0.175671 
0.027179 -0.189707 
0.027826 -0.183065 
0.025526 -0.173537 
0.021640 -0.173918 
0.021839 -0.204220 
0.017139 -0.193853 
0.019708 -0.198790 
0.024081 -0.200330 
0.025894 -0.195482 
0.007423 -0.183584 
0.016953 -0.176114 
0.012070 -0.179513 
0.010927 -0.186128 
0.014190 -0.189586 
0.023423 -0.188221 
0.018911 -0.188354 
0.020422 -0.181702 
0.019239 -0.253086 
0.022985 -0.248679 
0.026392 -0.243963 
0.025343 -0.246596 
0.024248 -0.248417 
0.026369 -0.243709 
0.028592 -0.237955 
0.018591 -0.230238 
0.022015 -0.234023 
0.020458 -0.232003 
0.024290 -0.232766 
0.023289 -0.234196 
0.020992 -0.230467 
0.024679 -0.240765 
0.024581 -0.237596 
0.026099 -0.240929 
0.025215 -0.221105 
0.021620 -0.216820 
0.029109 -0.231888 
0.027870 -0.226147 
0.022125 -0.225319 
0.025322 -0.225971 
0.024989 -0.229948 
0.027275 -0.239474 
0.026788 -0.234739 
0.028290 -0.236446 
-0.021800 -0.190329 
-0.016523 -0.196530 
-0.018780 -0.191809 
-0.012131 -0.201956 
-0.014292 -0.199849 
-0.017017 -0.195766 
-0.007723 -0.203077 
-0.011140 -0.202324 
-0.005720 -0.207738 
-0.004978 -0.202015 
-0.006482 -0.202900 
-0.008695 -0.196451 
-0.000461 -0.213272 
-0.003687 -0.208514 
0.000897 -0.213006 
-0.012551 -0.197345 
-0.008192 -0.203298 
-0.010085 -0.203043 
0.012828 -0.222852 
0.009876 -0.222023 
0.014491 -0.226243 
-0.000345 -0.212803 
0.004890 -0.217553 
0.003086 -0.213306 
0.007952 -0.221165 
0.006528 -0.220089 
0.003012 -0.217147 
-0.007115 -0.207567 
-0.002041 -0.212622 
-0.003808 -0.210848 
-0.000163 -0.193289 
-0.000509 -0.188642 
0.003101 -0.200827 
0.001045 -0.197311 
-0.001686 -0.189750 
-0.000355 -0.194097 
-0.000667 -0.195180 
0.017541 -0.213168 
0.013368 -0.209955 
0.006960 -0.208748 
0.010199 -0.209857 
0.010658 -0.212779 
0.009416 -0.206965 
0.005933 -0.203987 
-0.005609 -0.194278 
-0.002626 -0.199387 
-0.003691 -0.200797 
-0.001131 -0.196477 
-0.001777 -0.197911 
-0.003313 -0.191798 
0.003415 -0.208665 
0.000497 -0.203508 
0.003709 -0.206630 
0.003528 -0.202590 
0.003740 -0.204562 
0.001161 -0.200081 
0.015915 -0.227797 
0.009119 -0.221021 
0.012677 -0.224704 
0.017069 -0.227793 
0.017919 -0.226485 
-0.001110 -0.206702 
0.006833 -0.213466 
0.002848 -0.210518 
0.002006 -0.212024 
0.005485 -0.216792 
0.018255 -0.217213 
0.018423 -0.224119 
0.018545 -0.220945 
0.014613 -0.216799 
0.010779 -0.215556 
0.009997 -0.219890 
0.010556 -0.217995 
0.014343 -0.222323 
-0.029439 -0.179251 
-0.026885 -0.183695 
-0.036179 -0.168981 
-0.031700 -0.176589 
-0.039084 -0.165142 
-0.024281 -0.186875 
-0.021682 -0.188975 
-0.049093 -0.132931 
-0.046806 -0.142852 
-0.052825 -0.131301 
-0.033706 -0.164742 
-0.040359 -0.154099 
-0.036798 -0.155290 
-0.047118 -0.149219 
-0.043822 -0.152144 
-0.040248 -0.160843 
-0.014360 -0.190540 
-0.012195 -0.190012 
-0.019135 -0.190174 
-0.016682 -0.190643 
-0.024023 -0.174932 
-0.020529 -0.183176 
-0.027036 -0.174512 
-0.033167 -0.171702 
-0.030101 -0.173489 
-0.026068 -0.181557 
-0.016047 -0.019284 
-0.029206 -0.038596 
-0.023064 -0.027813 
-0.033856 -0.066387 
-0.032648 -0.052198 
-0.027789 -0.050164 
-0.044074 -0.061863 
-0.038289 -0.055926 
-0.044387 -0.071517 
-0.025564 -0.120667 
-0.028910 -0.107917 
-0.025071 -0.107453 
-0.037383 -0.109061 
-0.033024 -0.108450 
-0.033423 -0.121593 
-0.029059 -0.079807 
-0.031605 -0.094503 
-0.033367 -0.080589 
-0.055274 -0.111149 
-0.051039 -0.110994 
-0.050555 -0.122331 
-0.048247 -0.085734 
-0.050352 -0.098834 
-0.053113 -0.088341 
-0.041984 -0.122368 
-0.046528 -0.110435 
-0.041923 -0.109742 
-0.038083 -0.081768 
-0.040693 -0.096220 
-0.043117 -0.083472 
-0.001898 -0.183700 
-0.000939 -0.183342 
-0.004073 -0.185107 
-0.002932 -0.184301 
-0.005043 -0.170227 
-0.004057 -0.177782 
-0.006879 -0.170832 
-0.010208 -0.189190 
-0.008406 -0.188192 
-0.013242 -0.173147 
-0.010966 -0.181144 
-0.015698 -0.173895 
-0.006790 -0.187122 
-0.005352 -0.186068 
-0.018522 -0.132130 
-0.017874 -0.143681 
-0.021812 -0.132622 
-0.010228 -0.162826 
-0.013950 -0.153767 
-0.011329 -0.153166 
-0.019721 -0.154991 
-0.016745 -0.154390 
-0.015185 -0.164222 
-0.007207 -0.179311 
-0.010959 -0.172344 
-0.008843 -0.171553 
-0.045136 -0.133798 
-0.036953 -0.134136 
-0.041054 -0.134140 
-0.039283 -0.145101 
-0.033207 -0.155893 
-0.025316 -0.133105 
-0.022876 -0.155514 
-0.024396 -0.144729 
-0.029027 -0.133548 
-0.032921 -0.133911 
-0.015425 -0.182697 
-0.027091 -0.165895 
-0.021108 -0.174888 
-0.018324 -0.174506 
-0.020830 -0.165443 
-0.031630 -0.145396 
-0.026197 -0.155895 
-0.029655 -0.156054 
0.000000 0.000000 
-0.012419 -0.017153 
-0.008638 -0.016277 
-0.010227 -0.016497 
0.000000 0.000000 
-0.019800 -0.033369 
-0.023741 -0.049125 
-0.004565 -0.016308 
-0.005381 -0.016265 
0.000000 0.000000 
-0.014886 -0.048251 
-0.010406 -0.032369 
-0.012635 -0.048204 
0.000000 0.000000 
-0.006305 -0.016229 
-0.007370 -0.016220 
-0.023778 -0.093519 
-0.021509 -0.107044 
-0.025306 -0.064458 
-0.025162 -0.079290 
-0.018458 -0.078690 
-0.021644 -0.078940 
-0.018666 -0.063813 
-0.014275 -0.032465 
-0.017427 -0.048364 
-0.020340 -0.048611 
-0.000000 -0.016480 
-0.000478 -0.016480 
0.000000 0.000000 
-0.001328 -0.048166 
-0.000925 -0.032545 
-0.000000 -0.048159 
0.000000 0.000000 
-0.000965 -0.016474 
-0.001469 -0.016462 
-0.002314 -0.105392 
-0.002174 -0.091975 
-0.000000 -0.105354 
-0.005141 -0.063360 
-0.003953 -0.077971 
-0.006010 -0.078035 
-0.000000 -0.077908 
-0.001960 -0.077929 
-0.001676 -0.063309 
0.000000 0.000000 
-0.003170 -0.016388 
-0.003834 -0.016350 
-0.001998 -0.016444 
-0.002562 -0.016419 
0.000000 0.000000 
-0.007102 -0.048182 
-0.004953 -0.032491 
-0.005542 -0.048180 
-0.002679 -0.048172 
-0.004076 -0.048176 
-0.002840 -0.032531 
-0.001311 -0.176941 
-0.000000 -0.183240 
-0.005872 -0.161676 
-0.003307 -0.169772 
-0.000000 -0.169392 
-0.001638 -0.169490 
-0.001913 -0.161034 
-0.018646 -0.119779 
-0.015441 -0.131652 
-0.009828 -0.130821 
-0.012550 -0.131210 
-0.012617 -0.119011 
-0.012113 -0.142612 
-0.008862 -0.152624 
-0.000000 -0.130051 
-0.002367 -0.130108 
-0.002378 -0.118122 
-0.002130 -0.151618 
-0.002283 -0.141292 
-0.000000 -0.151540 
-0.007281 -0.118437 
-0.004770 -0.130260 
-0.007246 -0.130500 
-0.006527 -0.152172 
-0.006990 -0.141763 
-0.004294 -0.151831 
-0.007410 -0.032427 
-0.008951 -0.063445 
-0.008783 -0.048183 
-0.010616 -0.048188 
-0.013356 -0.063571 
-0.004664 -0.105485 
-0.009619 -0.105829 
-0.007088 -0.105632 
-0.006663 -0.092145 
-0.008165 -0.078119 
-0.018208 -0.106680 
-0.015559 -0.078501 
-0.017182 -0.092897 
-0.015146 -0.106356 
-0.012294 -0.106072 
-0.010451 -0.078223 
-0.011571 -0.092454 
-0.012903 -0.078349 
0.000000 0.000000 
0.000478 -0.016480 
0.001469 -0.016462 
0.000965 -0.016474 
0.000000 0.000000 
0.000925 -0.032545 
0.001328 -0.048166 
0.003834 -0.016350 
0.003170 -0.016388 
0.000000 0.000000 
0.005542 -0.048180 
0.004953 -0.032491 
0.007102 -0.048182 
0.000000 0.000000 
0.002562 -0.016419 
0.001998 -0.016444 
0.002174 -0.091975 
0.002314 -0.105392 
0.001676 -0.063309 
0.001960 -0.077929 
0.006010 -0.078035 
0.003953 -0.077971 
0.005141 -0.063360 
0.002840 -0.032531 
0.004076 -0.048176 
0.002679 -0.048172 
0.016047 -0.019284 
0.012419 -0.017153 
0.000000 0.000000 
0.023741 -0.049125 
0.019800 -0.033369 
0.027789 -0.050164 
0.000000 0.000000 
0.010227 -0.016497 
0.008638 -0.016277 
0.021509 -0.107044 
0.023778 -0.093519 
0.025071 -0.107453 
0.018666 -0.063813 
0.021644 -0.078940 
0.018458 -0.078690 
0.029059 -0.079807 
0.025162 -0.079290 
0.025306 -0.064458 
0.000000 0.000000 
0.005381 -0.016265 
0.004565 -0.016308 
0.007370 -0.016220 
0.006305 -0.016229 
0.000000 0.000000 
0.012635 -0.048204 
0.010406 -0.032369 
0.014886 -0.048251 
0.020340 -0.048611 
0.017427 -0.048364 
0.014275 -0.032465 
0.001311 -0.176941 
0.000939 -0.183342 
0.001913 -0.161034 
0.001638 -0.169490 
0.005043 -0.170227 
0.003307 -0.169772 
0.005872 -0.161676 
0.002378 -0.118122 
0.002367 -0.130108 
0.007246 -0.130500 
0.004770 -0.130260 
0.007281 -0.118437 
0.002283 -0.141292 
0.002130 -0.151618 
0.018522 -0.132130 
0.015441 -0.131652 
0.018646 -0.119779 
0.008862 -0.152624 
0.012113 -0.142612 
0.011329 -0.153166 
0.012617 -0.119011 
0.012550 -0.131210 
0.009828 -0.130821 
0.004294 -0.151831 
0.006990 -0.141763 
0.006527 -0.152172 
0.007410 -0.032427 
0.013356 -0.063571 
0.010616 -0.048188 
0.008783 -0.048183 
0.008951 -0.063445 
0.018208 -0.106680 
0.012294 -0.106072 
0.015146 -0.106356 
0.017182 -0.092897 
0.015559 -0.078501 
0.004664 -0.105485 
0.008165 -0.078119 
0.006663 -0.092145 
0.007088 -0.105632 
0.009619 -0.105829 
0.012903 -0.078349 
0.011571 -0.092454 
0.010451 -0.078223 
0.023064 -0.027813 
0.029206 -0.038596 
0.044387 -0.071517 
0.038289 -0.055926 
0.044074 -0.061863 
0.032648 -0.052198 
0.033856 -0.066387 
0.050555 -0.122331 
0.051039 -0.110994 
0.055274 -0.111149 
0.041923 -0.109742 
0.046528 -0.110435 
0.041984 -0.122368 
0.053113 -0.088341 
0.050352 -0.098834 
0.048247 -0.085734 
0.028910 -0.107917 
0.025564 -0.120667 
0.033367 -0.080589 
0.031605 -0.094503 
0.033423 -0.121593 
0.033024 -0.108450 
0.037383 -0.109061 
0.043117 -0.083472 
0.040693 -0.096220 
0.038083 -0.081768 
0.021800 -0.190329 
0.026885 -0.183695 
0.029439 -0.179251 
0.021682 -0.188975 
0.024281 -0.186875 
0.017017 -0.195766 
0.039084 -0.165142 
0.031700 -0.176589 
0.036179 -0.168981 
0.012195 -0.190012 
0.014360 -0.190540 
0.008695 -0.196451 
0.027036 -0.174512 
0.020529 -0.183176 
0.024023 -0.174932 
0.012551 -0.197345 
0.016682 -0.190643 
0.019135 -0.190174 
0.052825 -0.131301 
0.046806 -0.142852 
0.049093 -0.132931 
0.040248 -0.160843 
0.043822 -0.152144 
0.047118 -0.149219 
0.036798 -0.155290 
0.040359 -0.154099 
0.033706 -0.164742 
0.026068 -0.181557 
0.030101 -0.173489 
0.033167 -0.171702 
0.001898 -0.183700 
0.000509 -0.188642 
0.006879 -0.170832 
0.004057 -0.177782 
0.001686 -0.189750 
0.002932 -0.184301 
0.004073 -0.185107 
0.021812 -0.132622 
0.017874 -0.143681 
0.015185 -0.164222 
0.016745 -0.154390 
0.019721 -0.154991 
0.013950 -0.153767 
0.010228 -0.162826 
0.005609 -0.194278 
0.008406 -0.188192 
0.010208 -0.189190 
0.005352 -0.186068 
0.006790 -0.187122 
0.003313 -0.191798 
0.015698 -0.173895 