# vtk DataFile Version 2.0
Unstructured Grid Example
ASCII
DATASET UNSTRUCTURED_GRID

POINTS 81 float
-0.019422 -0.244732 0.000000 
1.019422 -0.244732 0.000000 
1.000000 1.000000 0.000000 
0.000000 1.000000 0.000000 
0.500000 -0.096651 0.000000 
0.975780 0.316483 0.000000 
0.500000 1.000000 0.000000 
0.024220 0.316483 0.000000 
0.500000 0.311527 0.000000 
0.226134 -0.172326 0.000000 
0.500000 0.068381 0.000000 
0.230571 0.041575 0.000000 
0.773866 -0.172326 0.000000 
0.769429 0.041575 0.000000 
1.014015 0.024632 0.000000 
0.743074 0.308846 0.000000 
0.949378 0.628916 0.000000 
0.729835 0.632365 0.000000 
0.750000 1.000000 0.000000 
0.500000 0.634795 0.000000 
0.250000 1.000000 0.000000 
0.270165 0.632365 0.000000 
0.050622 0.628916 0.000000 
0.256926 0.308846 0.000000 
-0.014015 0.024632 0.000000 
0.105021 -0.229102 0.000000 
0.222848 -0.071151 0.000000 
0.097598 -0.105158 0.000000 
0.500000 -0.024011 0.000000 
0.357522 -0.037562 0.000000 
0.358253 -0.116963 0.000000 
0.369265 0.177685 0.000000 
0.362314 0.060671 0.000000 
0.500000 0.180702 0.000000 
0.641747 -0.116963 0.000000 
0.642478 -0.037562 0.000000 
0.902402 -0.105158 0.000000 
0.777152 -0.071151 0.000000 
0.894979 -0.229102 0.000000 
0.637686 0.060671 0.000000 
0.630735 0.177685 0.000000 
1.024458 -0.113275 0.000000 
0.893894 0.023675 0.000000 
0.859836 0.306439 0.000000 
0.877943 0.160315 0.000000 
0.995696 0.167669 0.000000 
0.756842 0.167980 0.000000 
0.623058 0.313202 0.000000 
0.958944 0.468013 0.000000 
0.846106 0.462226 0.000000 
0.849772 0.811798 0.000000 
0.840398 0.630152 0.000000 
0.955095 0.802351 0.000000 
0.732860 0.463653 0.000000 
0.616940 0.465941 0.000000 
0.875000 1.000000 0.000000 
0.735783 0.812605 0.000000 
0.500000 0.813498 0.000000 
0.618558 0.812850 0.000000 
0.625000 1.000000 0.000000 
0.615686 0.633741 0.000000 
0.500000 0.466604 0.000000 
0.375000 1.000000 0.000000 
0.381442 0.812850 0.000000 
0.150228 0.811798 0.000000 
0.264217 0.812605 0.000000 
0.125000 1.000000 0.000000 
0.384314 0.633741 0.000000 
0.383060 0.465941 0.000000 
0.044905 0.802351 0.000000 
0.159602 0.630152 0.000000 
0.140164 0.306439 0.000000 
0.153894 0.462226 0.000000 
0.041056 0.468013 0.000000 
0.267140 0.463653 0.000000 
0.376942 0.313202 0.000000 
0.004304 0.167669 0.000000 
0.122057 0.160315 0.000000 
0.106106 0.023675 0.000000 
-0.024458 -0.113275 0.000000 
0.243158 0.167980 0.000000 

CELLS 128 512
3  0 25 27 
3  9 26 25 
3  11 27 26 
3  25 26 27 
3  4 28 30 
3  10 29 28 
3  9 30 29 
3  28 29 30 
3  8 31 33 
3  11 32 31 
3  10 33 32 
3  31 32 33 
3  9 29 26 
3  10 32 29 
3  11 26 32 
3  29 32 26 
3  4 34 28 
3  12 35 34 
3  10 28 35 
3  34 35 28 
3  1 36 38 
3  13 37 36 
3  12 38 37 
3  36 37 38 
3  8 33 40 
3  10 39 33 
3  13 40 39 
3  33 39 40 
3  12 37 35 
3  13 39 37 
3  10 35 39 
3  37 39 35 
3  1 41 36 
3  14 42 41 
3  13 36 42 
3  41 42 36 
3  5 43 45 
3  15 44 43 
3  14 45 44 
3  43 44 45 
3  8 40 47 
3  13 46 40 
3  15 47 46 
3  40 46 47 
3  14 44 42 
3  15 46 44 
3  13 42 46 
3  44 46 42 
3  5 48 43 
3  16 49 48 
3  15 43 49 
3  48 49 43 
3  2 50 52 
3  17 51 50 
3  16 52 51 
3  50 51 52 
3  8 47 54 
3  15 53 47 
3  17 54 53 
3  47 53 54 
3  16 51 49 
3  17 53 51 
3  15 49 53 
3  51 53 49 
3  2 55 50 
3  18 56 55 
3  17 50 56 
3  55 56 50 
3  6 57 59 
3  19 58 57 
3  18 59 58 
3  57 58 59 
3  8 54 61 
3  17 60 54 
3  19 61 60 
3  54 60 61 
3  18 58 56 
3  19 60 58 
3  17 56 60 
3  58 60 56 
3  6 62 57 
3  20 63 62 
3  19 57 63 
3  62 63 57 
3  3 64 66 
3  21 65 64 
3  20 66 65 
3  64 65 66 
3  8 61 68 
3  19 67 61 
3  21 68 67 
3  61 67 68 
3  20 65 63 
3  21 67 65 
3  19 63 67 
3  65 67 63 
3  3 69 64 
3  22 70 69 
3  21 64 70 
3  69 70 64 
3  7 71 73 
3  23 72 71 
3  22 73 72 
3  71 72 73 
3  8 68 75 
3  21 74 68 
3  23 75 74 
3  68 74 75 
3  22 72 70 
3  23 74 72 
3  21 70 74 
3  72 74 70 
3  7 76 71 
3  24 77 76 
3  23 71 77 
3  76 77 71 
3  0 27 79 
3  11 78 27 
3  24 79 78 
3  27 78 79 
3  8 75 31 
3  23 80 75 
3  11 31 80 
3  75 80 31 
3  24 78 77 
3  11 80 78 
3  23 77 80 
3  78 80 77 

CELL_TYPES 128
5
5
5
5
5
5
5
5
5
5
5
5
5
5
5
5
5
5
5
5
5
5
5
5
5
5
5
5
5
5
5
5
5
5
5
5
5
5
5
5
5
5
5
5
5
5
5
5
5
5
5
5
5
5
5
5
5
5
5
5
5
5
5
5
5
5
5
5
5
5
5
5
5
5
5
5
5
5
5
5
5
5
5
5
5
5
5
5
5
5
5
5
5
5
5
5
5
5
5
5
5
5
5
5
5
5
5
5
5
5
5
5
5
5
5
5
5
5
5
5
5
5
5
5
5
5
5
5

POINT_DATA 81

SCALARS u_h float 2
LOOKUP_TABLE default
-0.019422 -0.244732 
0.019422 -0.244732 
0.000000 0.000000 
0.000000 0.000000 
-0.000000 -0.096651 
-0.024220 -0.183517 
0.000000 0.000000 
0.024220 -0.183517 
-0.000000 -0.188473 
-0.023866 -0.172326 
-0.000000 -0.181619 
-0.019429 -0.208425 
0.023866 -0.172326 
0.019429 -0.208425 
0.014015 -0.225368 
-0.006926 -0.191154 
-0.050622 -0.121084 
-0.020165 -0.117635 
0.000000 0.000000 
-0.000000 -0.115205 
0.000000 0.000000 
0.020165 -0.117635 
0.050622 -0.121084 
0.006926 -0.191154 
-0.014015 -0.225368 
-0.019979 -0.229102 
-0.027152 -0.196151 
-0.027402 -0.230158 
-0.000000 -0.149011 
-0.017478 -0.162562 
-0.016747 -0.116963 
-0.005735 -0.197315 
-0.012686 -0.189329 
-0.000000 -0.194298 
0.016747 -0.116963 
0.017478 -0.162562 
0.027402 -0.230158 
0.027152 -0.196151 
0.019979 -0.229102 
0.012686 -0.189329 
0.005735 -0.197315 
0.024458 -0.238275 
0.018894 -0.226325 
-0.015164 -0.193561 
0.002943 -0.214685 
-0.004304 -0.207331 
0.006842 -0.207020 
-0.001942 -0.186798 
-0.041056 -0.156987 
-0.028894 -0.162774 
-0.025228 -0.063202 
-0.034602 -0.119848 
-0.044905 -0.072649 
-0.017140 -0.161347 
-0.008060 -0.159059 
0.000000 0.000000 
-0.014217 -0.062395 
0.000000 -0.061502 
-0.006442 -0.062150 
0.000000 0.000000 
-0.009314 -0.116259 
-0.000000 -0.158396 
0.000000 0.000000 
0.006442 -0.062150 
0.025228 -0.063202 
0.014217 -0.062395 
0.000000 0.000000 
0.009314 -0.116259 
0.008060 -0.159059 
0.044905 -0.072649 
0.034602 -0.119848 
0.015164 -0.193561 
0.028894 -0.162774 
0.041056 -0.156987 
0.017140 -0.161347 
0.001942 -0.186798 
0.004304 -0.207331 
-0.002943 -0.214685 
-0.018894 -0.226325 
-0.024458 -0.238275 
-0.006842 -0.207020 

CELL_DATA 128

SCALARS epsilon float 4
LOOKUP_TABLE default
0.004812 0.006915 0.000000 0.033227
-0.015937 -0.030689 0.000000 0.267580
-0.014352 -0.074409 0.000000 0.181106
0.019855 0.043947 0.000000 0.107509
0.125127 -0.430624 0.000000 0.137860
0.130194 -0.282375 0.000000 0.072231
0.059210 -0.190870 0.000000 0.345598
0.131088 -0.397605 0.000000 0.082309
0.044831 0.045757 0.000000 0.011510
0.045483 -0.062328 0.000000 0.107669
0.096380 -0.104565 0.000000 0.034027
0.045079 -0.066985 0.000000 0.039323
0.082884 -0.153405 0.000000 0.153372
0.094653 -0.235335 0.000000 0.055001
0.044692 -0.099629 0.000000 0.113445
0.063278 -0.195028 0.000000 0.186655
0.125127 -0.430624 0.000000 -0.137860
0.059210 -0.190870 0.000000 -0.345598
0.130194 -0.282375 0.000000 -0.072231
0.131088 -0.397605 0.000000 -0.082309
0.004812 0.006915 0.000000 -0.033227
-0.014352 -0.074409 0.000000 -0.181106
-0.015937 -0.030689 0.000000 -0.267580
0.019855 0.043947 0.000000 -0.107509
0.044831 0.045757 0.000000 -0.011510
0.096380 -0.104565 0.000000 -0.034027
0.045483 -0.062328 0.000000 -0.107669
0.045079 -0.066985 0.000000 -0.039323
0.082884 -0.153405 0.000000 -0.153372
0.044692 -0.099629 0.000000 -0.113445
0.094653 -0.235335 0.000000 -0.055001
0.063278 -0.195028 0.000000 -0.186655
-0.020518 0.054855 0.000000 -0.010282
-0.036087 0.098594 0.000000 -0.039619
-0.011589 0.030580 0.000000 -0.103618
-0.025918 0.027896 0.000000 -0.066306
-0.053422 0.186632 0.000000 -0.049811
-0.061763 0.152660 0.000000 -0.084157
-0.042612 0.143351 0.000000 -0.050777
-0.043448 0.163955 0.000000 -0.050034
-0.013236 0.081465 0.000000 -0.024824
0.006066 0.006423 0.000000 -0.088297
-0.038990 0.115993 0.000000 -0.072098
0.006033 0.078817 0.000000 -0.066083
-0.031497 0.089763 0.000000 -0.062410
-0.032723 0.114447 0.000000 -0.083356
-0.013564 0.007159 0.000000 -0.121343
-0.031716 0.083149 0.000000 -0.093457
-0.058494 0.202185 0.000000 -0.037185
-0.096816 0.251706 0.000000 -0.022447
-0.065404 0.215543 0.000000 -0.064219
-0.092799 0.222323 0.000000 -0.040000
-0.114900 0.454013 0.000000 0.159101
-0.119338 0.361495 0.000000 0.032260
-0.135120 0.318646 0.000000 0.020694
-0.163050 0.366520 0.000000 0.014936
-0.014288 0.198689 0.000000 -0.018551
-0.040682 0.209197 0.000000 -0.055047
-0.075422 0.292436 0.000000 -0.018913
-0.075109 0.197466 0.000000 -0.032967
-0.135817 0.287972 0.000000 -0.028084
-0.122199 0.292435 0.000000 -0.019209
-0.096571 0.210327 0.000000 -0.047992
-0.098124 0.287941 0.000000 -0.027761
0.008985 0.392209 0.000000 0.089533
0.002878 0.388393 0.000000 0.050563
-0.091048 0.353666 0.000000 0.021419
-0.080211 0.393062 0.000000 0.096010
0.000000 0.384138 0.000000 -0.000000
-0.052860 0.345677 0.000000 -0.001809
0.000592 0.387230 0.000000 0.022926
-0.052014 0.387404 0.000000 0.022442
-0.066551 0.212769 0.000000 -0.002128
-0.090595 0.287550 0.000000 -0.009197
-0.077272 0.289793 0.000000 -0.003114
-0.066561 0.287563 0.000000 -0.006980
-0.060697 0.388535 0.000000 0.053262
-0.076976 0.347886 0.000000 0.008356
-0.089493 0.353837 0.000000 0.019820
-0.063947 0.347764 0.000000 0.010452
0.000000 0.384138 0.000000 -0.000000
0.000592 0.387230 0.000000 -0.022926
-0.052860 0.345677 0.000000 0.001809
-0.052014 0.387404 0.000000 -0.022442
0.008985 0.392209 0.000000 -0.089533
-0.091048 0.353666 0.000000 -0.021419
0.002878 0.388393 0.000000 -0.050563
-0.080211 0.393062 0.000000 -0.096010
-0.066551 0.212769 0.000000 0.002128
-0.077272 0.289793 0.000000 0.003114
-0.090595 0.287550 0.000000 0.009197
-0.066561 0.287563 0.000000 0.006980
-0.060697 0.388535 0.000000 -0.053262
-0.089493 0.353837 0.000000 -0.019820
-0.076976 0.347886 0.000000 -0.008356
-0.063947 0.347764 0.000000 -0.010452
-0.114900 0.454013 0.000000 -0.159101
-0.135120 0.318646 0.000000 -0.020694
-0.119338 0.361495 0.000000 -0.032260
-0.163050 0.366520 0.000000 -0.014936
-0.058494 0.202185 0.000000 0.037185
-0.065404 0.215543 0.000000 0.064219
-0.096816 0.251706 0.000000 0.022447
-0.092799 0.222323 0.000000 0.040000
-0.014288 0.198689 0.000000 0.018551
-0.075422 0.292436 0.000000 0.018913
-0.040682 0.209197 0.000000 0.055047
-0.075109 0.197466 0.000000 0.032967
-0.135817 0.287972 0.000000 0.028084
-0.096571 0.210327 0.000000 0.047992
-0.122199 0.292435 0.000000 0.019209
-0.098124 0.287941 0.000000 0.027761
-0.053422 0.186632 0.000000 0.049811
-0.042612 0.143351 0.000000 0.050777
-0.061763 0.152660 0.000000 0.084157
-0.043448 0.163955 0.000000 0.050034
-0.020518 0.054855 0.000000 0.010282
-0.011589 0.030580 0.000000 0.103618
-0.036087 0.098594 0.000000 0.039619
-0.025918 0.027896 0.000000 0.066306
-0.013236 0.081465 0.000000 0.024824
-0.038990 0.115993 0.000000 0.072098
0.006066 0.006423 0.000000 0.088297
0.006033 0.078817 0.000000 0.066083
-0.031497 0.089763 0.000000 0.062410
-0.013564 0.007159 0.000000 0.121343
-0.032723 0.114447 0.000000 0.083356
-0.031716 0.083149 0.000000 0.093457

SCALARS sigma float 4
LOOKUP_TABLE default
0.069972 0.004140 0.020360 0.541316
-2.608337 -5.893875 -2.335773 4.407313
-1.745784 -3.598682 -1.468260 3.086919
0.550435 0.380770 0.255826 1.727132
-4.088995 -17.847880 -6.026614 2.022015
-0.290867 -8.090814 -2.302660 1.055150
-4.163872 -14.426218 -5.107168 5.317459
-2.470307 -13.890336 -4.494682 1.160554
1.603371 1.614093 0.883919 0.180830
0.358442 -1.617362 -0.345857 1.746915
1.303606 -2.058594 -0.207414 0.510961
0.426292 -1.415037 -0.271633 0.668796
-0.162243 -5.161821 -1.462655 2.261243
-0.392934 -6.389022 -1.863175 0.949997
-0.100042 -2.751536 -0.783400 1.869638
-1.286889 -7.003225 -2.277504 3.010323
-4.088995 -17.847880 -6.026614 -2.022015
-4.163872 -14.426218 -5.107168 -5.317459
-0.290867 -8.090814 -2.302660 -1.055150
-2.470307 -13.890336 -4.494682 -1.160554
0.069972 0.004140 0.020360 -0.541316
-1.745784 -3.598682 -1.468260 -3.086919
-2.608337 -5.893875 -2.335773 -4.407313
0.550435 0.380770 0.255826 -1.727132
1.603371 1.614093 0.883919 -0.180830
1.303606 -2.058594 -0.207414 -0.510961
0.358442 -1.617362 -0.345857 -1.746915
0.426292 -1.415037 -0.271633 -0.668796
-0.162243 -5.161821 -1.462655 -2.261243
-0.100042 -2.751536 -0.783400 -1.869638
-0.392934 -6.389022 -1.863175 -0.949997
-1.286889 -7.003225 -2.277504 -3.010323
-0.052620 1.145449 0.300228 -0.196289
-0.114301 2.085343 0.541495 -0.586602
-0.163210 0.400564 0.065207 -1.704202
-0.501255 0.386099 -0.031636 -1.088449
-0.039417 3.821290 1.038976 -0.579698
-0.511231 3.025626 0.690768 -1.235542
-0.071998 2.980945 0.799161 -0.662016
0.101766 3.455913 0.977384 -0.635583
0.387154 1.917622 0.633180 -0.368644
0.064282 0.102946 0.045942 -1.444526
-0.099320 2.437907 0.642469 -1.102691
0.852717 1.986559 0.780021 -1.047150
-0.186357 1.874851 0.463872 -0.935532
0.051551 2.441591 0.684929 -1.295769
-0.531240 -0.274819 -0.221445 -2.015083
-0.269054 1.670331 0.384966 -1.473758
0.038645 4.151414 1.151115 -0.392467
-0.501850 4.908800 1.210701 -0.212703
0.047665 4.453760 1.236655 -0.911004
-0.701732 4.284567 0.984295 -0.461085
-0.504412 8.405931 2.170747 1.711061
-0.290877 6.957350 1.831449 0.365095
-1.074208 5.914117 1.329645 0.242907
-1.637550 6.502879 1.336629 -0.003876
1.418457 4.653947 1.668243 -0.242139
0.743796 4.591646 1.465781 -0.805714
0.510465 6.046106 1.801256 -0.278570
-0.280688 3.985604 1.017834 -0.487018
-1.339249 5.266438 1.078898 -0.389131
-0.869648 5.523253 1.278463 -0.287926
-0.845640 4.018227 0.871590 -0.681132
-0.199505 5.697446 1.510423 -0.384710
3.358214 8.865686 3.358214 1.099199
3.329611 8.790174 3.329611 0.622102
0.522919 7.131856 2.102960 0.256420
0.841718 7.926707 2.408908 1.165717
3.297657 8.705814 3.297657 -0.000000
1.570689 7.390246 2.461795 -0.031376
3.320883 8.767130 3.320883 0.282254
1.892916 8.229077 2.780768 0.267580
0.119848 4.431030 1.250241 -0.037491
0.037866 5.780389 1.598422 -0.140722
0.442436 5.974318 1.762844 -0.055544
0.729481 6.043167 1.860618 -0.100154
1.584134 8.131399 2.669102 0.651833
0.900655 7.174590 2.218474 0.089913
0.569517 7.152077 2.121317 0.227706
1.271183 7.313164 2.358337 0.128259
3.297657 8.705814 3.297657 -0.000000
3.320883 8.767130 3.320883 -0.282254
1.570689 7.390246 2.461795 0.031376
1.892916 8.229077 2.780768 -0.267580
3.358214 8.865686 3.358214 -1.099199
0.522919 7.131856 2.102960 -0.256420
3.329611 8.790174 3.329611 -0.622102
0.841718 7.926707 2.408908 -1.165717
0.119848 4.431030 1.250241 0.037491
0.442436 5.974318 1.762844 0.055544
0.037866 5.780389 1.598422 0.140722
0.729481 6.043167 1.860618 0.100154
1.584134 8.131399 2.669102 -0.651833
0.569517 7.152077 2.121317 -0.227706
0.900655 7.174590 2.218474 -0.089913
1.271183 7.313164 2.358337 -0.128259
-0.504412 8.405931 2.170747 -1.711061
-1.074208 5.914117 1.329645 -0.242907
-0.290877 6.957350 1.831449 -0.365095
-1.637550 6.502879 1.336629 0.003876
0.038645 4.151414 1.151115 0.392467
0.047665 4.453760 1.236655 0.911004
-0.501850 4.908800 1.210701 0.212703
-0.701732 4.284567 0.984295 0.461085
1.418457 4.653947 1.668243 0.242139
0.510465 6.046106 1.801256 0.278570
0.743796 4.591646 1.465781 0.805714
-0.280688 3.985604 1.017834 0.487018
-1.339249 5.266438 1.078898 0.389131
-0.845640 4.018227 0.871590 0.681132
-0.869648 5.523253 1.278463 0.287926
-0.199505 5.697446 1.510423 0.384710
-0.039417 3.821290 1.038976 0.579698
-0.071998 2.980945 0.799161 0.662016
-0.511231 3.025626 0.690768 1.235542
0.101766 3.455913 0.977384 0.635583
-0.052620 1.145449 0.300228 0.196289
-0.163210 0.400564 0.065207 1.704202
-0.114301 2.085343 0.541495 0.586602
-0.501255 0.386099 -0.031636 1.088449
0.387154 1.917622 0.633180 0.368644
-0.099320 2.437907 0.642469 1.102691
0.064282 0.102946 0.045942 1.444526
0.852717 1.986559 0.780021 1.047150
-0.186357 1.874851 0.463872 0.935532
-0.531240 -0.274819 -0.221445 2.015083
0.051551 2.441591 0.684929 1.295769
-0.269054 1.670331 0.384966 1.473758

