# vtk DataFile Version 2.0
Unstructured Grid Example
ASCII
DATASET UNSTRUCTURED_GRID

POINTS 25 float
0.011508 -0.147650 0.000000 
0.988492 -0.147650 0.000000 
1.000000 1.000000 0.000000 
0.000000 1.000000 0.000000 
0.500000 -0.100000 0.000000 
0.974398 0.399518 0.000000 
0.500000 1.000000 0.000000 
0.025602 0.399518 0.000000 
0.500000 0.400776 0.000000 
0.255813 -0.139969 0.000000 
0.500000 0.132756 0.000000 
0.255926 0.119433 0.000000 
0.744187 -0.139969 0.000000 
0.744074 0.119433 0.000000 
0.984375 0.117925 0.000000 
0.738052 0.398116 0.000000 
0.971851 0.689735 0.000000 
0.739695 0.694178 0.000000 
0.750000 1.000000 0.000000 
0.500000 0.695604 0.000000 
0.250000 1.000000 0.000000 
0.260305 0.694178 0.000000 
0.028149 0.689735 0.000000 
0.261948 0.398116 0.000000 
0.015625 0.117925 0.000000 

CELLS 32 128
3  0 9 11 
3  4 10 9 
3  8 11 10 
3  9 10 11 
3  4 12 10 
3  1 13 12 
3  8 10 13 
3  12 13 10 
3  1 14 13 
3  5 15 14 
3  8 13 15 
3  14 15 13 
3  5 16 15 
3  2 17 16 
3  8 15 17 
3  16 17 15 
3  2 18 17 
3  6 19 18 
3  8 17 19 
3  18 19 17 
3  6 20 19 
3  3 21 20 
3  8 19 21 
3  20 21 19 
3  3 22 21 
3  7 23 22 
3  8 21 23 
3  22 23 21 
3  7 24 23 
3  0 11 24 
3  8 23 11 
3  24 11 23 

CELL_TYPES 32
5
5
5
5
5
5
5
5
5
5
5
5
5
5
5
5
5
5
5
5
5
5
5
5
5
5
5
5
5
5
5
5

POINT_DATA 25

SCALARS u_h float 2
LOOKUP_TABLE default
0.011508 -0.147650 
-0.011508 -0.147650 
0.000000 0.000000 
0.000000 0.000000 
0.000000 -0.100000 
-0.025602 -0.100482 
0.000000 0.000000 
0.025602 -0.100482 
0.000000 -0.099224 
0.005813 -0.139969 
0.000000 -0.117244 
0.005926 -0.130567 
-0.005813 -0.139969 
-0.005926 -0.130567 
-0.015625 -0.132075 
-0.011948 -0.101884 
-0.028149 -0.060265 
-0.010305 -0.055822 
0.000000 0.000000 
-0.000000 -0.054396 
0.000000 0.000000 
0.010305 -0.055822 
0.028149 -0.060265 
0.011948 -0.101884 
0.015625 -0.132075 

CELL_DATA 32

SCALARS epsilon float 4
LOOKUP_TABLE default
-0.023053 0.037348 0.000000 0.015028
-0.023522 -0.055887 0.000000 0.085812
-0.023986 0.070790 0.000000 0.024840
-0.024010 0.038263 0.000000 0.025897
-0.023522 -0.055887 0.000000 -0.085812
-0.023053 0.037348 0.000000 -0.015028
-0.023986 0.070790 0.000000 -0.024840
-0.024010 0.038263 0.000000 -0.025897
-0.039514 0.060286 0.000000 -0.011372
-0.055191 0.118708 0.000000 -0.018360
-0.048916 0.108030 0.000000 -0.017276
-0.039430 0.108101 0.000000 -0.015099
-0.056008 0.148244 0.000000 -0.002876
-0.067427 0.214888 0.000000 0.051185
-0.048854 0.167790 0.000000 -0.001113
-0.073784 0.167919 0.000000 -0.004004
0.000568 0.199191 0.000000 0.019923
0.000000 0.194668 0.000000 0.000000
-0.042066 0.163621 0.000000 -0.002415
-0.041249 0.199397 0.000000 0.018450
0.000000 0.194668 0.000000 0.000000
0.000568 0.199191 0.000000 -0.019923
-0.042066 0.163621 0.000000 0.002415
-0.041249 0.199397 0.000000 -0.018450
-0.067427 0.214888 0.000000 -0.051185
-0.056008 0.148244 0.000000 0.002876
-0.048854 0.167790 0.000000 0.001113
-0.073784 0.167919 0.000000 0.004004
-0.055191 0.118708 0.000000 0.018360
-0.039514 0.060286 0.000000 0.011372
-0.048916 0.108030 0.000000 0.017276
-0.039430 0.108101 0.000000 0.015099

SCALARS sigma float 4
LOOKUP_TABLE default
-0.222171 0.782945 0.142950 0.263600
-0.904351 -1.583910 -0.794095 1.073073
0.093593 1.738526 0.468040 0.480426
-0.222786 0.798125 0.142529 0.454899
-0.904351 -1.583910 -0.794095 -1.073073
-0.222171 0.782945 0.142950 -0.263600
0.093593 1.738526 0.468040 -0.480426
-0.222786 0.798125 0.142529 -0.454899
-0.421397 1.269464 0.207716 -0.186024
-0.256020 2.883414 0.635165 -0.270175
-0.197587 2.611955 0.591146 -0.292726
0.039836 2.717979 0.686711 -0.251442
0.003371 3.818872 0.922360 -0.027309
0.328213 6.058549 1.474601 0.699541
0.368876 4.554387 1.189363 -0.054521
-0.247032 4.270071 0.941348 -0.120327
2.006896 6.236232 1.997586 0.326729
1.946679 6.057620 1.946679 0.000000
0.503258 4.491744 1.215543 -0.057576
0.864808 5.748576 1.581477 0.266031
1.946679 6.057620 1.946679 0.000000
2.006896 6.236232 1.997586 -0.326729
0.503258 4.491744 1.215543 0.057576
0.864808 5.748576 1.581477 -0.266031
0.328213 6.058549 1.474601 -0.699541
0.003371 3.818872 0.922360 0.027309
0.368876 4.554387 1.189363 0.054521
-0.247032 4.270071 0.941348 0.120327
-0.256020 2.883414 0.635165 0.270175
-0.421397 1.269464 0.207716 0.186024
-0.197587 2.611955 0.591146 0.292726
0.039836 2.717979 0.686711 0.251442

