# vtk DataFile Version 2.0
Unstructured Grid Example
ASCII
DATASET UNSTRUCTURED_GRID

POINTS 9 float
0.009096 -0.146575 0.000000 
0.990904 -0.146575 0.000000 
1.000000 1.000000 0.000000 
0.000000 1.000000 0.000000 
0.500000 -0.100000 0.000000 
0.976732 0.403695 0.000000 
0.500000 1.000000 0.000000 
0.023268 0.403695 0.000000 
0.500000 0.404249 0.000000 

CELLS 8 32
3  0 4 8 
3  4 1 8 
3  1 5 8 
3  5 2 8 
3  2 6 8 
3  6 3 8 
3  3 7 8 
3  7 0 8 

CELL_TYPES 8
5
5
5
5
5
5
5
5

POINT_DATA 9

SCALARS u_h float 2
LOOKUP_TABLE default
0.009096 -0.146575 
-0.009096 -0.146575 
0.000000 0.000000 
0.000000 0.000000 
0.000000 -0.100000 
-0.023268 -0.096305 
0.000000 0.000000 
0.023268 -0.096305 
0.000000 -0.095751 

CELL_DATA 8

SCALARS epsilon float 4
LOOKUP_TABLE default
-0.018358 0.012888 0.000000 0.046166
-0.018358 0.012888 0.000000 -0.046166
-0.047281 0.095497 0.000000 -0.015242
-0.046733 0.174590 0.000000 0.023303
0.000000 0.173638 0.000000 -0.000000
0.000000 0.173638 0.000000 -0.000000
-0.046733 0.174590 0.000000 -0.023303
-0.047281 0.095497 0.000000 0.015242

SCALARS sigma float 4
LOOKUP_TABLE default
-0.277948 0.157984 -0.054699 0.757834
-0.277948 0.157984 -0.054699 -0.757834
-0.278662 2.242138 0.482163 -0.239933
0.486791 4.826554 1.278564 0.359487
1.736384 5.320813 1.736384 -0.000000
1.736384 5.320813 1.736384 -0.000000
0.486791 4.826554 1.278564 -0.359487
-0.278662 2.242138 0.482163 0.239933

