# vtk DataFile Version 2.0
Unstructured Grid Example
ASCII
DATASET UNSTRUCTURED_GRID

POINTS 9 float
0.034007 -0.282553 0.000000 
0.965993 -0.282553 0.000000 
1.000000 1.000000 0.000000 
0.000000 1.000000 0.000000 
0.500000 -0.255831 0.000000 
0.951830 0.320590 0.000000 
0.500000 1.000000 0.000000 
0.048170 0.320590 0.000000 
0.500000 0.314758 0.000000 

CELLS 8 32
3  0 4 8 
3  4 1 8 
3  1 5 8 
3  5 2 8 
3  2 6 8 
3  6 3 8 
3  3 7 8 
3  7 0 8 

CELL_TYPES 8
5
5
5
5
5
5
5
5

POINT_DATA 9

SCALARS u_h float 2
LOOKUP_TABLE default
0.034007 -0.282553 
-0.034007 -0.282553 
0.000000 0.000000 
0.000000 0.000000 
0.000000 -0.255831 
-0.048170 -0.179410 
0.000000 0.000000 
0.048170 -0.179410 
0.000000 -0.185242 

CELL_DATA 8

SCALARS epsilon float 4
LOOKUP_TABLE default
-0.070315 0.132627 0.000000 0.023291
-0.070315 0.132627 0.000000 -0.023291
-0.100291 0.185981 0.000000 -0.010433
-0.098749 0.298127 0.000000 0.053850
0.000000 0.306871 0.000000 -0.000000
0.000000 0.306871 0.000000 -0.000000
-0.098749 0.298127 0.000000 -0.053850
-0.100291 0.185981 0.000000 0.010433

SCALARS sigma float 4
LOOKUP_TABLE default
-0.472176 3.144382 0.623120 0.494698
-0.472176 3.144382 0.623120 -0.494698
-0.705963 4.580557 0.856906 -0.111119
0.342399 8.765360 1.993774 0.853530
3.068707 10.291444 3.068707 -0.000000
3.068707 10.291444 3.068707 -0.000000
0.342399 8.765360 1.993774 -0.853530
-0.705963 4.580557 0.856906 0.111119

