# vtk DataFile Version 2.0
Unstructured Grid Example
ASCII
DATASET UNSTRUCTURED_GRID

POINTS 25 float
0.029496 -0.273806 0.000000 
0.970504 -0.273806 0.000000 
1.000000 1.000000 0.000000 
0.000000 1.000000 0.000000 
0.500000 -0.263962 0.000000 
0.946470 0.318166 0.000000 
0.500000 1.000000 0.000000 
0.053530 0.318166 0.000000 
0.500000 0.313372 0.000000 
0.265898 -0.270589 0.000000 
0.500000 0.007404 0.000000 
0.268799 0.005378 0.000000 
0.734102 -0.270589 0.000000 
0.731201 0.005378 0.000000 
0.960353 0.007731 0.000000 
0.724324 0.314827 0.000000 
0.946272 0.644002 0.000000 
0.730567 0.650988 0.000000 
0.750000 1.000000 0.000000 
0.500000 0.650912 0.000000 
0.250000 1.000000 0.000000 
0.269433 0.650988 0.000000 
0.053728 0.644002 0.000000 
0.275676 0.314827 0.000000 
0.039647 0.007731 0.000000 

CELLS 32 128
3  0 9 11 
3  4 10 9 
3  8 11 10 
3  9 10 11 
3  4 12 10 
3  1 13 12 
3  8 10 13 
3  12 13 10 
3  1 14 13 
3  5 15 14 
3  8 13 15 
3  14 15 13 
3  5 16 15 
3  2 17 16 
3  8 15 17 
3  16 17 15 
3  2 18 17 
3  6 19 18 
3  8 17 19 
3  18 19 17 
3  6 20 19 
3  3 21 20 
3  8 19 21 
3  20 21 19 
3  3 22 21 
3  7 23 22 
3  8 21 23 
3  22 23 21 
3  7 24 23 
3  0 11 24 
3  8 23 11 
3  24 11 23 

CELL_TYPES 32
5
5
5
5
5
5
5
5
5
5
5
5
5
5
5
5
5
5
5
5
5
5
5
5
5
5
5
5
5
5
5
5

POINT_DATA 25

SCALARS u_h float 2
LOOKUP_TABLE default
0.029496 -0.273806 
-0.029496 -0.273806 
0.000000 0.000000 
0.000000 0.000000 
0.000000 -0.263962 
-0.053530 -0.181834 
0.000000 0.000000 
0.053530 -0.181834 
-0.000000 -0.186628 
0.015898 -0.270589 
0.000000 -0.242596 
0.018799 -0.244622 
-0.015898 -0.270589 
-0.018799 -0.244622 
-0.039647 -0.242269 
-0.025676 -0.185173 
-0.053728 -0.105998 
-0.019433 -0.099012 
0.000000 0.000000 
-0.000000 -0.099088 
0.000000 0.000000 
0.019433 -0.099012 
0.053728 -0.105998 
0.025676 -0.185173 
0.039647 -0.242269 

CELL_DATA 32

SCALARS epsilon float 4
LOOKUP_TABLE default
-0.055947 0.098455 0.000000 0.011893
-0.065605 0.082177 0.000000 0.012153
-0.078006 0.199674 0.000000 0.003289
-0.078033 0.098461 0.000000 0.009866
-0.065605 0.082177 0.000000 -0.012153
-0.055947 0.098455 0.000000 -0.011893
-0.078006 0.199674 0.000000 -0.003289
-0.078033 0.098461 0.000000 -0.009866
-0.085696 0.118698 0.000000 -0.017725
-0.115596 0.214351 0.000000 -0.024761
-0.107461 0.210717 0.000000 -0.012441
-0.086316 0.210818 0.000000 -0.010680
-0.117513 0.259903 0.000000 0.004622
-0.126444 0.346769 0.000000 0.103664
-0.107815 0.289055 0.000000 0.015138
-0.145533 0.290008 0.000000 0.003388
0.001550 0.323933 0.000000 0.035738
0.000000 0.324134 0.000000 0.000000
-0.080733 0.292977 0.000000 0.000112
-0.078928 0.323917 0.000000 0.038859
0.000000 0.324134 0.000000 0.000000
0.001550 0.323933 0.000000 -0.035738
-0.080733 0.292977 0.000000 -0.000112
-0.078928 0.323917 0.000000 -0.038859
-0.126444 0.346769 0.000000 -0.103664
-0.117513 0.259903 0.000000 -0.004622
-0.107815 0.289055 0.000000 -0.015138
-0.145533 0.290008 0.000000 -0.003388
-0.115596 0.214351 0.000000 0.024761
-0.085696 0.118698 0.000000 0.017725
-0.107461 0.210717 0.000000 0.012441
-0.086316 0.210818 0.000000 0.010680

SCALARS sigma float 4
LOOKUP_TABLE default
-0.461639 2.233583 0.425084 0.208946
-0.843190 1.632586 0.165721 0.225240
-0.057148 5.312886 1.216678 0.081718
-0.986626 1.991894 0.204280 0.163071
-0.843190 1.632586 0.165721 -0.225240
-0.461639 2.233583 0.425084 -0.208946
-0.057148 5.312886 1.216678 -0.081718
-0.986626 1.991894 0.204280 -0.163071
-0.980655 2.543863 0.330015 -0.243614
-0.799951 5.402387 0.987547 -0.300989
-0.647462 5.356138 1.032555 -0.157198
-0.156548 5.610940 1.245018 -0.120276
-0.439344 7.009730 1.423895 0.131893
0.071224 10.562460 2.203252 1.260818
0.040371 8.237039 1.812406 0.251422
-0.794218 7.794181 1.444748 -0.102485
3.280259 11.030473 3.254836 0.586110
3.241344 10.986088 3.241344 0.000000
0.731138 8.723845 2.122448 0.003383
1.058198 10.002542 2.449882 0.585407
3.241344 10.986088 3.241344 0.000000
3.280259 11.030473 3.254836 -0.586110
0.731138 8.723845 2.122448 -0.003383
1.058198 10.002542 2.449882 -0.585407
0.071224 10.562460 2.203252 -1.260818
-0.439344 7.009730 1.423895 -0.131893
0.040371 8.237039 1.812406 -0.251422
-0.794218 7.794181 1.444748 0.102485
-0.799951 5.402387 0.987547 0.300989
-0.980655 2.543863 0.330015 0.243614
-0.647462 5.356138 1.032555 0.157198
-0.156548 5.610940 1.245018 0.120276

