# vtk DataFile Version 2.0
Unstructured Grid Example
ASCII
DATASET UNSTRUCTURED_GRID

POINTS 1089 float
0.013585 -0.257033 0.000000 
0.986415 -0.257033 0.000000 
1.000000 1.000000 0.000000 
0.000000 1.000000 0.000000 
0.500000 -0.273851 0.000000 
0.939348 0.316061 0.000000 
0.500000 1.000000 0.000000 
0.060652 0.316061 0.000000 
0.500000 0.313560 0.000000 
0.260034 -0.271885 0.000000 
0.500000 0.001919 0.000000 
0.270973 0.002613 0.000000 
0.739966 -0.271885 0.000000 
0.729027 0.002613 0.000000 
0.960125 0.014393 0.000000 
0.720729 0.312882 0.000000 
0.938445 0.640607 0.000000 
0.727179 0.649464 0.000000 
0.750000 1.000000 0.000000 
0.500000 0.649864 0.000000 
0.250000 1.000000 0.000000 
0.272821 0.649464 0.000000 
0.061555 0.640607 0.000000 
0.279271 0.312882 0.000000 
0.039875 0.014393 0.000000 
0.137332 -0.266793 0.000000 
0.264899 -0.139825 0.000000 
0.146038 -0.135605 0.000000 
0.500000 -0.141229 0.000000 
0.382740 -0.141088 0.000000 
0.380720 -0.273729 0.000000 
0.388018 0.153914 0.000000 
0.385587 0.001948 0.000000 
0.500000 0.154013 0.000000 
0.619280 -0.273729 0.000000 
0.617260 -0.141088 0.000000 
0.853962 -0.135605 0.000000 
0.735101 -0.139825 0.000000 
0.862668 -0.266793 0.000000 
0.614413 0.001948 0.000000 
0.611982 0.153914 0.000000 
0.973592 -0.125884 0.000000 
0.844229 0.005711 0.000000 
0.829699 0.312705 0.000000 
0.835556 0.155485 0.000000 
0.948139 0.161998 0.000000 
0.723731 0.153900 0.000000 
0.610806 0.313462 0.000000 
0.935082 0.475452 0.000000 
0.828771 0.476827 0.000000 
0.851859 0.823168 0.000000 
0.835297 0.647398 0.000000 
0.954002 0.812321 0.000000 
0.721539 0.478514 0.000000 
0.611568 0.479242 0.000000 
0.875000 1.000000 0.000000 
0.737462 0.823896 0.000000 
0.500000 0.823682 0.000000 
0.619310 0.823748 0.000000 
0.625000 1.000000 0.000000 
0.614521 0.649811 0.000000 
0.500000 0.479432 0.000000 
0.375000 1.000000 0.000000 
0.380690 0.823748 0.000000 
0.148141 0.823168 0.000000 
0.262538 0.823896 0.000000 
0.125000 1.000000 0.000000 
0.385479 0.649811 0.000000 
0.388432 0.479242 0.000000 
0.045998 0.812321 0.000000 
0.164703 0.647398 0.000000 
0.170301 0.312705 0.000000 
0.171229 0.476827 0.000000 
0.064918 0.475452 0.000000 
0.278461 0.478514 0.000000 
0.389194 0.313462 0.000000 
0.051861 0.161998 0.000000 
0.164444 0.155485 0.000000 
0.155771 0.005711 0.000000 
0.026408 -0.125884 0.000000 
0.276269 0.153900 0.000000 
0.075463 -0.262422 0.000000 
0.141411 -0.202609 0.000000 
0.080595 -0.198416 0.000000 
0.262145 -0.207275 0.000000 
0.201949 -0.205478 0.000000 
0.198922 -0.269880 0.000000 
0.209538 -0.068441 0.000000 
0.205607 -0.138235 0.000000 
0.267929 -0.069795 0.000000 
0.500000 -0.208965 0.000000 
0.440808 -0.208990 0.000000 
0.440466 -0.273986 0.000000 
0.442095 -0.070860 0.000000 
0.441401 -0.141224 0.000000 
0.500000 -0.070867 0.000000 
0.320615 -0.273086 0.000000 
0.381514 -0.208807 0.000000 
0.321987 -0.208298 0.000000 
0.444355 0.232948 0.000000 
0.443982 0.153996 0.000000 
0.500000 0.232953 0.000000 
0.328328 0.002119 0.000000 
0.386912 0.076901 0.000000 
0.330380 0.076945 0.000000 
0.500000 0.076940 0.000000 
0.443448 0.076929 0.000000 
0.442800 0.001918 0.000000 
0.323929 -0.140688 0.000000 
0.384154 -0.070774 0.000000 
0.326118 -0.070484 0.000000 
0.559534 -0.273986 0.000000 
0.559192 -0.208990 0.000000 
0.678013 -0.208298 0.000000 
0.618486 -0.208807 0.000000 
0.679385 -0.273086 0.000000 
0.558599 -0.141224 0.000000 
0.557905 -0.070860 0.000000 
0.919405 -0.198416 0.000000 
0.858589 -0.202609 0.000000 
0.924537 -0.262422 0.000000 
0.732071 -0.069795 0.000000 
0.794393 -0.138235 0.000000 
0.790462 -0.068441 0.000000 
0.801078 -0.269880 0.000000 
0.798051 -0.205478 0.000000 
0.737855 -0.207275 0.000000 
0.556018 0.153996 0.000000 
0.555645 0.232948 0.000000 
0.557200 0.001918 0.000000 
0.556552 0.076929 0.000000 
0.669620 0.076945 0.000000 
0.613088 0.076901 0.000000 
0.671672 0.002119 0.000000 
0.676071 -0.140688 0.000000 
0.673882 -0.070484 0.000000 
0.615846 -0.070774 0.000000 
0.980304 -0.192779 0.000000 
0.913757 -0.131609 0.000000 
0.902119 0.009099 0.000000 
0.907899 -0.062347 0.000000 
0.966779 -0.056744 0.000000 
0.849082 -0.066089 0.000000 
0.786532 0.003694 0.000000 
0.884275 0.313562 0.000000 
0.887537 0.234872 0.000000 
0.943214 0.238249 0.000000 
0.777000 0.232582 0.000000 
0.832170 0.233210 0.000000 
0.775275 0.312635 0.000000 
0.953844 0.087350 0.000000 
0.891726 0.157834 0.000000 
0.896655 0.082540 0.000000 
0.611191 0.232823 0.000000 
0.555463 0.313614 0.000000 
0.726183 0.077228 0.000000 
0.667881 0.153835 0.000000 
0.665914 0.313198 0.000000 
0.666599 0.232637 0.000000 
0.721852 0.232495 0.000000 
0.839646 0.079616 0.000000 
0.779590 0.154336 0.000000 
0.782836 0.078001 0.000000 
0.936399 0.395019 0.000000 
0.882218 0.393875 0.000000 
0.883179 0.559397 0.000000 
0.881730 0.475815 0.000000 
0.935618 0.557306 0.000000 
0.828478 0.393929 0.000000 
0.774709 0.394413 0.000000 
0.920723 0.910656 0.000000 
0.905046 0.820544 0.000000 
0.969929 0.902347 0.000000 
0.782001 0.648824 0.000000 
0.842247 0.734807 0.000000 
0.787942 0.735998 0.000000 
0.944216 0.725484 0.000000 
0.894039 0.731722 0.000000 
0.887053 0.644675 0.000000 
0.610916 0.395662 0.000000 
0.555530 0.395819 0.000000 
0.720583 0.394942 0.000000 
0.665974 0.395369 0.000000 
0.668606 0.563824 0.000000 
0.666853 0.478973 0.000000 
0.723721 0.563426 0.000000 
0.830921 0.561345 0.000000 
0.777867 0.562667 0.000000 
0.775496 0.477801 0.000000 
0.937500 1.000000 0.000000 
0.863379 0.911753 0.000000 
0.743667 0.911804 0.000000 
0.803922 0.911874 0.000000 
0.812500 1.000000 0.000000 
0.795452 0.823811 0.000000 
0.731837 0.736377 0.000000 
0.500000 0.911564 0.000000 
0.561088 0.911576 0.000000 
0.562500 1.000000 0.000000 
0.558457 0.736413 0.000000 
0.559718 0.823692 0.000000 
0.500000 0.736416 0.000000 
0.687500 1.000000 0.000000 
0.622113 0.911625 0.000000 
0.683006 0.911706 0.000000 
0.555878 0.479379 0.000000 
0.500000 0.395855 0.000000 
0.671225 0.649720 0.000000 
0.612777 0.564020 0.000000 
0.500000 0.564154 0.000000 
0.556496 0.564111 0.000000 
0.557366 0.649841 0.000000 
0.678628 0.823832 0.000000 
0.616734 0.736438 0.000000 
0.674622 0.736454 0.000000 
0.437500 1.000000 0.000000 
0.438912 0.911576 0.000000 
0.316994 0.911706 0.000000 
0.377887 0.911625 0.000000 
0.312500 1.000000 0.000000 
0.440282 0.823692 0.000000 
0.441543 0.736413 0.000000 
0.079277 0.910656 0.000000 
0.136621 0.911753 0.000000 
0.062500 1.000000 0.000000 
0.268163 0.736377 0.000000 
0.204548 0.823811 0.000000 
0.212058 0.735998 0.000000 
0.187500 1.000000 0.000000 
0.196078 0.911874 0.000000 
0.256333 0.911804 0.000000 
0.444122 0.479379 0.000000 
0.444470 0.395819 0.000000 
0.442634 0.649841 0.000000 
0.443504 0.564111 0.000000 
0.331394 0.563824 0.000000 
0.387223 0.564020 0.000000 
0.328775 0.649720 0.000000 
0.321372 0.823832 0.000000 
0.325378 0.736454 0.000000 
0.383266 0.736438 0.000000 
0.030071 0.902347 0.000000 
0.094954 0.820544 0.000000 
0.112947 0.644675 0.000000 
0.105961 0.731722 0.000000 
0.055784 0.725484 0.000000 
0.157753 0.734807 0.000000 
0.217999 0.648824 0.000000 
0.115725 0.313562 0.000000 
0.117782 0.393875 0.000000 
0.063601 0.395019 0.000000 
0.225291 0.394413 0.000000 
0.171522 0.393929 0.000000 
0.224725 0.312635 0.000000 
0.064382 0.557306 0.000000 
0.118270 0.475815 0.000000 
0.116821 0.559397 0.000000 
0.389084 0.395662 0.000000 
0.444537 0.313614 0.000000 
0.276279 0.563426 0.000000 
0.333147 0.478973 0.000000 
0.334086 0.313198 0.000000 
0.334026 0.395369 0.000000 
0.279417 0.394942 0.000000 
0.169079 0.561345 0.000000 
0.224504 0.477801 0.000000 
0.222133 0.562667 0.000000 
0.056786 0.238249 0.000000 
0.112463 0.234872 0.000000 
0.103345 0.082540 0.000000 
0.108274 0.157834 0.000000 
0.046156 0.087350 0.000000 
0.167830 0.233210 0.000000 
0.223000 0.232582 0.000000 
0.086243 -0.131609 0.000000 
0.019696 -0.192779 0.000000 
0.213468 0.003694 0.000000 
0.150918 -0.066089 0.000000 
0.033221 -0.056744 0.000000 
0.092101 -0.062347 0.000000 
0.097881 0.009099 0.000000 
0.388809 0.232823 0.000000 
0.278148 0.232495 0.000000 
0.333401 0.232637 0.000000 
0.332119 0.153835 0.000000 
0.273817 0.077228 0.000000 
0.160354 0.079616 0.000000 
0.217164 0.078001 0.000000 
0.220410 0.154336 0.000000 
0.044520 -0.259783 0.000000 
0.077954 -0.230789 0.000000 
0.047221 -0.228160 0.000000 
0.139285 -0.235079 0.000000 
0.108647 -0.233104 0.000000 
0.106414 -0.264772 0.000000 
0.113548 -0.167573 0.000000 
0.111032 -0.200688 0.000000 
0.143674 -0.169438 0.000000 
0.260979 -0.239955 0.000000 
0.230707 -0.239123 0.000000 
0.229544 -0.271001 0.000000 
0.233635 -0.173152 0.000000 
0.232092 -0.206492 0.000000 
0.263468 -0.173887 0.000000 
0.168178 -0.268488 0.000000 
0.200329 -0.238058 0.000000 
0.169851 -0.236721 0.000000 
0.240516 -0.033364 0.000000 
0.238761 -0.069220 0.000000 
0.269463 -0.033877 0.000000 
0.175856 -0.137070 0.000000 
0.207556 -0.103642 0.000000 
0.178041 -0.102543 0.000000 
0.266398 -0.105119 0.000000 
0.237008 -0.104487 0.000000 
0.235288 -0.139140 0.000000 
0.171720 -0.204196 0.000000 
0.203724 -0.172191 0.000000 
0.173736 -0.170965 0.000000 
0.500000 -0.241779 0.000000 
0.470299 -0.241846 0.000000 
0.470247 -0.273988 0.000000 
0.470544 -0.175453 0.000000 
0.470406 -0.208996 0.000000 
0.500000 -0.175438 0.000000 
0.410629 -0.273899 0.000000 
0.440592 -0.241844 0.000000 
0.410846 -0.241774 0.000000 
0.471226 -0.034765 0.000000 
0.471049 -0.070868 0.000000 
0.500000 -0.034765 0.000000 
0.412084 -0.141180 0.000000 
0.441742 -0.106355 0.000000 
0.412599 -0.106319 0.000000 
0.500000 -0.106363 0.000000 
0.470872 -0.106366 0.000000 
0.470702 -0.141236 0.000000 
0.290389 -0.272569 0.000000 
0.321204 -0.241060 0.000000 
0.291144 -0.240589 0.000000 
0.381043 -0.241630 0.000000 
0.351167 -0.241399 0.000000 
0.350721 -0.273464 0.000000 
0.352529 -0.175105 0.000000 
0.351785 -0.208603 0.000000 
0.382090 -0.175284 0.000000 
0.441084 -0.175443 0.000000 
0.411605 -0.175391 0.000000 
[...]
POINT_DATA 1089

SCALARS u_h float 2
LOOKUP_TABLE default
0.013585 -0.257033 
-0.013585 -0.257033 
0.000000 0.000000 
0.000000 0.000000 
0.000000 -0.273851 
-0.060652 -0.183939 
0.000000 0.000000 
0.060652 -0.183939 
0.000000 -0.186440 
0.010034 -0.271885 
0.000000 -0.248081 
0.020973 -0.247387 
-0.010034 -0.271885 
-0.020973 -0.247387 
-0.039875 -0.235607 
-0.029271 -0.187118 
-0.061555 -0.109393 
-0.022821 -0.100536 
0.000000 0.000000 
-0.000000 -0.100136 
0.000000 0.000000 
0.022821 -0.100536 
0.061555 -0.109393 
0.029271 -0.187118 
0.039875 -0.235607 
0.012332 -0.266793 
0.014899 -0.264825 
0.021038 -0.260605 
0.000000 -0.266229 
0.007740 -0.266088 
0.005720 -0.273729 
0.013018 -0.221086 
0.010587 -0.248052 
0.000000 -0.220987 
-0.005720 -0.273729 
-0.007740 -0.266088 
-0.021038 -0.260605 
-0.014899 -0.264825 
-0.012332 -0.266793 
-0.010587 -0.248052 
-0.013018 -0.221086 
-0.026408 -0.250884 
-0.030771 -0.244289 
-0.045301 -0.187295 
-0.039444 -0.219515 
-0.051861 -0.213002 
-0.026269 -0.221100 
-0.014194 -0.186538 
-0.064918 -0.149548 
-0.046229 -0.148173 
-0.023141 -0.051832 
-0.039703 -0.102602 
-0.045998 -0.062679 
-0.028461 -0.146486 
-0.013432 -0.145758 
0.000000 0.000000 
-0.012538 -0.051104 
-0.000000 -0.051318 
-0.005690 -0.051252 
0.000000 0.000000 
-0.010479 -0.100189 
0.000000 -0.145568 
0.000000 0.000000 
0.005690 -0.051252 
0.023141 -0.051832 
0.012538 -0.051104 
0.000000 0.000000 
0.010479 -0.100189 
0.013432 -0.145758 
0.045998 -0.062679 
0.039703 -0.102602 
0.045301 -0.187295 
0.046229 -0.148173 
0.064918 -0.149548 
0.028461 -0.146486 
0.014194 -0.186538 
0.051861 -0.213002 
0.039444 -0.219515 
0.030771 -0.244289 
0.026408 -0.250884 
0.026269 -0.221100 
0.012963 -0.262422 
0.016411 -0.265109 
0.018095 -0.260916 
0.012145 -0.269775 
0.014449 -0.267978 
0.011422 -0.269880 
0.022038 -0.255941 
0.018107 -0.263235 
0.017929 -0.257295 
0.000000 -0.271465 
0.003308 -0.271490 
0.002966 -0.273986 
0.004595 -0.258360 
0.003901 -0.266224 
0.000000 -0.258367 
0.008115 -0.273086 
0.006514 -0.271307 
0.009487 -0.270798 
0.006855 -0.204552 
0.006482 -0.221004 
0.000000 -0.204547 
0.015828 -0.247881 
0.011912 -0.235599 
0.017880 -0.235555 
0.000000 -0.235560 
0.005948 -0.235571 
0.005300 -0.248082 
0.011429 -0.265688 
0.009154 -0.258274 
0.013618 -0.257984 
-0.002966 -0.273986 
-0.003308 -0.271490 
-0.009487 -0.270798 
-0.006514 -0.271307 
-0.008115 -0.273086 
-0.003901 -0.266224 
-0.004595 -0.258360 
-0.018095 -0.260916 
-0.016411 -0.265109 
-0.012963 -0.262422 
-0.017929 -0.257295 
-0.018107 -0.263235 
-0.022038 -0.255941 
-0.011422 -0.269880 
-0.014449 -0.267978 
-0.012145 -0.269775 
-0.006482 -0.221004 
-0.006855 -0.204552 
-0.005300 -0.248082 
-0.005948 -0.235571 
-0.017880 -0.235555 
-0.011912 -0.235599 
-0.015828 -0.247881 
-0.011429 -0.265688 
-0.013618 -0.257984 
-0.009154 -0.258274 
-0.019696 -0.255279 
-0.023743 -0.256609 
-0.035381 -0.240901 
-0.029601 -0.249847 
-0.033221 -0.244244 
-0.025918 -0.253589 
-0.025968 -0.246306 
-0.053225 -0.186438 
-0.049963 -0.202628 
-0.056786 -0.199251 
-0.035500 -0.204918 
-0.042830 -0.204290 
-0.037225 -0.187365 
-0.046156 -0.225150 
-0.045774 -0.217166 
-0.040845 -0.229960 
-0.013809 -0.204677 
-0.007037 -0.186386 
-0.023817 -0.235272 
-0.019619 -0.221165 
-0.021586 -0.186802 
-0.020901 -0.204863 
-0.028148 -0.205005 
-0.035354 -0.232884 
-0.032910 -0.220664 
-0.029664 -0.234499 
-0.063601 -0.167481 
-0.055282 -0.168625 
-0.054321 -0.128103 
-0.055770 -0.149185 
-0.064382 -0.130194 
-0.046522 -0.168571 
-0.037791 -0.168087 
-0.016777 -0.026844 
-0.032454 -0.054456 
-0.030071 -0.035153 
-0.030499 -0.101176 
-0.032753 -0.077693 
-0.024558 -0.076502 
-0.055784 -0.087016 
-0.043461 -0.080778 
-0.050447 -0.105325 
-0.014084 -0.166838 
-0.006970 -0.166681 
-0.029417 -0.167558 
-0.021526 -0.167131 
-0.018894 -0.123676 
-0.020647 -0.146027 
-0.026279 -0.124074 
-0.044079 -0.126155 
-0.034633 -0.124833 
-0.037004 -0.147199 
0.000000 0.000000 
-0.011621 -0.025747 
-0.006333 -0.025696 
-0.008578 -0.025626 
0.000000 0.000000 
-0.017048 -0.051189 
-0.018163 -0.076123 
-0.000000 -0.025936 
-0.001412 -0.025924 
0.000000 0.000000 
-0.004043 -0.076087 
-0.002782 -0.051308 
-0.000000 -0.076084 
0.000000 0.000000 
-0.002887 -0.025875 
-0.004494 -0.025794 
-0.006622 -0.145621 
0.000000 -0.166645 
-0.016275 -0.100280 
-0.012223 -0.123480 
-0.000000 -0.123346 
-0.006004 -0.123389 
-0.005134 -0.100159 
-0.008872 -0.051168 
-0.008266 -0.076062 
-0.012878 -0.076046 
0.000000 0.000000 
0.001412 -0.025924 
0.004494 -0.025794 
0.002887 -0.025875 
0.000000 0.000000 
0.002782 -0.051308 
0.004043 -0.076087 
0.016777 -0.026844 
0.011621 -0.025747 
0.000000 0.000000 
0.018163 -0.076123 
0.017048 -0.051189 
0.024558 -0.076502 
0.000000 0.000000 
0.008578 -0.025626 
0.006333 -0.025696 
0.006622 -0.145621 
0.006970 -0.166681 
0.005134 -0.100159 
0.006004 -0.123389 
0.018894 -0.123676 
0.012223 -0.123480 
0.016275 -0.100280 
0.008872 -0.051168 
0.012878 -0.076046 
0.008266 -0.076062 
0.030071 -0.035153 
0.032454 -0.054456 
0.050447 -0.105325 
0.043461 -0.080778 
0.055784 -0.087016 
0.032753 -0.077693 
0.030499 -0.101176 
0.053225 -0.186438 
0.055282 -0.168625 
0.063601 -0.167481 
0.037791 -0.168087 
0.046522 -0.168571 
0.037225 -0.187365 
0.064382 -0.130194 
0.055770 -0.149185 
0.054321 -0.128103 
0.014084 -0.166838 
0.007037 -0.186386 
0.026279 -0.124074 
0.020647 -0.146027 
0.021586 -0.186802 
0.021526 -0.167131 
0.029417 -0.167558 
0.044079 -0.126155 
0.037004 -0.147199 
0.034633 -0.124833 
0.056786 -0.199251 
0.049963 -0.202628 
0.040845 -0.229960 
0.045774 -0.217166 
0.046156 -0.225150 
0.042830 -0.204290 
0.035500 -0.204918 
0.023743 -0.256609 
0.019696 -0.255279 
0.025968 -0.246306 
0.025918 -0.253589 
0.033221 -0.244244 
0.029601 -0.249847 
0.035381 -0.240901 
0.013809 -0.204677 
0.028148 -0.205005 
0.020901 -0.204863 
0.019619 -0.221165 
0.023817 -0.235272 
0.035354 -0.232884 
0.029664 -0.234499 
0.032910 -0.220664 
0.013270 -0.259783 
0.015454 -0.262039 
0.015971 -0.259410 
0.014285 -0.266329 
0.014897 -0.264354 
0.012664 -0.264772 
0.019798 -0.261323 
0.017282 -0.263188 
0.018674 -0.263188 
0.010979 -0.271205 
0.011957 -0.270373 
0.010794 -0.271001 
0.014885 -0.266902 
0.013342 -0.268992 
0.013468 -0.267637 
0.011928 -0.268488 
0.012829 -0.269308 
0.013601 -0.267971 
0.021766 -0.252114 
0.020011 -0.256720 
0.019463 -0.252627 
0.019606 -0.262070 
0.020056 -0.259892 
0.021791 -0.258793 
0.016398 -0.261369 
0.018258 -0.260737 
0.016538 -0.264140 
0.015470 -0.266696 
0.016224 -0.265941 
0.017486 -0.264715 
0.000000 -0.273029 
0.001549 -0.273096 
0.001497 -0.273988 
0.001794 -0.269203 
0.001656 -0.271496 
0.000000 -0.269188 
0.004379 -0.273899 
0.003092 -0.273094 
0.004596 -0.273024 
0.002476 -0.253515 
0.002299 -0.258368 
0.000000 -0.253515 
0.005834 -0.266180 
0.004242 -0.262605 
0.006349 -0.262569 
0.000000 -0.262613 
0.002122 -0.262616 
0.001952 -0.266236 
0.009139 -0.272569 
0.008704 -0.272310 
0.009894 -0.271839 
0.006043 -0.272880 
0.007417 -0.272649 
0.006971 -0.273464 
0.008779 -0.268855 
0.008035 -0.271103 
0.007090 -0.269034 
0.003584 -0.269193 
0.005355 -0.269141 
0.004933 -0.271430 
0.003471 -0.195658 
0.003416 -0.204534 
0.000000 -0.195688 
0.009742 -0.221039 
0.006691 -0.213003 
0.010064 -0.213046 
0.000000 -0.212989 
0.003338 -0.212983 
0.003236 -0.220985 
0.018416 -0.247689 
0.016884 -0.241986 
0.019669 -0.241840 
0.011270 -0.242094 
0.014082 -0.242062 
0.013216 -0.247994 
0.015645 -0.228612 
0.014897 -0.235595 
0.012499 -0.228590 
0.000000 -0.242089 
0.002816 -0.242088 
0.002650 -0.248081 
0.003113 -0.228518 
0.002972 -0.235560 
0.000000 -0.228519 
0.007947 -0.248076 
0.005634 -0.242094 
0.008453 -0.242099 
0.009361 -0.228560 
0.008928 -0.235587 
0.006232 -0.228533 
0.010859 -0.270366 
0.009608 -0.265932 
0.010410 -0.268580 
0.011975 -0.268185 
0.013195 -0.265329 
0.004950 -0.253511 
0.009877 -0.253452 
0.007419 -0.253494 
0.006882 -0.258333 
0.008435 -0.262494 
0.017117 -0.252984 
0.014479 -0.261827 
0.015796 -0.257704 
0.014732 -0.253221 
0.012316 -0.253368 
0.010491 -0.262360 
0.011401 -0.258165 
0.012508 -0.262147 
-0.001497 -0.273988 
-0.001549 -0.273096 
-0.004596 -0.273024 
-0.003092 -0.273094 
-0.004379 -0.273899 
-0.001656 -0.271496 
-0.001794 -0.269203 
-0.009894 -0.271839 
-0.008704 -0.272310 
-0.009139 -0.272569 
-0.007090 -0.269034 
-0.008035 -0.271103 
-0.008779 -0.268855 
-0.006971 -0.273464 
-0.007417 -0.272649 
-0.006043 -0.272880 
-0.002299 -0.258368 
-0.002476 -0.253515 
-0.001952 -0.266236 
-0.002122 -0.262616 
-0.006349 -0.262569 
-0.004242 -0.262605 
-0.005834 -0.266180 
-0.004933 -0.271430 
-0.005355 -0.269141 
-0.003584 -0.269193 
-0.015971 -0.259410 
-0.015454 -0.262039 
-0.013270 -0.259783 
-0.018674 -0.263188 
-0.017282 -0.263188 
-0.019798 -0.261323 
-0.012664 -0.264772 
-0.014897 -0.264354 
-0.014285 -0.266329 
-0.019463 -0.252627 
-0.020011 -0.256720 
-0.021766 -0.252114 
-0.016538 -0.264140 
-0.018258 -0.260737 
-0.016398 -0.261369 
-0.021791 -0.258793 
-0.020056 -0.259892 
-0.019606 -0.262070 
-0.010794 -0.271001 
-0.011957 -0.270373 
-0.010979 -0.271205 
-0.013601 -0.267971 
-0.012829 -0.269308 
-0.011928 -0.268488 
-0.013468 -0.267637 
-0.013342 -0.268992 
-0.014885 -0.266902 
-0.017486 -0.264715 
-0.016224 -0.265941 
-0.015470 -0.266696 
-0.003416 -0.204534 
-0.003471 -0.195658 
-0.003236 -0.220985 
-0.003338 -0.212983 
-0.010064 -0.213046 
-0.006691 -0.213003 
-0.009742 -0.221039 
-0.002650 -0.248081 
-0.002816 -0.242088 
-0.008453 -0.242099 
-0.005634 -0.242094 
-0.007947 -0.248076 
-0.002972 -0.235560 
-0.003113 -0.228518 
-0.019669 -0.241840 
-0.016884 -0.241986 
-0.018416 -0.247689 
-0.012499 -0.228590 
-0.014897 -0.235595 
-0.015645 -0.228612 
-0.013216 -0.247994 
-0.014082 -0.242062 
-0.011270 -0.242094 
-0.006232 -0.228533 
-0.008928 -0.235587 
-0.009361 -0.228560 
-0.010859 -0.270366 
-0.013195 -0.265329 
-0.011975 -0.268185 
-0.010410 -0.268580 
-0.009608 -0.265932 
-0.017117 -0.252984 
-0.012316 -0.253368 
-0.014732 -0.253221 
-0.015796 -0.257704 
-0.014479 -0.261827 
-0.004950 -0.253511 
-0.008435 -0.262494 
-0.006882 -0.258333 
-0.007419 -0.253494 
-0.009877 -0.253452 
-0.012508 -0.262147 
-0.011401 -0.258165 
-0.010491 -0.262360 
-0.016498 -0.256526 
-0.018877 -0.258285 
-0.025061 -0.253990 
-0.021928 -0.256458 
-0.023020 -0.253381 
-0.020872 -0.259090 
-0.022411 -0.258799 
-0.037634 -0.238529 
-0.034550 -0.243170 
-0.036582 -0.240163 
-0.030460 -0.247626 
-0.032517 -0.245634 
-0.033098 -0.242798 
-0.029820 -0.247827 
-0.031406 -0.247312 
-0.028233 -0.250929 
-0.024018 -0.251404 
-0.023493 -0.246939 
-0.023464 -0.257396 
-0.024006 -0.254913 
-0.028395 -0.245440 
-0.026218 -0.250454 
-0.028364 -0.249213 
-0.026665 -0.253516 
-0.027778 -0.251919 
-0.025084 -0.255653 
-0.057022 -0.185476 
-0.055345 -0.193526 
-0.058881 -0.191788 
-0.047994 -0.195528 
-0.051718 -0.194735 
-0.049303 -0.187006 
-0.054435 -0.206323 
-0.053413 -0.201200 
-0.051238 -0.208480 
-0.032634 -0.196353 
-0.036484 -0.196362 
-0.033221 -0.187262 
-0.041238 -0.212128 
-0.039178 -0.204698 
-0.037786 -0.212682 
-0.041263 -0.187393 
-0.040347 -0.196266 
-0.044193 -0.196010 
-0.043075 -0.230597 
-0.043518 -0.227831 
-0.040632 -0.233410 
-0.048847 -0.215353 
-0.046265 -0.221807 
-0.049093 -0.219281 
-0.040460 -0.225305 
-0.043389 -0.223788 
-0.042640 -0.218526 
-0.046432 -0.203628 
-0.044639 -0.211297 
-0.047974 -0.210109 
-0.006972 -0.195672 
-0.003512 -0.186371 
-0.013459 -0.213108 
-0.010318 -0.204602 
-0.010592 -0.186445 
-0.010497 -0.195727 
-0.014058 -0.195813 
-0.022432 -0.241596 
-0.020856 -0.235457 
-0.022941 -0.221162 
-0.021953 -0.228558 
-0.025103 -0.228434 
-0.018798 -0.228608 
-0.016311 -0.221133 
-0.025391 -0.186959 
-0.025044 -0.196167 
-0.028815 -0.196278 
-0.017665 -0.195921 
-0.021326 -0.196043 
-0.017856 -0.186659 
-0.027292 -0.213285 
-0.024506 -0.204949 
-0.023799 -0.213287 
-0.016879 -0.213178 
-0.020326 -0.213244 
-0.017335 -0.204768 
-0.038166 -0.235670 
-0.037474 -0.226438 
-0.038125 -0.231620 
-0.035662 -0.237456 
-0.033111 -0.238841 
-0.031817 -0.205006 
-0.029596 -0.220946 
-0.030796 -0.213209 
-0.034300 -0.213023 
-0.036197 -0.220205 
-0.025164 -0.241217 
-0.030510 -0.239890 
-0.027859 -0.240664 
-0.026756 -0.234966 
-0.028241 -0.228204 
-0.034437 -0.227257 
-0.031356 -0.227827 
-0.032532 -0.233824 
-0.062335 -0.175904 
-0.058459 -0.177065 
-0.060200 -0.159083 
-0.059526 -0.168267 
-0.064470 -0.158693 
-0.054429 -0.177736 
-0.050287 -0.178058 
-0.058111 -0.118429 
-0.059458 -0.129197 
-0.063289 -0.119979 
-0.050998 -0.148703 
-0.055315 -0.138852 
-0.050338 -0.138089 
-0.064905 -0.140048 
-0.060215 -0.139554 
-0.060444 -0.149514 
-0.037662 -0.177934 
-0.033526 -0.177742 
-0.046080 -0.178146 
-0.041858 -0.178083 
-0.042035 -0.158206 
-0.042127 -0.168351 
-0.046586 -0.158578 
-0.055743 -0.159108 
-0.051179 -0.158904 
-0.050927 -0.168690 
-0.010448 -0.014122 
-0.021891 -0.029157 
-0.018109 -0.019089 
-0.027251 -0.052726 
-0.025169 -0.040731 
-0.020758 -0.039364 
-0.039022 -0.049464 
-0.031319 -0.043691 
-0.038873 -0.057565 
-0.026492 -0.100787 
-0.027748 -0.088944 
-0.024013 -0.088617 
-0.036566 -0.090299 
-0.031909 -0.089474 
-0.034892 -0.101758 
-0.024326 -0.064226 
-0.028377 -0.076943 
-0.028261 -0.064843 
-0.059091 -0.098416 
-0.053303 -0.095589 
-0.056091 -0.107235 
-0.044881 -0.070803 
-0.049620 -0.083460 
-0.051487 -0.075136 
-0.044918 -0.103776 
-0.047395 -0.093277 
-0.041747 -0.091532 
-0.032952 -0.065950 
-0.037778 -0.078910 
-0.038523 -0.067830 
-0.007039 -0.176714 
-0.003522 -0.176693 
-0.014204 -0.176871 
-0.010594 -0.176775 
-0.010294 -0.156369 
-0.010496 -0.166743 
-0.013827 -0.156459 
-0.029472 -0.177537 
-0.025514 -0.177338 
-0.025066 -0.156951 
-0.025411 -0.167328 
-0.029086 -0.157201 
-0.021653 -0.177156 
-0.017886 -0.176999 
-0.021086 -0.112230 
-0.022480 -0.123842 
-0.024708 -0.112431 
-0.016976 -0.145873 
-0.019881 -0.134996 
-0.016320 -0.134857 
-0.027529 -0.135435 
-0.023608 -0.135184 
-0.024469 -0.146229 
-0.017755 -0.166967 
-0.021193 -0.156747 
-0.017453 -0.156584 
-0.052725 -0.116931 
-0.042193 -0.114562 
-0.047361 -0.115623 
-0.049146 -0.127062 
-0.045409 -0.137362 
-0.028598 -0.112726 
-0.031665 -0.135766 
-0.030321 -0.124396 
-0.032793 -0.113151 
-0.037324 -0.113749 
-0.033547 -0.167815 
-0.041545 -0.147659 
-0.037581 -0.157837 
-0.033259 -0.157498 
-0.032639 -0.146807 
-0.039224 -0.125413 
-0.036029 -0.136191 
-0.040620 -0.136723 
0.000000 0.000000 
-0.008061 -0.013224 
-0.005694 -0.012830 
-0.006681 -0.012929 
0.000000 0.000000 
-0.013755 -0.026050 
-0.017524 -0.038766 
-0.003156 -0.012883 
-0.003673 -0.012850 
0.000000 0.000000 
-0.011076 -0.038410 
-0.007389 -0.025652 
-0.009480 -0.038439 
0.000000 0.000000 
-0.004250 -0.012822 
-0.004911 -0.012809 
-0.021185 -0.076253 
-0.020631 -0.088422 
-0.019823 -0.051392 
-0.020970 -0.063899 
-0.015450 -0.063674 
-0.018047 -0.063739 
-0.014654 -0.051113 
-0.009957 -0.025642 
-0.012882 -0.038420 
-0.014983 -0.038511 
-0.000000 -0.013035 
-0.000352 -0.013034 
0.000000 0.000000 
-0.001047 -0.038699 
-0.000702 -0.025935 
-0.000000 -0.038700 
0.000000 0.000000 
-0.000707 -0.013027 
-0.001071 -0.013015 
-0.002294 -0.088216 
-0.002010 -0.076090 
-0.000000 -0.088207 
-0.004212 -0.051285 
-0.003430 -0.063779 
-0.005193 -0.063760 
-0.000000 -0.063784 
-0.001705 -0.063787 
-0.001383 -0.051320 
0.000000 0.000000 
-0.002246 -0.012948 
-0.002684 -0.012917 
-0.001445 -0.012998 
-0.001835 -0.012975 
0.000000 0.000000 
-0.005477 -0.038586 
-0.003669 -0.025838 
-0.004308 -0.038629 
-0.002106 -0.038687 
-0.003189 -0.038663 
-0.002138 -0.025904 
-0.003482 -0.166651 
0.000000 -0.176709 
-0.009990 -0.145676 
-0.006830 -0.156309 
0.000000 -0.156259 
-0.003408 -0.156274 
-0.003300 -0.145586 
-0.019433 -0.100377 
-0.017689 -0.112096 
-0.011415 -0.111950 
-0.014478 -0.112008 
-0.013304 -0.100222 
-0.015486 -0.123561 
-0.012897 -0.134758 
-0.000000 -0.111855 
-0.002786 -0.111870 
-0.002554 -0.100148 
-0.003161 -0.134609 
-0.002989 -0.123364 
0.000000 -0.134590 
-0.007766 -0.100171 
-0.005599 -0.111888 
-0.008465 -0.111913 
-0.009582 -0.134688 
-0.009072 -0.123426 
-0.006346 -0.134640 
-0.005376 -0.025746 
-0.007236 -0.051212 
-0.006714 -0.038537 
-0.008039 -0.038486 
-0.010627 -0.051129 
-0.004613 -0.088219 
-0.009426 -0.088220 
-0.006981 -0.088219 
-0.006120 -0.076076 
-0.007016 -0.063734 
-0.017534 -0.088312 
-0.013099 -0.063662 
-0.015413 -0.076064 
-0.014665 -0.088255 
-0.011975 -0.088229 
-0.008921 -0.063704 
-0.010508 -0.076049 
-0.010937 -0.063677 
0.000000 0.000000 
0.000352 -0.013034 
0.001071 -0.013015 
0.000707 -0.013027 
0.000000 0.000000 
0.000702 -0.025935 
0.001047 -0.038699 
0.002684 -0.012917 
0.002246 -0.012948 
0.000000 0.000000 
0.004308 -0.038629 
0.003669 -0.025838 
0.005477 -0.038586 
0.000000 0.000000 
0.001835 -0.012975 
0.001445 -0.012998 
0.002010 -0.076090 
0.002294 -0.088216 
0.001383 -0.051320 
0.001705 -0.063787 
0.005193 -0.063760 
0.003430 -0.063779 
0.004212 -0.051285 
0.002138 -0.025904 
0.003189 -0.038663 
0.002106 -0.038687 
0.010448 -0.014122 
0.008061 -0.013224 
0.000000 0.000000 
0.017524 -0.038766 
0.013755 -0.026050 
0.020758 -0.039364 
0.000000 0.000000 
0.006681 -0.012929 
0.005694 -0.012830 
0.020631 -0.088422 
0.021185 -0.076253 
0.024013 -0.088617 
0.014654 -0.051113 
0.018047 -0.063739 
0.015450 -0.063674 
0.024326 -0.064226 
0.020970 -0.063899 
0.019823 -0.051392 
0.000000 0.000000 
0.003673 -0.012850 
0.003156 -0.012883 
0.004911 -0.012809 
0.004250 -0.012822 
0.000000 0.000000 
0.009480 -0.038439 
0.007389 -0.025652 
0.011076 -0.038410 
0.014983 -0.038511 
0.012882 -0.038420 
0.009957 -0.025642 
0.003482 -0.166651 
0.003522 -0.176693 
0.003300 -0.145586 
0.003408 -0.156274 
0.010294 -0.156369 
0.006830 -0.156309 
0.009990 -0.145676 
0.002554 -0.100148 
0.002786 -0.111870 
0.008465 -0.111913 
0.005599 -0.111888 
0.007766 -0.100171 
0.002989 -0.123364 
0.003161 -0.134609 
0.021086 -0.112230 
0.017689 -0.112096 
0.019433 -0.100377 
0.012897 -0.134758 
0.015486 -0.123561 
0.016320 -0.134857 
0.013304 -0.100222 
0.014478 -0.112008 
0.011415 -0.111950 
0.006346 -0.134640 
0.009072 -0.123426 
0.009582 -0.134688 
0.005376 -0.025746 
0.010627 -0.051129 
0.008039 -0.038486 
0.006714 -0.038537 
0.007236 -0.051212 
0.017534 -0.088312 
0.011975 -0.088229 
0.014665 -0.088255 
0.015413 -0.076064 
0.013099 -0.063662 
0.004613 -0.088219 
0.007016 -0.063734 
0.006120 -0.076076 
0.006981 -0.088219 
0.009426 -0.088220 
0.010937 -0.063677 
0.010508 -0.076049 
0.008921 -0.063704 
0.018109 -0.019089 
0.021891 -0.029157 
0.038873 -0.057565 
0.031319 -0.043691 
0.039022 -0.049464 
0.025169 -0.040731 
0.027251 -0.052726 
0.056091 -0.107235 
0.053303 -0.095589 
0.059091 -0.098416 
0.041747 -0.091532 
0.047395 -0.093277 
0.044918 -0.103776 
0.051487 -0.075136 
0.049620 -0.083460 
0.044881 -0.070803 
0.027748 -0.088944 
0.026492 -0.100787 
0.028261 -0.064843 
0.028377 -0.076943 
0.034892 -0.101758 
0.031909 -0.089474 
0.036566 -0.090299 
0.038523 -0.067830 
0.037778 -0.078910 
0.032952 -0.065950 
0.057022 -0.185476 
0.058459 -0.177065 
0.062335 -0.175904 
0.050287 -0.178058 
0.054429 -0.177736 
0.049303 -0.187006 
0.064470 -0.158693 
0.059526 -0.168267 
0.060200 -0.159083 
0.033526 -0.177742 
0.037662 -0.177934 
0.033221 -0.187262 
0.046586 -0.158578 
0.042127 -0.168351 
0.042035 -0.158206 
0.041263 -0.187393 
0.041858 -0.178083 
0.046080 -0.178146 
0.063289 -0.119979 
0.059458 -0.129197 
0.058111 -0.118429 
0.060444 -0.149514 
0.060215 -0.139554 
0.064905 -0.140048 
0.050338 -0.138089 
0.055315 -0.138852 
0.050998 -0.148703 
0.050927 -0.168690 
0.051179 -0.158904 
0.055743 -0.159108 
0.007039 -0.176714 
0.003512 -0.186371 
0.013827 -0.156459 
0.010496 -0.166743 
0.010592 -0.186445 
0.010594 -0.176775 
0.014204 -0.176871 
0.024708 -0.112431 
0.022480 -0.123842 
0.024469 -0.146229 
0.023608 -0.135184 
0.027529 -0.135435 
0.019881 -0.134996 
0.016976 -0.145873 
0.025391 -0.186959 
0.025514 -0.177338 
0.029472 -0.177537 
0.017886 -0.176999 
0.021653 -0.177156 