# vtk DataFile Version 2.0
Unstructured Grid Example
ASCII
DATASET UNSTRUCTURED_GRID

POINTS 4225 float
0.012811 -0.256194 0.000000 
0.987189 -0.256194 0.000000 
1.000000 1.000000 0.000000 
0.000000 1.000000 0.000000 
0.500000 -0.274220 0.000000 
0.939074 0.315941 0.000000 
0.500000 1.000000 0.000000 
0.060926 0.315941 0.000000 
0.500000 0.313577 0.000000 
0.259869 -0.271968 0.000000 
0.500000 0.001763 0.000000 
0.271028 0.002509 0.000000 
0.740131 -0.271968 0.000000 
0.728972 0.002509 0.000000 
0.960085 0.014571 0.000000 
0.720632 0.312814 0.000000 
0.938123 0.640656 0.000000 
0.727031 0.649414 0.000000 
0.750000 1.000000 0.000000 
0.500000 0.649816 0.000000 
0.250000 1.000000 0.000000 
0.272969 0.649414 0.000000 
0.061877 0.640656 0.000000 
0.279368 0.312814 0.000000 
0.039915 0.014571 0.000000 
0.136933 -0.266701 0.000000 
0.264843 -0.139935 0.000000 
0.145958 -0.135569 0.000000 
0.500000 -0.141460 0.000000 
0.382725 -0.141258 0.000000 
0.380654 -0.273886 0.000000 
0.388077 0.153808 0.000000 
0.385623 0.001803 0.000000 
0.500000 0.153931 0.000000 
0.619346 -0.273886 0.000000 
0.617275 -0.141258 0.000000 
0.854042 -0.135569 0.000000 
0.735157 -0.139935 0.000000 
0.863067 -0.266701 0.000000 
0.614377 0.001803 0.000000 
0.611923 0.153808 0.000000 
0.973696 -0.125513 0.000000 
0.844157 0.005712 0.000000 
0.829559 0.312655 0.000000 
0.835412 0.155447 0.000000 
0.948012 0.162052 0.000000 
0.723626 0.153812 0.000000 
0.610755 0.313388 0.000000 
0.934886 0.475462 0.000000 
0.828601 0.476764 0.000000 
0.851543 0.823122 0.000000 
0.835043 0.647328 0.000000 
0.953328 0.812182 0.000000 
0.721413 0.478451 0.000000 
0.611512 0.479187 0.000000 
0.875000 1.000000 0.000000 
0.737351 0.823878 0.000000 
0.500000 0.823659 0.000000 
0.619270 0.823736 0.000000 
0.625000 1.000000 0.000000 
0.614460 0.649776 0.000000 
0.500000 0.479377 0.000000 
0.375000 1.000000 0.000000 
0.380730 0.823736 0.000000 
0.148457 0.823122 0.000000 
0.262649 0.823878 0.000000 
0.125000 1.000000 0.000000 
0.385540 0.649776 0.000000 
0.388488 0.479187 0.000000 
0.046672 0.812182 0.000000 
0.164957 0.647328 0.000000 
0.170441 0.312655 0.000000 
0.171399 0.476764 0.000000 
0.065114 0.475462 0.000000 
0.278587 0.478451 0.000000 
0.389245 0.313388 0.000000 
0.051988 0.162052 0.000000 
0.164588 0.155447 0.000000 
0.155843 0.005712 0.000000 
0.026304 -0.125513 0.000000 
0.276374 0.153812 0.000000 
0.074868 -0.262104 0.000000 
0.141191 -0.202561 0.000000 
0.080346 -0.198181 0.000000 
0.262020 -0.207377 0.000000 
0.201776 -0.205527 0.000000 
0.198663 -0.269901 0.000000 
0.209545 -0.068500 0.000000 
0.205533 -0.138291 0.000000 
0.267936 -0.069904 0.000000 
0.500000 -0.209248 0.000000 
0.440795 -0.209204 0.000000 
0.440429 -0.274200 0.000000 
0.442106 -0.071040 0.000000 
0.441400 -0.141425 0.000000 
0.500000 -0.071059 0.000000 
0.320511 -0.273207 0.000000 
0.381470 -0.208975 0.000000 
0.321906 -0.208434 0.000000 
0.444390 0.232873 0.000000 
0.444016 0.153898 0.000000 
0.500000 0.232914 0.000000 
0.328373 0.001989 0.000000 
0.386963 0.076775 0.000000 
0.330450 0.076828 0.000000 
0.500000 0.076821 0.000000 
0.443477 0.076804 0.000000 
0.442821 0.001765 0.000000 
0.323893 -0.140830 0.000000 
0.384166 -0.070935 0.000000 
0.326127 -0.070623 0.000000 
0.559571 -0.274200 0.000000 
0.559205 -0.209204 0.000000 
0.678094 -0.208434 0.000000 
0.618530 -0.208975 0.000000 
0.679489 -0.273207 0.000000 
0.558600 -0.141425 0.000000 
0.557894 -0.071040 0.000000 
0.919654 -0.198181 0.000000 
0.858809 -0.202561 0.000000 
0.925132 -0.262104 0.000000 
0.732064 -0.069904 0.000000 
0.794467 -0.138291 0.000000 
0.790455 -0.068500 0.000000 
0.801337 -0.269901 0.000000 
0.798224 -0.205527 0.000000 
0.737980 -0.207377 0.000000 
0.555984 0.153898 0.000000 
0.555610 0.232873 0.000000 
0.557179 0.001765 0.000000 
0.556523 0.076804 0.000000 
0.669550 0.076828 0.000000 
0.613037 0.076775 0.000000 
0.671627 0.001989 0.000000 
0.676107 -0.140830 0.000000 
0.673873 -0.070623 0.000000 
0.615834 -0.070935 0.000000 
0.980583 -0.192220 0.000000 
0.913837 -0.131423 0.000000 
0.902055 0.009185 0.000000 
0.907891 -0.062213 0.000000 
0.966796 -0.056487 0.000000 
0.849071 -0.066068 0.000000 
0.786466 0.003632 0.000000 
0.884097 0.313514 0.000000 
0.887359 0.234837 0.000000 
0.943040 0.238228 0.000000 
0.776867 0.232517 0.000000 
0.832013 0.233161 0.000000 
0.775157 0.312576 0.000000 
0.953760 0.087465 0.000000 
0.891579 0.157832 0.000000 
0.896547 0.082579 0.000000 
0.611134 0.232735 0.000000 
0.555440 0.313555 0.000000 
0.726095 0.077131 0.000000 
0.667799 0.153733 0.000000 
0.665839 0.313124 0.000000 
0.666517 0.232549 0.000000 
0.721745 0.232416 0.000000 
0.839532 0.079596 0.000000 
0.779463 0.154269 0.000000 
0.782732 0.077935 0.000000 
0.936213 0.394984 0.000000 
0.882057 0.393828 0.000000 
0.882957 0.559337 0.000000 
0.881553 0.475763 0.000000 
0.935377 0.557343 0.000000 
0.828328 0.393873 0.000000 
0.774575 0.394352 0.000000 
0.920224 0.910596 0.000000 
0.904543 0.820479 0.000000 
0.969087 0.901585 0.000000 
0.781800 0.648763 0.000000 
0.841944 0.734742 0.000000 
0.787729 0.735948 0.000000 
0.943757 0.725510 0.000000 
0.893638 0.731641 0.000000 
0.886758 0.644602 0.000000 
0.610865 0.395598 0.000000 
0.555514 0.395766 0.000000 
0.720471 0.394876 0.000000 
0.665890 0.395302 0.000000 
0.668507 0.563772 0.000000 
0.666761 0.478913 0.000000 
0.723582 0.563368 0.000000 
0.830715 0.561276 0.000000 
0.777690 0.562602 0.000000 
0.775344 0.477737 0.000000 
0.937500 1.000000 0.000000 
0.863175 0.911746 0.000000 
0.743606 0.911801 0.000000 
0.803816 0.911870 0.000000 
0.812500 1.000000 0.000000 
0.795267 0.823783 0.000000 
0.731696 0.736340 0.000000 
0.500000 0.911554 0.000000 
0.561078 0.911570 0.000000 
0.562500 1.000000 0.000000 
0.558432 0.736388 0.000000 
0.559699 0.823677 0.000000 
0.500000 0.736379 0.000000 
0.687500 1.000000 0.000000 
0.622092 0.911621 0.000000 
0.682970 0.911703 0.000000 
0.555856 0.479330 0.000000 
0.500000 0.395819 0.000000 
0.671125 0.649680 0.000000 
0.612717 0.563974 0.000000 
0.500000 0.564098 0.000000 
0.556469 0.564067 0.000000 
0.557338 0.649806 0.000000 
0.678560 0.823818 0.000000 
0.616680 0.736415 0.000000 
0.674532 0.736427 0.000000 
0.437500 1.000000 0.000000 
0.438922 0.911570 0.000000 
0.317030 0.911703 0.000000 
0.377908 0.911621 0.000000 
0.312500 1.000000 0.000000 
0.440301 0.823677 0.000000 
0.441568 0.736388 0.000000 
0.079776 0.910596 0.000000 
0.136825 0.911746 0.000000 
0.062500 1.000000 0.000000 
0.268304 0.736340 0.000000 
0.204733 0.823783 0.000000 
0.212271 0.735948 0.000000 
0.187500 1.000000 0.000000 
0.196184 0.911870 0.000000 
0.256394 0.911801 0.000000 
0.444144 0.479330 0.000000 
0.444486 0.395766 0.000000 
0.442662 0.649806 0.000000 
0.443531 0.564067 0.000000 
0.331493 0.563772 0.000000 
0.387283 0.563974 0.000000 
0.328875 0.649680 0.000000 
0.321440 0.823818 0.000000 
0.325468 0.736427 0.000000 
0.383320 0.736415 0.000000 
0.030913 0.901585 0.000000 
0.095457 0.820479 0.000000 
0.113242 0.644602 0.000000 
0.106362 0.731641 0.000000 
0.056243 0.725510 0.000000 
0.158056 0.734742 0.000000 
0.218200 0.648763 0.000000 
0.115903 0.313514 0.000000 
0.117943 0.393828 0.000000 
0.063787 0.394984 0.000000 
0.225425 0.394352 0.000000 
0.171672 0.393873 0.000000 
0.224843 0.312576 0.000000 
0.064623 0.557343 0.000000 
0.118447 0.475763 0.000000 
0.117043 0.559337 0.000000 
0.389135 0.395598 0.000000 
0.444560 0.313555 0.000000 
0.276418 0.563368 0.000000 
0.333239 0.478913 0.000000 
0.334161 0.313124 0.000000 
0.334110 0.395302 0.000000 
0.279529 0.394876 0.000000 
0.169285 0.561276 0.000000 
0.224656 0.477737 0.000000 
0.222310 0.562602 0.000000 
0.056960 0.238228 0.000000 
0.112641 0.234837 0.000000 
0.103453 0.082579 0.000000 
0.108421 0.157832 0.000000 
0.046240 0.087465 0.000000 
0.167987 0.233161 0.000000 
0.223133 0.232517 0.000000 
0.086163 -0.131423 0.000000 
0.019417 -0.192220 0.000000 
0.213534 0.003632 0.000000 
0.150929 -0.066068 0.000000 
0.033204 -0.056487 0.000000 
0.092109 -0.062213 0.000000 
0.097945 0.009185 0.000000 
0.388866 0.232735 0.000000 
0.278255 0.232416 0.000000 
0.333483 0.232549 0.000000 
0.332201 0.153733 0.000000 
0.273905 0.077131 0.000000 
0.160468 0.079596 0.000000 
0.217268 0.077935 0.000000 
0.220537 0.154269 0.000000 
0.043817 -0.259265 0.000000 
0.077559 -0.230526 0.000000 
0.046797 -0.227719 0.000000 
0.138976 -0.235017 0.000000 
0.108293 -0.232960 0.000000 
0.105924 -0.264588 0.000000 
0.113400 -0.167458 0.000000 
0.110794 -0.200562 0.000000 
0.143531 -0.169396 0.000000 
0.260827 -0.240048 0.000000 
0.230522 -0.239193 0.000000 
0.229337 -0.271056 0.000000 
0.233528 -0.173236 0.000000 
0.231943 -0.206571 0.000000 
0.263377 -0.173994 0.000000 
0.167856 -0.268462 0.000000 
0.200106 -0.238096 0.000000 
0.169586 -0.236717 0.000000 
0.240552 -0.033450 0.000000 
0.238768 -0.069307 0.000000 
0.269496 -0.033984 0.000000 
0.175778 -0.137087 0.000000 
0.207527 -0.103700 0.000000 
0.178011 -0.102563 0.000000 
0.266374 -0.105229 0.000000 
0.236981 -0.104574 0.000000 
0.235222 -0.139226 0.000000 
0.171522 -0.204204 0.000000 
0.203602 -0.172245 0.000000 
0.173602 -0.170979 0.000000 
0.500000 -0.242101 0.000000 
0.470293 -0.242105 0.000000 
0.470230 -0.274253 0.000000 
0.470544 -0.175686 0.000000 
0.470403 -0.209243 0.000000 
0.500000 -0.175693 0.000000 
0.410578 -0.274080 0.000000 
0.440570 -0.242060 0.000000 
0.410808 -0.241960 0.000000 
0.471235 -0.034937 0.000000 
0.471056 -0.071055 0.000000 
0.500000 -0.034939 0.000000 
0.412077 -0.141364 0.000000 
0.441747 -0.106546 0.000000 
0.412602 -0.106498 0.000000 
0.500000 -0.106574 0.000000 
0.470877 -0.106569 0.000000 
0.470705 -0.141453 0.000000 
0.290259 -0.272673 0.000000 
0.321106 -0.241190 0.000000 
0.291021 -0.240702 0.000000 
0.380987 -0.241794 0.000000 
0.351091 -0.241545 0.000000 
0.350638 -0.273603 0.000000 
0.352485 -0.175260 0.000000 
0.351724 -0.208754 0.000000 
0.382060 -0.175455 0.000000 
0.441078 -0.175652 0.000000 
0.411588 -0.175579 0.000000 
[...]
POINT_DATA 4225

SCALARS u_h float 2
LOOKUP_TABLE default
0.012811 -0.256194 
-0.012811 -0.256194 
0.000000 0.000000 
0.000000 0.000000 
0.000000 -0.274220 
-0.060926 -0.184059 
0.000000 0.000000 
0.060926 -0.184059 
0.000000 -0.186423 
0.009869 -0.271968 
0.000000 -0.248237 
0.021028 -0.247491 
-0.009869 -0.271968 
-0.021028 -0.247491 
-0.039915 -0.235429 
-0.029368 -0.187186 
-0.061877 -0.109344 
-0.022969 -0.100586 
0.000000 0.000000 
-0.000000 -0.100184 
0.000000 0.000000 
0.022969 -0.100586 
0.061877 -0.109344 
0.029368 -0.187186 
0.039915 -0.235429 
0.011933 -0.266701 
0.014843 -0.264935 
0.020958 -0.260569 
0.000000 -0.266460 
0.007725 -0.266258 
0.005654 -0.273886 
0.013077 -0.221192 
0.010623 -0.248197 
0.000000 -0.221069 
-0.005654 -0.273886 
-0.007725 -0.266258 
-0.020958 -0.260569 
-0.014843 -0.264935 
-0.011933 -0.266701 
-0.010623 -0.248197 
-0.013077 -0.221192 
-0.026304 -0.250513 
-0.030843 -0.244288 
-0.045441 -0.187345 
-0.039588 -0.219553 
-0.051988 -0.212948 
-0.026374 -0.221188 
-0.014245 -0.186612 
-0.065114 -0.149538 
-0.046399 -0.148236 
-0.023457 -0.051878 
-0.039957 -0.102672 
-0.046672 -0.062818 
-0.028587 -0.146549 
-0.013488 -0.145813 
0.000000 0.000000 
-0.012649 -0.051122 
-0.000000 -0.051341 
-0.005730 -0.051264 
0.000000 0.000000 
-0.010540 -0.100224 
0.000000 -0.145623 
0.000000 0.000000 
0.005730 -0.051264 
0.023457 -0.051878 
0.012649 -0.051122 
0.000000 0.000000 
0.010540 -0.100224 
0.013488 -0.145813 
0.046672 -0.062818 
0.039957 -0.102672 
0.045441 -0.187345 
0.046399 -0.148236 
0.065114 -0.149538 
0.028587 -0.146549 
0.014245 -0.186612 
0.051988 -0.212948 
0.039588 -0.219553 
0.030843 -0.244288 
0.026304 -0.250513 
0.026374 -0.221188 
0.012368 -0.262104 
0.016191 -0.265061 
0.017846 -0.260681 
0.012020 -0.269877 
0.014276 -0.268027 
0.011163 -0.269901 
0.022045 -0.256000 
0.018033 -0.263291 
0.017936 -0.257404 
0.000000 -0.271748 
0.003295 -0.271704 
0.002929 -0.274200 
0.004606 -0.258540 
0.003900 -0.266425 
0.000000 -0.258559 
0.008011 -0.273207 
0.006470 -0.271475 
0.009406 -0.270934 
0.006890 -0.204627 
0.006516 -0.221102 
0.000000 -0.204586 
0.015873 -0.248011 
0.011963 -0.235725 
0.017950 -0.235672 
0.000000 -0.235679 
0.005977 -0.235696 
0.005321 -0.248235 
0.011393 -0.265830 
0.009166 -0.258435 
0.013627 -0.258123 
-0.002929 -0.274200 
-0.003295 -0.271704 
-0.009406 -0.270934 
-0.006470 -0.271475 
-0.008011 -0.273207 
-0.003900 -0.266425 
-0.004606 -0.258540 
-0.017846 -0.260681 
-0.016191 -0.265061 
-0.012368 -0.262104 
-0.017936 -0.257404 
-0.018033 -0.263291 
-0.022045 -0.256000 
-0.011163 -0.269901 
-0.014276 -0.268027 
-0.012020 -0.269877 
-0.006516 -0.221102 
-0.006890 -0.204627 
-0.005321 -0.248235 
-0.005977 -0.235696 
-0.017950 -0.235672 
-0.011963 -0.235725 
-0.015873 -0.248011 
-0.011393 -0.265830 
-0.013627 -0.258123 
-0.009166 -0.258435 
-0.019417 -0.254720 
-0.023663 -0.256423 
-0.035445 -0.240815 
-0.029609 -0.249713 
-0.033204 -0.243987 
-0.025929 -0.253568 
-0.026034 -0.246368 
-0.053403 -0.186486 
-0.050141 -0.202663 
-0.056960 -0.199272 
-0.035633 -0.204983 
-0.042987 -0.204339 
-0.037343 -0.187424 
-0.046240 -0.225035 
-0.045921 -0.217168 
-0.040953 -0.229921 
-0.013866 -0.204765 
-0.007060 -0.186445 
-0.023905 -0.235369 
-0.019701 -0.221267 
-0.021661 -0.186876 
-0.020983 -0.204951 
-0.028255 -0.205084 
-0.035468 -0.232904 
-0.033037 -0.220731 
-0.029768 -0.234565 
-0.063787 -0.167516 
-0.055443 -0.168672 
-0.054543 -0.128163 
-0.055947 -0.149237 
-0.064623 -0.130157 
-0.046672 -0.168627 
-0.037925 -0.168148 
-0.017276 -0.026904 
-0.032957 -0.054521 
-0.030913 -0.035915 
-0.030700 -0.101237 
-0.033056 -0.077758 
-0.024771 -0.076552 
-0.056243 -0.086990 
-0.043862 -0.080859 
-0.050742 -0.105398 
-0.014135 -0.166902 
-0.006986 -0.166734 
-0.029529 -0.167624 
-0.021610 -0.167198 
-0.018993 -0.123728 
-0.020739 -0.146087 
-0.026418 -0.124132 
-0.044285 -0.126224 
-0.034810 -0.124898 
-0.037156 -0.147263 
0.000000 0.000000 
-0.011825 -0.025754 
-0.006394 -0.025699 
-0.008684 -0.025630 
0.000000 0.000000 
-0.017233 -0.051217 
-0.018304 -0.076160 
-0.000000 -0.025946 
-0.001422 -0.025930 
0.000000 0.000000 
-0.004068 -0.076112 
-0.002801 -0.051323 
-0.000000 -0.076121 
0.000000 0.000000 
-0.002908 -0.025879 
-0.004530 -0.025797 
-0.006644 -0.145670 
0.000000 -0.166681 
-0.016375 -0.100320 
-0.012283 -0.123526 
0.000000 -0.123402 
-0.006031 -0.123433 
-0.005162 -0.100194 
-0.008940 -0.051182 
-0.008320 -0.076085 
-0.012968 -0.076073 
0.000000 0.000000 
0.001422 -0.025930 
0.004530 -0.025797 
0.002908 -0.025879 
0.000000 0.000000 
0.002801 -0.051323 
0.004068 -0.076112 
0.017276 -0.026904 
0.011825 -0.025754 
0.000000 0.000000 
0.018304 -0.076160 
0.017233 -0.051217 
0.024771 -0.076552 
0.000000 0.000000 
0.008684 -0.025630 
0.006394 -0.025699 
0.006644 -0.145670 
0.006986 -0.166734 
0.005162 -0.100194 
0.006031 -0.123433 
0.018993 -0.123728 
0.012283 -0.123526 
0.016375 -0.100320 
0.008940 -0.051182 
0.012968 -0.076073 
0.008320 -0.076085 
0.030913 -0.035915 
0.032957 -0.054521 
0.050742 -0.105398 
0.043862 -0.080859 
0.056243 -0.086990 
0.033056 -0.077758 
0.030700 -0.101237 
0.053403 -0.186486 
0.055443 -0.168672 
0.063787 -0.167516 
0.037925 -0.168148 
0.046672 -0.168627 
0.037343 -0.187424 
0.064623 -0.130157 
0.055947 -0.149237 
0.054543 -0.128163 
0.014135 -0.166902 
0.007060 -0.186445 
0.026418 -0.124132 
0.020739 -0.146087 
0.021661 -0.186876 
0.021610 -0.167198 
0.029529 -0.167624 
0.044285 -0.126224 
0.037156 -0.147263 
0.034810 -0.124898 
0.056960 -0.199272 
0.050141 -0.202663 
0.040953 -0.229921 
0.045921 -0.217168 
0.046240 -0.225035 
0.042987 -0.204339 
0.035633 -0.204983 
0.023663 -0.256423 
0.019417 -0.254720 
0.026034 -0.246368 
0.025929 -0.253568 
0.033204 -0.243987 
0.029609 -0.249713 
0.035445 -0.240815 
0.013866 -0.204765 
0.028255 -0.205084 
0.020983 -0.204951 
0.019701 -0.221267 
0.023905 -0.235369 
0.035468 -0.232904 
0.029768 -0.234565 
0.033037 -0.220731 
0.012567 -0.259265 
0.015059 -0.261776 
0.015547 -0.258969 
0.013976 -0.266267 
0.014543 -0.264210 
0.012174 -0.264588 
0.019650 -0.261208 
0.017044 -0.263062 
0.018531 -0.263146 
0.010827 -0.271298 
0.011772 -0.270443 
0.010587 -0.271056 
0.014778 -0.266986 
0.013193 -0.269071 
0.013377 -0.267744 
0.011606 -0.268462 
0.012606 -0.269346 
0.013336 -0.267967 
0.021802 -0.252200 
0.020018 -0.256807 
0.019496 -0.252734 
0.019528 -0.262087 
0.020027 -0.259950 
0.021761 -0.258813 
0.016374 -0.261479 
0.018231 -0.260824 
0.016472 -0.264226 
0.015272 -0.266704 
0.016102 -0.265995 
0.017352 -0.264729 
0.000000 -0.273351 
0.001543 -0.273355 
0.001480 -0.274253 
0.001794 -0.269436 
0.001653 -0.271743 
0.000000 -0.269443 
0.004328 -0.274080 
0.003070 -0.273310 
0.004558 -0.273210 
0.002485 -0.253687 
0.002306 -0.258555 
0.000000 -0.253689 
0.005827 -0.266364 
0.004247 -0.262796 
0.006352 -0.262748 
0.000000 -0.262824 
0.002127 -0.262819 
0.001955 -0.266453 
0.009009 -0.272673 
0.008606 -0.272440 
0.009771 -0.271952 
0.005987 -0.273044 
0.007341 -0.272795 
0.006888 -0.273603 
0.008735 -0.269010 
0.007974 -0.271254 
0.007060 -0.269205 
0.003578 -0.269402 
0.005338 -0.269329 
0.004905 -0.271619 
0.003493 -0.195703 
0.003438 -0.204593 
0.000000 -0.195701 
0.009789 -0.221143 
0.006727 -0.213089 
0.010111 -0.213139 
0.000000 -0.213050 
0.003358 -0.213058 
0.003255 -0.221076 
0.018466 -0.247808 
0.016943 -0.242109 
0.019736 -0.241954 
0.011315 -0.242229 
0.014134 -0.242193 
0.013257 -0.248132 
0.015712 -0.228726 
0.014958 -0.235717 
0.012554 -0.228706 
0.000000 -0.242226 
0.002830 -0.242228 
0.002662 -0.248237 
0.003130 -0.228625 
0.002988 -0.235683 
0.000000 -0.228619 
0.007976 -0.248226 
0.005660 -0.242234 
0.008489 -0.242238 
0.009405 -0.228675 
0.008969 -0.235714 
0.006264 -0.228645 
0.010757 -0.270486 
0.009583 -0.266088 
0.010351 -0.268721 
0.011900 -0.268310 
0.013149 -0.265457 
0.004967 -0.253678 
0.009902 -0.253606 
0.007441 -0.253655 
0.006895 -0.258504 
0.008434 -0.262660 
0.017147 -0.253107 
0.014461 -0.261955 
0.015804 -0.257830 
0.014761 -0.253356 
0.012344 -0.253514 
0.010485 -0.262515 
0.011413 -0.258316 
0.012496 -0.262289 
-0.001480 -0.274253 
-0.001543 -0.273355 
-0.004558 -0.273210 
-0.003070 -0.273310 
-0.004328 -0.274080 
-0.001653 -0.271743 
-0.001794 -0.269436 
-0.009771 -0.271952 
-0.008606 -0.272440 
-0.009009 -0.272673 
-0.007060 -0.269205 
-0.007974 -0.271254 
-0.008735 -0.269010 
-0.006888 -0.273603 
-0.007341 -0.272795 
-0.005987 -0.273044 
-0.002306 -0.258555 
-0.002485 -0.253687 
-0.001955 -0.266453 
-0.002127 -0.262819 
-0.006352 -0.262748 
-0.004247 -0.262796 
-0.005827 -0.266364 
-0.004905 -0.271619 
-0.005338 -0.269329 
-0.003578 -0.269402 
-0.015547 -0.258969 
-0.015059 -0.261776 
-0.012567 -0.259265 
-0.018531 -0.263146 
-0.017044 -0.263062 
-0.019650 -0.261208 
-0.012174 -0.264588 
-0.014543 -0.264210 
-0.013976 -0.266267 
-0.019496 -0.252734 
-0.020018 -0.256807 
-0.021802 -0.252200 
-0.016472 -0.264226 
-0.018231 -0.260824 
-0.016374 -0.261479 
-0.021761 -0.258813 
-0.020027 -0.259950 
-0.019528 -0.262087 
-0.010587 -0.271056 
-0.011772 -0.270443 
-0.010827 -0.271298 
-0.013336 -0.267967 
-0.012606 -0.269346 
-0.011606 -0.268462 
-0.013377 -0.267744 
-0.013193 -0.269071 
-0.014778 -0.266986 
-0.017352 -0.264729 
-0.016102 -0.265995 
-0.015272 -0.266704 
-0.003438 -0.204593 
-0.003493 -0.195703 
-0.003255 -0.221076 
-0.003358 -0.213058 
-0.010111 -0.213139 
-0.006727 -0.213089 
-0.009789 -0.221143 
-0.002662 -0.248237 
-0.002830 -0.242228 
-0.008489 -0.242238 
-0.005660 -0.242234 
-0.007976 -0.248226 
-0.002988 -0.235683 
-0.003130 -0.228625 
-0.019736 -0.241954 
-0.016943 -0.242109 
-0.018466 -0.247808 
-0.012554 -0.228706 
-0.014958 -0.235717 
-0.015712 -0.228726 
-0.013257 -0.248132 
-0.014134 -0.242193 
-0.011315 -0.242229 
-0.006264 -0.228645 
-0.008969 -0.235714 
-0.009405 -0.228675 
-0.010757 -0.270486 
-0.013149 -0.265457 
-0.011900 -0.268310 
-0.010351 -0.268721 
-0.009583 -0.266088 
-0.017147 -0.253107 
-0.012344 -0.253514 
-0.014761 -0.253356 
-0.015804 -0.257830 
-0.014461 -0.261955 
-0.004967 -0.253678 
-0.008434 -0.262660 
-0.006895 -0.258504 
-0.007441 -0.253655 
-0.009902 -0.253606 
-0.012496 -0.262289 
-0.011413 -0.258316 
-0.010485 -0.262515 
-0.016045 -0.255830 
-0.018622 -0.257904 
-0.024976 -0.253711 
-0.021776 -0.256131 
-0.022846 -0.252929 
-0.020723 -0.258879 
-0.022332 -0.258695 
-0.037688 -0.238397 
-0.034578 -0.243007 
-0.036595 -0.239948 
-0.030503 -0.247568 
-0.032555 -0.245524 
-0.033168 -0.242756 
-0.029765 -0.247520 
-0.031405 -0.247115 
-0.028195 -0.250693 
-0.024058 -0.251465 
-0.023553 -0.247025 
-0.023435 -0.257366 
-0.024015 -0.254936 
-0.028465 -0.245473 
-0.026260 -0.250482 
-0.028408 -0.249201 
-0.026635 -0.253356 
-0.027790 -0.251845 
-0.025056 -0.255563 
-0.057238 -0.185538 
-0.055548 -0.193577 
-0.059089 -0.191858 
-0.048163 -0.195574 
-0.051904 -0.194780 
-0.049458 -0.187053 
-0.054584 -0.206304 
-0.053595 -0.201230 
-0.051399 -0.208485 
-0.032749 -0.196420 
-0.036612 -0.196424 
-0.033328 -0.187325 
-0.041392 -0.212173 
-0.039324 -0.204755 
-0.037930 -0.212738 
-0.041390 -0.187447 
-0.040487 -0.196321 
-0.044347 -0.196061 
-0.043138 -0.230452 
-0.043616 -0.227756 
-0.040709 -0.233307 
-0.048986 -0.215332 
-0.046383 -0.221759 
-0.049198 -0.219196 
-0.040592 -0.225312 
-0.043517 -0.223769 
-0.042787 -0.218547 
-0.046600 -0.203669 
-0.044799 -0.211329 
-0.048138 -0.210129 
-0.007003 -0.195738 
-0.003523 -0.186408 
-0.013518 -0.213205 
-0.010364 -0.204686 
-0.010629 -0.186514 
-0.010539 -0.195804 
-0.014112 -0.195894 
-0.022506 -0.241697 
-0.020934 -0.235565 
-0.023034 -0.221259 
-0.022041 -0.228661 
-0.025202 -0.228528 
-0.018875 -0.228718 
-0.016381 -0.221238 
-0.025477 -0.187030 
-0.025135 -0.196245 
-0.028919 -0.196351 
-0.017732 -0.196003 
-0.021405 -0.196124 
-0.017919 -0.186734 
-0.027400 -0.213368 
-0.024601 -0.205033 
-0.023894 -0.213377 
-0.016950 -0.213275 
-0.020409 -0.213338 
-0.017405 -0.204857 
-0.038254 -0.235608 
-0.037605 -0.226467 
-0.038239 -0.231611 
-0.035755 -0.237432 
-0.033205 -0.238850 
-0.031937 -0.205078 
-0.029713 -0.221025 
-0.030917 -0.213285 
-0.034432 -0.213090 
-0.036334 -0.220259 
-0.025245 -0.241302 
-0.030602 -0.239929 
-0.027946 -0.240729 
-0.026853 -0.235050 
-0.028350 -0.228285 
-0.034563 -0.227307 
-0.031474 -0.227894 
-0.032643 -0.233868 
-0.062542 -0.175973 
-0.058641 -0.177116 
-0.060370 -0.159119 
-0.059696 -0.168309 
-0.064655 -0.158703 
-0.054595 -0.177782 
-0.050441 -0.178107 
-0.058371 -0.118466 
-0.059685 -0.129228 
-0.063565 -0.119934 
-0.051173 -0.148764 
-0.055510 -0.138907 
-0.050531 -0.138154 
-0.065120 -0.140023 
-0.060415 -0.139584 
-0.060625 -0.149546 
-0.037788 -0.177994 
-0.033642 -0.177806 
-0.046225 -0.178198 
-0.041993 -0.178140 
-0.042187 -0.158267 
-0.042270 -0.168410 
-0.046744 -0.158637 
-0.055908 -0.159157 
-0.051341 -0.158960 
-0.051082 -0.168742 
-0.011052 -0.014322 
-0.022559 -0.029269 
-0.018910 -0.020229 
-0.027655 -0.052782 
-0.025693 -0.040785 
-0.021151 -0.039408 
-0.039808 -0.049832 
-0.032007 -0.043808 
-0.039495 -0.057680 
-0.026667 -0.100843 
-0.027958 -0.089001 
-0.024191 -0.088667 
-0.036846 -0.090368 
-0.032155 -0.089537 
-0.035120 -0.101824 
-0.024583 -0.064275 
-0.028634 -0.077001 
-0.028580 -0.064901 
-0.059472 -0.098371 
-0.053667 -0.095651 
-0.056397 -0.107282 
-0.045408 -0.070903 
-0.050058 -0.083540 
-0.052044 -0.075161 
-0.045196 -0.103851 
-0.047740 -0.093355 
-0.042062 -0.091606 
-0.033336 -0.066014 
-0.038130 -0.078980 
-0.038980 -0.067906 
-0.007056 -0.176769 
-0.003522 -0.176731 
-0.014254 -0.176941 
-0.010628 -0.176840 
-0.010330 -0.156424 
-0.010529 -0.166802 
-0.013881 -0.156519 
-0.029577 -0.177604 
-0.025606 -0.177407 
-0.025171 -0.157016 
-0.025509 -0.167395 
-0.029205 -0.157266 
-0.021733 -0.177227 
-0.017952 -0.177070 
-0.021208 -0.112280 
-0.022600 -0.123896 
-0.024853 -0.112485 
-0.017050 -0.145931 
-0.019977 -0.135051 
-0.016397 -0.134910 
-0.027662 -0.135496 
-0.023723 -0.135242 
-0.024578 -0.146290 
-0.017823 -0.167034 
-0.021282 -0.156811 
-0.017524 -0.156646 
-0.052979 -0.116997 
-0.042422 -0.114633 
-0.047605 -0.115695 
-0.049361 -0.127131 
-0.045595 -0.137428 
-0.028766 -0.112785 
-0.031814 -0.135828 
-0.030480 -0.124457 
-0.032983 -0.113215 
-0.037534 -0.113816 
-0.033671 -0.167879 
-0.041708 -0.147723 
-0.037724 -0.157900 
-0.033391 -0.157561 
-0.032779 -0.146871 
-0.039417 -0.125480 
-0.036194 -0.136255 
-0.040796 -0.136789 
0.000000 0.000000 
-0.008320 -0.013240 
-0.005799 -0.012824 
-0.006836 -0.012924 
0.000000 0.000000 
-0.014062 -0.026069 
-0.017803 -0.038795 
-0.003187 -0.012883 
-0.003713 -0.012849 
0.000000 0.000000 
-0.011190 -0.038422 
-0.007468 -0.025656 
-0.009567 -0.038449 
0.000000 0.000000 
-0.004304 -0.012820 
-0.004985 -0.012805 
-0.021360 -0.076296 
-0.020779 -0.088466 
-0.020064 -0.051428 
-0.021175 -0.063939 
-0.015579 -0.063701 
-0.018210 -0.063772 
-0.014797 -0.051136 
-0.010101 -0.025646 
-0.013032 -0.038435 
-0.015186 -0.038531 
-0.000000 -0.013039 
-0.000354 -0.013037 
0.000000 0.000000 
-0.001055 -0.038711 
-0.000707 -0.025942 
-0.000000 -0.038715 
0.000000 0.000000 
-0.000713 -0.013029 
-0.001078 -0.013017 
-0.002308 -0.088251 
-0.002023 -0.076120 
-0.000000 -0.088249 
-0.004241 -0.051298 
-0.003453 -0.063799 
-0.005228 -0.063778 
-0.000000 -0.063813 
-0.001717 -0.063811 
-0.001393 -0.051337 
0.000000 0.000000 
-0.002264 -0.012948 
-0.002707 -0.012917 
-0.001456 -0.012999 
-0.001849 -0.012976 
0.000000 0.000000 
-0.005518 -0.038593 
-0.003696 -0.025841 
-0.004339 -0.038636 
-0.002121 -0.038697 
-0.003212 -0.038671 
-0.002153 -0.025909 
-0.003484 -0.166694 
0.000000 -0.176725 
-0.010028 -0.145728 
-0.006849 -0.156360 
0.000000 -0.156307 
-0.003414 -0.156322 
-0.003310 -0.145636 
-0.019556 -0.100422 
-0.017790 -0.112142 
-0.011476 -0.111991 
-0.014558 -0.112050 
-0.013383 -0.100259 
-0.015565 -0.123609 
-0.012955 -0.134808 
-0.000000 -0.111908 
-0.002800 -0.111915 
-0.002568 -0.100188 
-0.003172 -0.134659 
-0.003002 -0.123412 
0.000000 -0.134647 
-0.007810 -0.100205 
-0.005627 -0.111929 
-0.008509 -0.111952 
-0.009623 -0.134735 
-0.009115 -0.123470 
-0.006371 -0.134687 
-0.005423 -0.025749 
-0.007288 -0.051224 
-0.006766 -0.038544 
-0.008106 -0.038494 
-0.010714 -0.051144 
-0.004640 -0.088250 
-0.009483 -0.088249 
-0.007023 -0.088248 
-0.006159 -0.076100 
-0.007063 -0.063751 
-0.017655 -0.088350 
-0.013201 -0.063685 
-0.015527 -0.076095 
-0.014762 -0.088289 
-0.012051 -0.088260 
-0.008983 -0.063723 
-0.010579 -0.076074 
-0.011018 -0.063697 
0.000000 0.000000 
0.000354 -0.013037 
0.001078 -0.013017 
0.000713 -0.013029 
0.000000 0.000000 
0.000707 -0.025942 
0.001055 -0.038711 
0.002707 -0.012917 
0.002264 -0.012948 
0.000000 0.000000 
0.004339 -0.038636 
0.003696 -0.025841 
0.005518 -0.038593 
0.000000 0.000000 
0.001849 -0.012976 
0.001456 -0.012999 
0.002023 -0.076120 
0.002308 -0.088251 
0.001393 -0.051337 
0.001717 -0.063811 
0.005228 -0.063778 
0.003453 -0.063799 
0.004241 -0.051298 
0.002153 -0.025909 
0.003212 -0.038671 
0.002121 -0.038697 
0.011052 -0.014322 
0.008320 -0.013240 
0.000000 0.000000 
0.017803 -0.038795 
0.014062 -0.026069 
0.021151 -0.039408 
0.000000 0.000000 
0.006836 -0.012924 
0.005799 -0.012824 
0.020779 -0.088466 
0.021360 -0.076296 
0.024191 -0.088667 
0.014797 -0.051136 
0.018210 -0.063772 
0.015579 -0.063701 
0.024583 -0.064275 
0.021175 -0.063939 
0.020064 -0.051428 
0.000000 0.000000 
0.003713 -0.012849 
0.003187 -0.012883 
0.004985 -0.012805 
0.004304 -0.012820 
0.000000 0.000000 
0.009567 -0.038449 
0.007468 -0.025656 
0.011190 -0.038422 
0.015186 -0.038531 
0.013032 -0.038435 
0.010101 -0.025646 
0.003484 -0.166694 
0.003522 -0.176731 
0.003310 -0.145636 
0.003414 -0.156322 
0.010330 -0.156424 
0.006849 -0.156360 
0.010028 -0.145728 
0.002568 -0.100188 
0.002800 -0.111915 
0.008509 -0.111952 
0.005627 -0.111929 
0.007810 -0.100205 
0.003002 -0.123412 
0.003172 -0.134659 
0.021208 -0.112280 
0.017790 -0.112142 
0.019556 -0.100422 
0.012955 -0.134808 
0.015565 -0.123609 
0.016397 -0.134910 
0.013383 -0.100259 
0.014558 -0.112050 
0.011476 -0.111991 
0.006371 -0.134687 
0.009115 -0.123470 
0.009623 -0.134735 
0.005423 -0.025749 
0.010714 -0.051144 
0.008106 -0.038494 
0.006766 -0.038544 
0.007288 -0.051224 
0.017655 -0.088350 
0.012051 -0.088260 
0.014762 -0.088289 
0.015527 -0.076095 
0.013201 -0.063685 
0.004640 -0.088250 
0.007063 -0.063751 
0.006159 -0.076100 
0.007023 -0.088248 
0.009483 -0.088249 
0.011018 -0.063697 
0.010579 -0.076074 
0.008983 -0.063723 
0.018910 -0.020229 
0.022559 -0.029269 
0.039495 -0.057680 
0.032007 -0.043808 
0.039808 -0.049832 
0.025693 -0.040785 
0.027655 -0.052782 
0.056397 -0.107282 
0.053667 -0.095651 
0.059472 -0.098371 
0.042062 -0.091606 
0.047740 -0.093355 
0.045196 -0.103851 
0.052044 -0.075161 
0.050058 -0.083540 
0.045408 -0.070903 
0.027958 -0.089001 
0.026667 -0.100843 
0.028580 -0.064901 
0.028634 -0.077001 
0.035120 -0.101824 
0.032155 -0.089537 
0.036846 -0.090368 
0.038980 -0.067906 
0.038130 -0.078980 
0.033336 -0.066014 
0.057238 -0.185538 
0.058641 -0.177116 
0.062542 -0.175973 
0.050441 -0.178107 
0.054595 -0.177782 
0.049458 -0.187053 
0.064655 -0.158703 
0.059696 -0.168309 
0.060370 -0.159119 
0.033642 -0.177806 
0.037788 -0.177994 
0.033328 -0.187325 
0.046744 -0.158637 
0.042270 -0.168410 
0.042187 -0.158267 
0.041390 -0.187447 
0.041993 -0.178140 
0.046225 -0.178198 
0.063565 -0.119934 
0.059685 -0.129228 
0.058371 -0.118466 
0.060625 -0.149546 
0.060415 -0.139584 
0.065120 -0.140023 
0.050531 -0.138154 
0.055510 -0.138907 
0.051173 -0.148764 
0.051082 -0.168742 
0.051341 -0.158960 
0.055908 -0.159157 
0.007056 -0.176769 
0.003523 -0.186408 
0.013881 -0.156519 
0.010529 -0.166802 
0.010629 -0.186514 
0.010628 -0.176840 
0.014254 -0.176941 
0.024853 -0.112485 
0.022600 -0.123896 
0.024578 -0.146290 
0.023723 -0.135242 
0.027662 -0.135496 
0.019977 -0.135051 
0.017050 -0.145931 
0.025477 -0.187030 
0.025606 -0.177407 
0.029577 -0.177604 
0.017952 -0.177070 
0.021733 -0.177227 