# vtk DataFile Version 2.0
Unstructured Grid Example
ASCII
DATASET UNSTRUCTURED_GRID

POINTS 81 float
0.021168 -0.264910 0.000000 
0.978832 -0.264910 0.000000 
1.000000 1.000000 0.000000 
0.000000 1.000000 0.000000 
0.500000 -0.269679 0.000000 
0.942553 0.316954 0.000000 
0.500000 1.000000 0.000000 
0.057447 0.316954 0.000000 
0.500000 0.313348 0.000000 
0.262652 -0.271240 0.000000 
0.500000 0.003925 0.000000 
0.270150 0.003767 0.000000 
0.737348 -0.271240 0.000000 
0.729850 0.003767 0.000000 
0.960419 0.011529 0.000000 
0.722044 0.313558 0.000000 
0.941587 0.641898 0.000000 
0.728543 0.649923 0.000000 
0.750000 1.000000 0.000000 
0.500000 0.650273 0.000000 
0.250000 1.000000 0.000000 
0.271457 0.649923 0.000000 
0.058413 0.641898 0.000000 
0.277956 0.313558 0.000000 
0.039581 0.011529 0.000000 
0.142554 -0.268816 0.000000 
0.265576 -0.138659 0.000000 
0.147325 -0.136555 0.000000 
0.500000 -0.138093 0.000000 
0.382896 -0.138932 0.000000 
0.381617 -0.271661 0.000000 
0.387137 0.155056 0.000000 
0.385034 0.003693 0.000000 
0.500000 0.154845 0.000000 
0.618383 -0.271661 0.000000 
0.617104 -0.138932 0.000000 
0.852675 -0.136555 0.000000 
0.734424 -0.138659 0.000000 
0.857446 -0.268816 0.000000 
0.614966 0.003693 0.000000 
0.612863 0.155056 0.000000 
0.971492 -0.131082 0.000000 
0.845117 0.005479 0.000000 
0.831778 0.313396 0.000000 
0.837522 0.155857 0.000000 
0.949818 0.161153 0.000000 
0.725244 0.154877 0.000000 
0.611470 0.314086 0.000000 
0.937893 0.476027 0.000000 
0.830915 0.477484 0.000000 
0.854223 0.823880 0.000000 
0.837629 0.647964 0.000000 
0.957656 0.815476 0.000000 
0.722877 0.479073 0.000000 
0.612077 0.479693 0.000000 
0.875000 1.000000 0.000000 
0.738248 0.824079 0.000000 
0.500000 0.823926 0.000000 
0.619570 0.823876 0.000000 
0.625000 1.000000 0.000000 
0.615001 0.650120 0.000000 
0.500000 0.479748 0.000000 
0.375000 1.000000 0.000000 
0.380430 0.823876 0.000000 
0.145777 0.823880 0.000000 
0.261752 0.824079 0.000000 
0.125000 1.000000 0.000000 
0.384999 0.650120 0.000000 
0.387923 0.479693 0.000000 
0.042344 0.815476 0.000000 
0.162371 0.647964 0.000000 
0.168222 0.313396 0.000000 
0.169085 0.477484 0.000000 
0.062107 0.476027 0.000000 
0.277123 0.479073 0.000000 
0.388530 0.314086 0.000000 
0.050182 0.161153 0.000000 
0.162478 0.155857 0.000000 
0.154883 0.005479 0.000000 
0.028508 -0.131082 0.000000 
0.274756 0.154877 0.000000 

CELLS 128 512
3  0 25 27 
3  9 26 25 
3  11 27 26 
3  25 26 27 
3  4 28 30 
3  10 29 28 
3  9 30 29 
3  28 29 30 
3  8 31 33 
3  11 32 31 
3  10 33 32 
3  31 32 33 
3  9 29 26 
3  10 32 29 
3  11 26 32 
3  29 32 26 
3  4 34 28 
3  12 35 34 
3  10 28 35 
3  34 35 28 
3  1 36 38 
3  13 37 36 
3  12 38 37 
3  36 37 38 
3  8 33 40 
3  10 39 33 
3  13 40 39 
3  33 39 40 
3  12 37 35 
3  13 39 37 
3  10 35 39 
3  37 39 35 
3  1 41 36 
3  14 42 41 
3  13 36 42 
3  41 42 36 
3  5 43 45 
3  15 44 43 
3  14 45 44 
3  43 44 45 
3  8 40 47 
3  13 46 40 
3  15 47 46 
3  40 46 47 
3  14 44 42 
3  15 46 44 
3  13 42 46 
3  44 46 42 
3  5 48 43 
3  16 49 48 
3  15 43 49 
3  48 49 43 
3  2 50 52 
3  17 51 50 
3  16 52 51 
3  50 51 52 
3  8 47 54 
3  15 53 47 
3  17 54 53 
3  47 53 54 
3  16 51 49 
3  17 53 51 
3  15 49 53 
3  51 53 49 
3  2 55 50 
3  18 56 55 
3  17 50 56 
3  55 56 50 
3  6 57 59 
3  19 58 57 
3  18 59 58 
3  57 58 59 
3  8 54 61 
3  17 60 54 
3  19 61 60 
3  54 60 61 
3  18 58 56 
3  19 60 58 
3  17 56 60 
3  58 60 56 
3  6 62 57 
3  20 63 62 
3  19 57 63 
3  62 63 57 
3  3 64 66 
3  21 65 64 
3  20 66 65 
3  64 65 66 
3  8 61 68 
3  19 67 61 
3  21 68 67 
3  61 67 68 
3  20 65 63 
3  21 67 65 
3  19 63 67 
3  65 67 63 
3  3 69 64 
3  22 70 69 
3  21 64 70 
3  69 70 64 
3  7 71 73 
3  23 72 71 
3  22 73 72 
3  71 72 73 
3  8 68 75 
3  21 74 68 
3  23 75 74 
3  68 74 75 
3  22 72 70 
3  23 74 72 
3  21 70 74 
3  72 74 70 
3  7 76 71 
3  24 77 76 
3  23 71 77 
3  76 77 71 
3  0 27 79 
3  11 78 27 
3  24 79 78 
3  27 78 79 
3  8 75 31 
3  23 80 75 
3  11 31 80 
3  75 80 31 
3  24 78 77 
3  11 80 78 
3  23 77 80 
3  78 80 77 

CELL_TYPES 128
5
5
5
5
5
5
5
5
5
5
5
5
5
5
5
5
5
5
5
5
5
5
5
5
5
5
5
5
5
5
5
5
5
5
5
5
5
5
5
5
5
5
5
5
5
5
5
5
5
5
5
5
5
5
5
5
5
5
5
5
5
5
5
5
5
5
5
5
5
5
5
5
5
5
5
5
5
5
5
5
5
5
5
5
5
5
5
5
5
5
5
5
5
5
5
5
5
5
5
5
5
5
5
5
5
5
5
5
5
5
5
5
5
5
5
5
5
5
5
5
5
5
5
5
5
5
5
5

POINT_DATA 81

SCALARS u_h float 2
LOOKUP_TABLE default
0.021168 -0.264910 
-0.021168 -0.264910 
0.000000 0.000000 
0.000000 0.000000 
-0.000000 -0.269679 
-0.057447 -0.183046 
0.000000 0.000000 
0.057447 -0.183046 
-0.000000 -0.186652 
0.012652 -0.271240 
-0.000000 -0.246075 
0.020150 -0.246233 
-0.012652 -0.271240 
-0.020150 -0.246233 
-0.039581 -0.238471 
-0.027956 -0.186442 
-0.058413 -0.108102 
-0.021457 -0.100077 
0.000000 0.000000 
-0.000000 -0.099727 
0.000000 0.000000 
0.021457 -0.100077 
0.058413 -0.108102 
0.027956 -0.186442 
0.039581 -0.238471 
0.017554 -0.268816 
0.015576 -0.263659 
0.022325 -0.261555 
-0.000000 -0.263093 
0.007896 -0.263932 
0.006617 -0.271661 
0.012137 -0.219944 
0.010034 -0.246307 
-0.000000 -0.220155 
-0.006617 -0.271661 
-0.007896 -0.263932 
-0.022325 -0.261555 
-0.015576 -0.263659 
-0.017554 -0.268816 
-0.010034 -0.246307 
-0.012137 -0.219944 
-0.028508 -0.256082 
-0.029883 -0.244521 
-0.043222 -0.186604 
-0.037478 -0.219143 
-0.050182 -0.213847 
-0.024756 -0.220123 
-0.013530 -0.185914 
-0.062107 -0.148973 
-0.044085 -0.147516 
-0.020777 -0.051120 
-0.037371 -0.102036 
-0.042344 -0.059524 
-0.027123 -0.145927 
-0.012923 -0.145307 
0.000000 0.000000 
-0.011752 -0.050921 
0.000000 -0.051074 
-0.005430 -0.051124 
0.000000 0.000000 
-0.009999 -0.099880 
-0.000000 -0.145252 
0.000000 0.000000 
0.005430 -0.051124 
0.020777 -0.051120 
0.011752 -0.050921 
0.000000 0.000000 
0.009999 -0.099880 
0.012923 -0.145307 
0.042344 -0.059524 
0.037371 -0.102036 
0.043222 -0.186604 
0.044085 -0.147516 
0.062107 -0.148973 
0.027123 -0.145927 
0.013530 -0.185914 
0.050182 -0.213847 
0.037478 -0.219143 
0.029883 -0.244521 
0.028508 -0.256082 
0.024756 -0.220123 

CELL_DATA 128

SCALARS epsilon float 4
LOOKUP_TABLE default
-0.027482 0.058026 0.000000 0.004837
-0.039273 0.059434 0.000000 0.003009
-0.054297 0.130527 0.000000 0.011685
-0.054077 0.057189 0.000000 0.012181
-0.054332 0.051426 0.000000 0.007507
-0.065156 0.127029 0.000000 0.002940
-0.049357 0.059964 0.000000 0.003776
-0.065172 0.059878 0.000000 0.008589
-0.101754 0.233711 0.000000 -0.000655
-0.084051 0.189347 0.000000 0.008627
-0.083473 0.186502 0.000000 0.000763
-0.101610 0.189365 0.000000 0.008345
-0.062989 0.058863 0.000000 0.011397
-0.083370 0.131182 0.000000 0.009964
-0.083543 0.129863 0.000000 0.019349
-0.063154 0.131246 0.000000 0.008021
-0.054332 0.051426 0.000000 -0.007507
-0.049357 0.059964 0.000000 -0.003776
-0.065156 0.127029 0.000000 -0.002940
-0.065172 0.059878 0.000000 -0.008589
-0.027482 0.058026 0.000000 -0.004837
-0.054297 0.130527 0.000000 -0.011685
-0.039273 0.059434 0.000000 -0.003009
-0.054077 0.057189 0.000000 -0.012181
-0.101754 0.233711 0.000000 0.000655
-0.083473 0.186502 0.000000 -0.000763
-0.084051 0.189347 0.000000 -0.008627
-0.101610 0.189365 0.000000 -0.008345
-0.062989 0.058863 0.000000 -0.011397
-0.083543 0.129863 0.000000 -0.019349
-0.083370 0.131182 0.000000 -0.009964
-0.063154 0.131246 0.000000 -0.008021
-0.046516 0.071581 0.000000 -0.010347
-0.073020 0.136164 0.000000 -0.026161
-0.078423 0.127983 0.000000 -0.026325
-0.046689 0.130350 0.000000 -0.012110
-0.117314 0.219007 0.000000 -0.020255
-0.128632 0.227822 0.000000 -0.025563
-0.100351 0.182126 0.000000 -0.028398
-0.104218 0.230215 0.000000 -0.007872
-0.113909 0.236951 0.000000 -0.003680
-0.105460 0.187669 0.000000 -0.020464
-0.121783 0.234696 0.000000 -0.015451
-0.105953 0.236869 0.000000 -0.006470
-0.076452 0.186520 0.000000 -0.011988
-0.106458 0.234972 0.000000 -0.010557
-0.079875 0.188230 0.000000 -0.013758
-0.104869 0.183458 0.000000 -0.029638
-0.118696 0.238351 0.000000 -0.009060
-0.153639 0.277097 0.000000 0.011947
-0.129432 0.266579 0.000000 -0.004196
-0.154322 0.266572 0.000000 -0.008119
-0.131956 0.392549 0.000000 0.159740
-0.127765 0.332952 0.000000 0.064180
-0.170623 0.324857 0.000000 0.054261
-0.173053 0.339946 0.000000 0.050301
-0.114030 0.275251 0.000000 0.004754
-0.121909 0.274772 0.000000 0.001974
-0.119059 0.304551 0.000000 0.021942
-0.119912 0.275290 0.000000 0.000736
-0.178607 0.305406 0.000000 0.012884
-0.133940 0.305009 0.000000 0.018482
-0.144592 0.274874 0.000000 -0.001060
-0.143079 0.302960 0.000000 0.024307
0.006959 0.332379 0.000000 0.076108
0.002231 0.331347 0.000000 0.043069
-0.072898 0.322174 0.000000 0.037940
-0.066515 0.332565 0.000000 0.081463
0.000000 0.332141 0.000000 -0.000000
-0.044383 0.319424 0.000000 -0.000144
0.000475 0.332401 0.000000 0.019891
-0.043851 0.332413 0.000000 0.020652
-0.108659 0.279744 0.000000 -0.000163
-0.095611 0.302100 0.000000 0.011390
-0.083168 0.302608 0.000000 -0.000446
-0.108467 0.302079 0.000000 0.011959
-0.049485 0.331243 0.000000 0.045939
-0.082725 0.320004 0.000000 0.017863
-0.093842 0.322175 0.000000 0.038772
-0.051509 0.319930 0.000000 0.018315
0.000000 0.332141 0.000000 -0.000000
0.000475 0.332401 0.000000 -0.019891
-0.044383 0.319424 0.000000 0.000144
-0.043851 0.332413 0.000000 -0.020652
0.006959 0.332379 0.000000 -0.076108
-0.072898 0.322174 0.000000 -0.037940
0.002231 0.331347 0.000000 -0.043069
-0.066515 0.332565 0.000000 -0.081463
-0.108659 0.279744 0.000000 0.000163
-0.083168 0.302608 0.000000 0.000446
-0.095611 0.302100 0.000000 -0.011390
-0.108467 0.302079 0.000000 -0.011959
-0.049485 0.331243 0.000000 -0.045939
-0.093842 0.322175 0.000000 -0.038772
-0.082725 0.320004 0.000000 -0.017863
-0.051509 0.319930 0.000000 -0.018315
-0.131956 0.392549 0.000000 -0.159740
-0.170623 0.324857 0.000000 -0.054261
-0.127765 0.332952 0.000000 -0.064180
-0.173053 0.339946 0.000000 -0.050301
-0.118696 0.238351 0.000000 0.009060
-0.129432 0.266579 0.000000 0.004196
-0.153639 0.277097 0.000000 -0.011947
-0.154322 0.266572 0.000000 0.008119
-0.114030 0.275251 0.000000 -0.004754
-0.119059 0.304551 0.000000 -0.021942
-0.121909 0.274772 0.000000 -0.001974
-0.119912 0.275290 0.000000 -0.000736
-0.178607 0.305406 0.000000 -0.012884
-0.144592 0.274874 0.000000 0.001060
-0.133940 0.305009 0.000000 -0.018482
-0.143079 0.302960 0.000000 -0.024307
-0.117314 0.219007 0.000000 0.020255
-0.100351 0.182126 0.000000 0.028398
-0.128632 0.227822 0.000000 0.025563
-0.104218 0.230215 0.000000 0.007872
-0.046516 0.071581 0.000000 0.010347
-0.078423 0.127983 0.000000 0.026325
-0.073020 0.136164 0.000000 0.026161
-0.046689 0.130350 0.000000 0.012110
-0.113909 0.236951 0.000000 0.003680
-0.121783 0.234696 0.000000 0.015451
-0.105460 0.187669 0.000000 0.020464
-0.105953 0.236869 0.000000 0.006470
-0.076452 0.186520 0.000000 0.011988
-0.079875 0.188230 0.000000 0.013758
-0.106458 0.234972 0.000000 0.010557
-0.104869 0.183458 0.000000 0.029638

SCALARS sigma float 4
LOOKUP_TABLE default
-0.143535 1.330398 0.305436 0.038878
-0.425569 1.245191 0.201600 0.024985
-0.123932 3.266089 0.762296 0.135496
-0.810831 1.030431 0.031126 0.172218
-0.866718 0.855089 -0.029058 0.129191
-0.419195 3.025788 0.618730 0.061995
-0.667926 1.153581 0.106073 0.055162
-1.045085 0.984553 -0.052937 0.137623
-0.311616 6.241525 1.319578 -0.017157
-0.296905 4.884667 1.052958 0.126796
-0.309082 4.791199 1.030291 0.018250
-0.704255 4.679062 0.877548 0.116022
-1.004439 0.981353 -0.041267 0.172662
-0.811226 2.957026 0.478116 0.153795
-0.827261 2.921352 0.463197 0.287910
-0.331866 3.185674 0.680919 0.117173
-0.866718 0.855089 -0.029058 -0.129191
-0.667926 1.153581 0.106073 -0.055162
-0.419195 3.025788 0.618730 -0.061995
-1.045085 0.984553 -0.052937 -0.137623
-0.143535 1.330398 0.305436 -0.038878
-0.123932 3.266089 0.762296 -0.135496
-0.425569 1.245191 0.201600 -0.024985
-0.810831 1.030431 0.031126 -0.172218
-0.311616 6.241525 1.319578 0.017157
-0.309082 4.791199 1.030291 -0.018250
-0.296905 4.884667 1.052958 -0.126796
-0.704255 4.679062 0.877548 -0.116022
-1.004439 0.981353 -0.041267 -0.172662
-0.827261 2.921352 0.463197 -0.287910
-0.811226 2.957026 0.478116 -0.153795
-0.331866 3.185674 0.680919 -0.117173
-0.494202 1.531681 0.250648 -0.100172
-0.540606 3.264424 0.631445 -0.263622
-0.730107 2.932384 0.495601 -0.361771
0.059379 3.348562 0.836615 -0.068490
-0.800626 5.542752 1.016933 -0.171496
-0.961624 5.721962 0.991897 -0.366429
-0.755696 4.477916 0.817742 -0.265376
-0.404070 6.087624 1.259967 0.073351
-0.560645 6.212076 1.230416 -0.026417
-0.805058 4.584943 0.822095 -0.303027
-0.753818 6.040165 1.129125 -0.239043
-0.380215 6.306206 1.309163 -0.100661
-0.149239 4.881480 1.100684 0.000325
-0.409838 6.233996 1.285144 -0.118235
-0.210164 4.900143 1.083548 -0.155491
-0.832122 4.463698 0.785891 -0.403715
-0.658282 6.207770 1.196554 -0.000906
-1.071069 7.209343 1.234583 0.103711
-0.646618 7.111894 1.371473 -0.065714
-1.169632 6.803606 1.122497 -0.167713
0.217924 12.786434 2.605925 1.642767
-0.050634 9.809193 2.051866 0.805354
-1.046981 8.917767 1.542343 0.428361
-0.983383 9.473199 1.668930 0.245440
-0.226181 7.628715 1.612212 0.099089
-0.409395 7.512423 1.528632 0.006384
-0.086627 8.702101 1.854919 0.285796
-0.359947 7.556669 1.553774 -0.015083
-1.338519 7.971675 1.267996 -0.098830
-0.419345 8.528745 1.710692 0.170951
-0.900619 7.233359 1.302824 -0.079234
-0.635082 8.340342 1.598817 0.265486
3.507504 11.558779 3.393380 1.248166
3.372370 11.355524 3.335778 0.706324
1.195652 10.009232 2.492763 0.564309
1.446224 10.640861 2.660501 1.222465
3.321410 11.312011 3.321410 -0.000000
1.930668 10.227252 2.750404 -0.004660
3.336561 11.338839 3.328766 0.326207
2.068007 10.768250 2.885623 0.320839
-0.062945 7.865740 1.710856 -0.004687
0.446503 8.893994 2.064887 0.159029
0.758235 9.067906 2.194393 -0.013671
0.139051 8.730591 1.936120 0.171034
1.899832 10.690291 2.817574 0.723196
0.927505 9.767840 2.372787 0.260181
0.668503 9.742344 2.283333 0.562345
1.741774 10.164616 2.684217 0.294104
3.321410 11.312011 3.321410 -0.000000
3.336561 11.338839 3.328766 -0.326207
1.930668 10.227252 2.750404 0.004660
2.068007 10.768250 2.885623 -0.320839
3.507504 11.558779 3.393380 -1.248166
1.195652 10.009232 2.492763 -0.564309
3.372370 11.355524 3.335778 -0.706324
1.446224 10.640861 2.660501 -1.222465
-0.062945 7.865740 1.710856 0.004687
0.758235 9.067906 2.194393 0.013671
0.446503 8.893994 2.064887 -0.159029
0.139051 8.730591 1.936120 -0.171034
1.899832 10.690291 2.817574 -0.723196
0.668503 9.742344 2.283333 -0.562345
0.927505 9.767840 2.372787 -0.260181
1.741774 10.164616 2.684217 -0.294104
0.217924 12.786434 2.605925 -1.642767
-1.046981 8.917767 1.542343 -0.428361
-0.050634 9.809193 2.051866 -0.805354
-0.983383 9.473199 1.668930 -0.245440
-0.658282 6.207770 1.196554 0.000906
-0.646618 7.111894 1.371473 0.065714
-1.071069 7.209343 1.234583 -0.103711
-1.169632 6.803606 1.122497 0.167713
-0.226181 7.628715 1.612212 -0.099089
-0.086627 8.702101 1.854919 -0.285796
-0.409395 7.512423 1.528632 -0.006384
-0.359947 7.556669 1.553774 0.015083
-1.338519 7.971675 1.267996 0.098830
-0.900619 7.233359 1.302824 0.079234
-0.419345 8.528745 1.710692 -0.170951
-0.635082 8.340342 1.598817 -0.265486
-0.800626 5.542752 1.016933 0.171496
-0.755696 4.477916 0.817742 0.265376
-0.961624 5.721962 0.991897 0.366429
-0.404070 6.087624 1.259967 -0.073351
-0.494202 1.531681 0.250648 0.100172
-0.730107 2.932384 0.495601 0.361771
-0.540606 3.264424 0.631445 0.263622
0.059379 3.348562 0.836615 0.068490
-0.560645 6.212076 1.230416 0.026417
-0.753818 6.040165 1.129125 0.239043
-0.805058 4.584943 0.822095 0.303027
-0.380215 6.306206 1.309163 0.100661
-0.149239 4.881480 1.100684 -0.000325
-0.210164 4.900143 1.083548 0.155491
-0.409838 6.233996 1.285144 0.118235
-0.832122 4.463698 0.785891 0.403715

