# vtk DataFile Version 2.0
Unstructured Grid Example
ASCII
DATASET UNSTRUCTURED_GRID

POINTS 16641 float
0.012564 -0.255922 0.000000 
0.987436 -0.255922 0.000000 
1.000000 1.000000 0.000000 
0.000000 1.000000 0.000000 
0.500000 -0.274334 0.000000 
0.938990 0.315895 0.000000 
0.500000 1.000000 0.000000 
0.061010 0.315895 0.000000 
0.500000 0.313580 0.000000 
0.259827 -0.271996 0.000000 
0.500000 0.001716 0.000000 
0.271043 0.002475 0.000000 
0.740173 -0.271996 0.000000 
0.728957 0.002475 0.000000 
0.960074 0.014612 0.000000 
0.720603 0.312790 0.000000 
0.938033 0.640672 0.000000 
0.726981 0.649395 0.000000 
0.750000 1.000000 0.000000 
0.500000 0.649800 0.000000 
0.250000 1.000000 0.000000 
0.273019 0.649395 0.000000 
0.061967 0.640672 0.000000 
0.279397 0.312790 0.000000 
0.039926 0.014612 0.000000 
0.136832 -0.266686 0.000000 
0.264828 -0.139969 0.000000 
0.145938 -0.135566 0.000000 
0.500000 -0.141527 0.000000 
0.382721 -0.141309 0.000000 
0.380636 -0.273933 0.000000 
0.388093 0.153773 0.000000 
0.385632 0.001758 0.000000 
0.500000 0.153903 0.000000 
0.619364 -0.273933 0.000000 
0.617279 -0.141309 0.000000 
0.854062 -0.135566 0.000000 
0.735172 -0.139969 0.000000 
0.863168 -0.266686 0.000000 
0.614368 0.001758 0.000000 
0.611907 0.153773 0.000000 
0.973720 -0.125424 0.000000 
0.844138 0.005707 0.000000 
0.829520 0.312637 0.000000 
0.835372 0.155432 0.000000 
0.947978 0.162064 0.000000 
0.723597 0.153782 0.000000 
0.610740 0.313362 0.000000 
0.934830 0.475463 0.000000 
0.828551 0.476742 0.000000 
0.851426 0.823100 0.000000 
0.834962 0.647300 0.000000 
0.953109 0.812215 0.000000 
0.721373 0.478428 0.000000 
0.611493 0.479167 0.000000 
0.875000 1.000000 0.000000 
0.737311 0.823870 0.000000 
0.500000 0.823652 0.000000 
0.619256 0.823731 0.000000 
0.625000 1.000000 0.000000 
0.614440 0.649763 0.000000 
0.500000 0.479357 0.000000 
0.375000 1.000000 0.000000 
0.380744 0.823731 0.000000 
0.148574 0.823100 0.000000 
0.262689 0.823870 0.000000 
0.125000 1.000000 0.000000 
0.385560 0.649763 0.000000 
0.388507 0.479167 0.000000 
0.046891 0.812215 0.000000 
0.165038 0.647300 0.000000 
0.170480 0.312637 0.000000 
0.171449 0.476742 0.000000 
0.065170 0.475463 0.000000 
0.278627 0.478428 0.000000 
0.389260 0.313362 0.000000 
0.052022 0.162064 0.000000 
0.164628 0.155432 0.000000 
0.155862 0.005707 0.000000 
0.026280 -0.125424 0.000000 
0.276403 0.153782 0.000000 
0.074707 -0.262032 0.000000 
0.141133 -0.202556 0.000000 
0.080284 -0.198127 0.000000 
0.261988 -0.207410 0.000000 
0.201730 -0.205546 0.000000 
0.198597 -0.269913 0.000000 
0.209548 -0.068521 0.000000 
0.205514 -0.138312 0.000000 
0.267938 -0.069938 0.000000 
0.500000 -0.209329 0.000000 
0.440792 -0.209267 0.000000 
0.440417 -0.274261 0.000000 
0.442109 -0.071093 0.000000 
0.441401 -0.141484 0.000000 
0.500000 -0.071116 0.000000 
0.320484 -0.273245 0.000000 
0.381458 -0.209025 0.000000 
0.321884 -0.208476 0.000000 
0.444400 0.232847 0.000000 
0.444025 0.153865 0.000000 
0.500000 0.232896 0.000000 
0.328386 0.001948 0.000000 
0.386977 0.076735 0.000000 
0.330469 0.076791 0.000000 
0.500000 0.076783 0.000000 
0.443485 0.076764 0.000000 
0.442827 0.001718 0.000000 
0.323884 -0.140874 0.000000 
0.384170 -0.070984 0.000000 
0.326130 -0.070666 0.000000 
0.559583 -0.274261 0.000000 
0.559208 -0.209267 0.000000 
0.678116 -0.208476 0.000000 
0.618542 -0.209025 0.000000 
0.679516 -0.273245 0.000000 
0.558599 -0.141484 0.000000 
0.557891 -0.071093 0.000000 
0.919716 -0.198127 0.000000 
0.858867 -0.202556 0.000000 
0.925293 -0.262032 0.000000 
0.732062 -0.069938 0.000000 
0.794486 -0.138312 0.000000 
0.790452 -0.068521 0.000000 
0.801403 -0.269913 0.000000 
0.798270 -0.205546 0.000000 
0.738012 -0.207410 0.000000 
0.555975 0.153865 0.000000 
0.555600 0.232847 0.000000 
0.557173 0.001718 0.000000 
0.556515 0.076764 0.000000 
0.669531 0.076791 0.000000 
0.613023 0.076735 0.000000 
0.671614 0.001948 0.000000 
0.676116 -0.140874 0.000000 
0.673870 -0.070666 0.000000 
0.615830 -0.070984 0.000000 
0.980649 -0.192076 0.000000 
0.913855 -0.131380 0.000000 
0.902037 0.009202 0.000000 
0.907888 -0.062183 0.000000 
0.966799 -0.056427 0.000000 
0.849068 -0.066068 0.000000 
0.786448 0.003610 0.000000 
0.884048 0.313499 0.000000 
0.887309 0.234823 0.000000 
0.942990 0.238222 0.000000 
0.776830 0.232494 0.000000 
0.831969 0.233143 0.000000 
0.775123 0.312554 0.000000 
0.953737 0.087491 0.000000 
0.891539 0.157827 0.000000 
0.896518 0.082585 0.000000 
0.611117 0.232705 0.000000 
0.555432 0.313532 0.000000 
0.726071 0.077099 0.000000 
0.667777 0.153700 0.000000 
0.665816 0.313098 0.000000 
0.666494 0.232519 0.000000 
0.721714 0.232389 0.000000 
0.839501 0.079585 0.000000 
0.779428 0.154246 0.000000 
0.782703 0.077912 0.000000 
0.936163 0.394971 0.000000 
0.882011 0.393812 0.000000 
0.882893 0.559317 0.000000 
0.881503 0.475746 0.000000 
0.935308 0.557351 0.000000 
0.828284 0.393854 0.000000 
0.774535 0.394329 0.000000 
0.920011 0.910582 0.000000 
0.904361 0.820449 0.000000 
0.968620 0.901501 0.000000 
0.781733 0.648739 0.000000 
0.841841 0.734715 0.000000 
0.787655 0.735928 0.000000 
0.943628 0.725534 0.000000 
0.893514 0.731613 0.000000 
0.886671 0.644579 0.000000 
0.610848 0.395575 0.000000 
0.555508 0.395746 0.000000 
0.720437 0.394852 0.000000 
0.665864 0.395278 0.000000 
0.668474 0.563753 0.000000 
0.666731 0.478891 0.000000 
0.723536 0.563346 0.000000 
0.830652 0.561251 0.000000 
0.777634 0.562578 0.000000 
0.775297 0.477714 0.000000 
0.937500 1.000000 0.000000 
0.863091 0.911741 0.000000 
0.743584 0.911799 0.000000 
0.803775 0.911868 0.000000 
0.812500 1.000000 0.000000 
0.795199 0.823770 0.000000 
0.731647 0.736326 0.000000 
0.500000 0.911551 0.000000 
0.561074 0.911568 0.000000 
0.562500 1.000000 0.000000 
0.558423 0.736379 0.000000 
0.559693 0.823672 0.000000 
0.500000 0.736368 0.000000 
0.687500 1.000000 0.000000 
0.622085 0.911620 0.000000 
0.682957 0.911701 0.000000 
0.555848 0.479311 0.000000 
0.500000 0.395802 0.000000 
0.671091 0.649664 0.000000 
0.612696 0.563957 0.000000 
0.500000 0.564079 0.000000 
0.556459 0.564051 0.000000 
0.557328 0.649793 0.000000 
0.678536 0.823813 0.000000 
0.616661 0.736406 0.000000 
0.674500 0.736416 0.000000 
0.437500 1.000000 0.000000 
0.438926 0.911568 0.000000 
0.317043 0.911701 0.000000 
0.377915 0.911620 0.000000 
0.312500 1.000000 0.000000 
0.440307 0.823672 0.000000 
0.441577 0.736379 0.000000 
0.079989 0.910582 0.000000 
0.136909 0.911741 0.000000 
0.062500 1.000000 0.000000 
0.268353 0.736326 0.000000 
0.204801 0.823770 0.000000 
0.212345 0.735928 0.000000 
0.187500 1.000000 0.000000 
0.196225 0.911868 0.000000 
0.256416 0.911799 0.000000 
0.444152 0.479311 0.000000 
0.444492 0.395746 0.000000 
0.442672 0.649793 0.000000 
0.443541 0.564051 0.000000 
0.331526 0.563753 0.000000 
0.387304 0.563957 0.000000 
0.328909 0.649664 0.000000 
0.321464 0.823813 0.000000 
0.325500 0.736416 0.000000 
0.383339 0.736406 0.000000 
0.031380 0.901501 0.000000 
0.095639 0.820449 0.000000 
0.113329 0.644579 0.000000 
0.106486 0.731613 0.000000 
0.056372 0.725534 0.000000 
0.158159 0.734715 0.000000 
0.218267 0.648739 0.000000 
0.115952 0.313499 0.000000 
0.117989 0.393812 0.000000 
0.063837 0.394971 0.000000 
0.225465 0.394329 0.000000 
0.171716 0.393854 0.000000 
0.224877 0.312554 0.000000 
0.064692 0.557351 0.000000 
0.118497 0.475746 0.000000 
0.117107 0.559317 0.000000 
0.389152 0.395575 0.000000 
0.444568 0.313532 0.000000 
0.276464 0.563346 0.000000 
0.333269 0.478891 0.000000 
0.334184 0.313098 0.000000 
0.334136 0.395278 0.000000 
0.279563 0.394852 0.000000 
0.169348 0.561251 0.000000 
0.224703 0.477714 0.000000 
0.222366 0.562578 0.000000 
0.057010 0.238222 0.000000 
0.112691 0.234823 0.000000 
0.103482 0.082585 0.000000 
0.108461 0.157827 0.000000 
0.046263 0.087491 0.000000 
0.168031 0.233143 0.000000 
0.223170 0.232494 0.000000 
0.086145 -0.131380 0.000000 
0.019351 -0.192076 0.000000 
0.213552 0.003610 0.000000 
0.150932 -0.066068 0.000000 
0.033201 -0.056427 0.000000 
0.092112 -0.062183 0.000000 
0.097963 0.009202 0.000000 
0.388883 0.232705 0.000000 
0.278286 0.232389 0.000000 
0.333506 0.232519 0.000000 
0.332223 0.153700 0.000000 
0.273929 0.077099 0.000000 
0.160499 0.079585 0.000000 
0.217297 0.077912 0.000000 
0.220572 0.154246 0.000000 
0.043612 -0.259131 0.000000 
0.077455 -0.230468 0.000000 
0.046687 -0.227609 0.000000 
0.138895 -0.235009 0.000000 
0.108199 -0.232932 0.000000 
0.105797 -0.264550 0.000000 
0.113363 -0.167435 0.000000 
0.110732 -0.200537 0.000000 
0.143494 -0.169392 0.000000 
0.260788 -0.240079 0.000000 
0.230474 -0.239217 0.000000 
0.229284 -0.271078 0.000000 
0.233500 -0.173264 0.000000 
0.231904 -0.206598 0.000000 
0.263353 -0.174028 0.000000 
0.167774 -0.268462 0.000000 
0.200048 -0.238113 0.000000 
0.169517 -0.236723 0.000000 
0.240561 -0.033479 0.000000 
0.238770 -0.069336 0.000000 
0.269505 -0.034018 0.000000 
0.175757 -0.137098 0.000000 
0.207519 -0.103721 0.000000 
0.178003 -0.102574 0.000000 
0.266368 -0.105264 0.000000 
0.236973 -0.104603 0.000000 
0.235205 -0.139255 0.000000 
0.171470 -0.204213 0.000000 
0.203570 -0.172265 0.000000 
0.173566 -0.170989 0.000000 
0.500000 -0.242194 0.000000 
0.470291 -0.242180 0.000000 
0.470222 -0.274330 0.000000 
0.470544 -0.175754 0.000000 
0.470403 -0.209315 0.000000 
0.500000 -0.175766 0.000000 
0.410563 -0.274133 0.000000 
0.440564 -0.242123 0.000000 
0.410797 -0.242015 0.000000 
0.471238 -0.034989 0.000000 
0.471058 -0.071111 0.000000 
0.500000 -0.034991 0.000000 
0.412076 -0.141419 0.000000 
0.441749 -0.106603 0.000000 
0.412604 -0.106551 0.000000 
0.500000 -0.106636 0.000000 
0.470878 -0.106628 0.000000 
0.470705 -0.141517 0.000000 
0.290225 -0.272706 0.000000 
0.321080 -0.241230 0.000000 
0.290989 -0.240737 0.000000 
0.380971 -0.241843 0.000000 
0.351071 -0.241589 0.000000 
0.350616 -0.273645 0.000000 
0.352473 -0.175307 0.000000 
0.351707 -0.208800 0.000000 
0.382053 -0.175506 0.000000 
0.441077 -0.175713 0.000000 
0.411583 -0.175635 0.000000 
[...]
POINT_DATA 16641

SCALARS u_h float 2
LOOKUP_TABLE default
0.012564 -0.255922 
-0.012564 -0.255922 
0.000000 0.000000 
0.000000 0.000000 
-0.000000 -0.274334 
-0.061010 -0.184105 
0.000000 0.000000 
0.061010 -0.184105 
-0.000000 -0.186420 
0.009827 -0.271996 
-0.000000 -0.248284 
0.021043 -0.247525 
-0.009827 -0.271996 
-0.021043 -0.247525 
-0.039926 -0.235388 
-0.029397 -0.187210 
-0.061967 -0.109328 
-0.023019 -0.100605 
0.000000 0.000000 
-0.000000 -0.100200 
0.000000 0.000000 
0.023019 -0.100605 
0.061967 -0.109328 
0.029397 -0.187210 
0.039926 -0.235388 
0.011832 -0.266686 
0.014828 -0.264969 
0.020938 -0.260566 
-0.000000 -0.266527 
0.007721 -0.266309 
0.005636 -0.273933 
0.013093 -0.221227 
0.010632 -0.248242 
-0.000000 -0.221097 
-0.005636 -0.273933 
-0.007721 -0.266309 
-0.020938 -0.260566 
-0.014828 -0.264969 
-0.011832 -0.266686 
-0.010632 -0.248242 
-0.013093 -0.221227 
-0.026280 -0.250424 
-0.030862 -0.244293 
-0.045480 -0.187363 
-0.039628 -0.219568 
-0.052022 -0.212936 
-0.026403 -0.221218 
-0.014260 -0.186638 
-0.065170 -0.149537 
-0.046449 -0.148258 
-0.023574 -0.051900 
-0.040038 -0.102700 
-0.046891 -0.062785 
-0.028627 -0.146572 
-0.013507 -0.145833 
0.000000 0.000000 
-0.012689 -0.051130 
0.000000 -0.051348 
-0.005744 -0.051269 
0.000000 0.000000 
-0.010560 -0.100237 
-0.000000 -0.145643 
0.000000 0.000000 
0.005744 -0.051269 
0.023574 -0.051900 
0.012689 -0.051130 
0.000000 0.000000 
0.010560 -0.100237 
0.013507 -0.145833 
0.046891 -0.062785 
0.040038 -0.102700 
0.045480 -0.187363 
0.046449 -0.148258 
0.065170 -0.149537 
0.028627 -0.146572 
0.014260 -0.186638 
0.052022 -0.212936 
0.039628 -0.219568 
0.030862 -0.244293 
0.026280 -0.250424 
0.026403 -0.221218 
0.012207 -0.262032 
0.016133 -0.265056 
0.017784 -0.260627 
0.011988 -0.269910 
0.014230 -0.268046 
0.011097 -0.269913 
0.022048 -0.256021 
0.018014 -0.263312 
0.017938 -0.257438 
-0.000000 -0.271829 
0.003292 -0.271767 
0.002917 -0.274261 
0.004609 -0.258593 
0.003901 -0.266484 
-0.000000 -0.258616 
0.007984 -0.273245 
0.006458 -0.271525 
0.009384 -0.270976 
0.006900 -0.204653 
0.006525 -0.221135 
-0.000000 -0.204604 
0.015886 -0.248052 
0.011977 -0.235765 
0.017969 -0.235709 
-0.000000 -0.235717 
0.005985 -0.235736 
0.005327 -0.248282 
0.011384 -0.265874 
0.009170 -0.258484 
0.013630 -0.258166 
-0.002917 -0.274261 
-0.003292 -0.271767 
-0.009384 -0.270976 
-0.006458 -0.271525 
-0.007984 -0.273245 
-0.003901 -0.266484 
-0.004609 -0.258593 
-0.017784 -0.260627 
-0.016133 -0.265056 
-0.012207 -0.262032 
-0.017938 -0.257438 
-0.018014 -0.263312 
-0.022048 -0.256021 
-0.011097 -0.269913 
-0.014230 -0.268046 
-0.011988 -0.269910 
-0.006525 -0.221135 
-0.006900 -0.204653 
-0.005327 -0.248282 
-0.005985 -0.235736 
-0.017969 -0.235709 
-0.011977 -0.235765 
-0.015886 -0.248052 
-0.011384 -0.265874 
-0.013630 -0.258166 
-0.009170 -0.258484 
-0.019351 -0.254576 
-0.023645 -0.256380 
-0.035463 -0.240798 
-0.029612 -0.249683 
-0.033201 -0.243927 
-0.025932 -0.253568 
-0.026052 -0.246390 
-0.053452 -0.186501 
-0.050191 -0.202677 
-0.057010 -0.199278 
-0.035670 -0.205006 
-0.043031 -0.204357 
-0.037377 -0.187446 
-0.046263 -0.225009 
-0.045961 -0.217173 
-0.040982 -0.229915 
-0.013883 -0.204795 
-0.007068 -0.186468 
-0.023929 -0.235401 
-0.019723 -0.221300 
-0.021684 -0.186902 
-0.021006 -0.204981 
-0.028286 -0.205111 
-0.035499 -0.232915 
-0.033072 -0.220754 
-0.029797 -0.234588 
-0.063837 -0.167529 
-0.055489 -0.168688 
-0.054607 -0.128183 
-0.055997 -0.149254 
-0.064692 -0.130149 
-0.046716 -0.168646 
-0.037965 -0.168171 
-0.017489 -0.026918 
-0.033139 -0.054551 
-0.031380 -0.035999 
-0.030767 -0.101261 
-0.033159 -0.077785 
-0.024845 -0.076572 
-0.056372 -0.086966 
-0.043986 -0.080887 
-0.050829 -0.105421 
-0.014152 -0.166925 
-0.006992 -0.166754 
-0.029563 -0.167648 
-0.021636 -0.167222 
-0.019026 -0.123747 
-0.020769 -0.146109 
-0.026464 -0.124154 
-0.044348 -0.126249 
-0.034866 -0.124922 
-0.037203 -0.147286 
0.000000 0.000000 
-0.011909 -0.025759 
-0.006416 -0.025701 
-0.008725 -0.025632 
0.000000 0.000000 
-0.017301 -0.051230 
-0.018353 -0.076174 
0.000000 -0.025949 
-0.001426 -0.025932 
0.000000 0.000000 
-0.004077 -0.076121 
-0.002807 -0.051328 
0.000000 -0.076132 
0.000000 0.000000 
-0.002915 -0.025880 
-0.004543 -0.025799 
-0.006652 -0.145689 
-0.000000 -0.166698 
-0.016409 -0.100336 
-0.012304 -0.123543 
-0.000000 -0.123421 
-0.006041 -0.123449 
-0.005172 -0.100207 
-0.008964 -0.051187 
-0.008339 -0.076094 
-0.013000 -0.076084 
0.000000 0.000000 
0.001426 -0.025932 
0.004543 -0.025799 
0.002915 -0.025880 
0.000000 0.000000 
0.002807 -0.051328 
0.004077 -0.076121 
0.017489 -0.026918 
0.011909 -0.025759 
0.000000 0.000000 
0.018353 -0.076174 
0.017301 -0.051230 
0.024845 -0.076572 
0.000000 0.000000 
0.008725 -0.025632 
0.006416 -0.025701 
0.006652 -0.145689 
0.006992 -0.166754 
0.005172 -0.100207 
0.006041 -0.123449 
0.019026 -0.123747 
0.012304 -0.123543 
0.016409 -0.100336 
0.008964 -0.051187 
0.013000 -0.076084 
0.008339 -0.076094 
0.031380 -0.035999 
0.033139 -0.054551 
0.050829 -0.105421 
0.043986 -0.080887 
0.056372 -0.086966 
0.033159 -0.077785 
0.030767 -0.101261 
0.053452 -0.186501 
0.055489 -0.168688 
0.063837 -0.167529 
0.037965 -0.168171 
0.046716 -0.168646 
0.037377 -0.187446 
0.064692 -0.130149 
0.055997 -0.149254 
0.054607 -0.128183 
0.014152 -0.166925 
0.007068 -0.186468 
0.026464 -0.124154 
0.020769 -0.146109 
0.021684 -0.186902 
0.021636 -0.167222 
0.029563 -0.167648 
0.044348 -0.126249 
0.037203 -0.147286 
0.034866 -0.124922 
0.057010 -0.199278 
0.050191 -0.202677 
0.040982 -0.229915 
0.045961 -0.217173 
0.046263 -0.225009 
0.043031 -0.204357 
0.035670 -0.205006 
0.023645 -0.256380 
0.019351 -0.254576 
0.026052 -0.246390 
0.025932 -0.253568 
0.033201 -0.243927 
0.029612 -0.249683 
0.035463 -0.240798 
0.013883 -0.204795 
0.028286 -0.205111 
0.021006 -0.204981 
0.019723 -0.221300 
0.023929 -0.235401 
0.035499 -0.232915 
0.029797 -0.234588 
0.033072 -0.220754 
0.012362 -0.259131 
0.014955 -0.261718 
0.015437 -0.258859 
0.013895 -0.266259 
0.014449 -0.264182 
0.012047 -0.264550 
0.019613 -0.261185 
0.016982 -0.263037 
0.018494 -0.263142 
0.010788 -0.271329 
0.011724 -0.270467 
0.010534 -0.271078 
0.014750 -0.267014 
0.013154 -0.269098 
0.013353 -0.267778 
0.011524 -0.268462 
0.012548 -0.269363 
0.013267 -0.267973 
0.021811 -0.252229 
0.020020 -0.256836 
0.019505 -0.252768 
0.019507 -0.262098 
0.020019 -0.259971 
0.021753 -0.258824 
0.016368 -0.261514 
0.018223 -0.260853 
0.016455 -0.264255 
0.015220 -0.266713 
0.016070 -0.266015 
0.017316 -0.264739 
-0.000000 -0.273444 
0.001541 -0.273430 
0.001472 -0.274330 
0.001794 -0.269504 
0.001653 -0.271815 
-0.000000 -0.269516 
0.004313 -0.274133 
0.003064 -0.273373 
0.004547 -0.273265 
0.002488 -0.253739 
0.002308 -0.258611 
-0.000000 -0.253741 
0.005826 -0.266419 
0.004249 -0.262853 
0.006354 -0.262801 
-0.000000 -0.262886 
0.002128 -0.262878 
0.001955 -0.266517 
0.008975 -0.272706 
0.008580 -0.272480 
0.009739 -0.271987 
0.005971 -0.273093 
0.007321 -0.272839 
0.006866 -0.273645 
0.008723 -0.269057 
0.007957 -0.271300 
0.007053 -0.269256 
0.003577 -0.269463 
0.005333 -0.269385 
0.004898 -0.271675 
0.003499 -0.195722 
0.003444 -0.204616 
-0.000000 -0.195711 
0.009802 -0.221177 
0.006736 -0.213118 
0.010124 -0.213171 
-0.000000 -0.213074 
0.003364 -0.213084 
0.003260 -0.221107 
0.018479 -0.247845 
0.016959 -0.242148 
0.019754 -0.241990 
0.011327 -0.242272 
0.014148 -0.242234 
0.013268 -0.248175 
0.015730 -0.228762 
0.014974 -0.235756 
0.012570 -0.228743 
-0.000000 -0.242269 
0.002834 -0.242271 
0.002665 -0.248284 
0.003135 -0.228660 
0.002992 -0.235722 
-0.000000 -0.228653 
0.007984 -0.248272 
0.005667 -0.242277 
0.008499 -0.242281 
0.009417 -0.228712 
0.008980 -0.235754 
0.006273 -0.228681 
0.010730 -0.270523 
0.009576 -0.266135 
0.010335 -0.268764 
0.011880 -0.268349 
0.013136 -0.265496 
0.004972 -0.253729 
0.009908 -0.253653 
0.007447 -0.253704 
0.006899 -0.258555 
0.008434 -0.262710 
0.017156 -0.253145 
0.014456 -0.261994 
0.015806 -0.257869 
0.014769 -0.253398 
0.012351 -0.253558 
0.010483 -0.262562 
0.011416 -0.258362 
0.012493 -0.262333 
-0.001472 -0.274330 
-0.001541 -0.273430 
-0.004547 -0.273265 
-0.003064 -0.273373 
-0.004313 -0.274133 
-0.001653 -0.271815 
-0.001794 -0.269504 
-0.009739 -0.271987 
-0.008580 -0.272480 
-0.008975 -0.272706 
-0.007053 -0.269256 
-0.007957 -0.271300 
-0.008723 -0.269057 
-0.006866 -0.273645 
-0.007321 -0.272839 
-0.005971 -0.273093 
-0.002308 -0.258611 
-0.002488 -0.253739 
-0.001955 -0.266517 
-0.002128 -0.262878 
-0.006354 -0.262801 
-0.004249 -0.262853 
-0.005826 -0.266419 
-0.004898 -0.271675 
-0.005333 -0.269385 
-0.003577 -0.269463 
-0.015437 -0.258859 
-0.014955 -0.261718 
-0.012362 -0.259131 
-0.018494 -0.263142 
-0.016982 -0.263037 
-0.019613 -0.261185 
-0.012047 -0.264550 
-0.014449 -0.264182 
-0.013895 -0.266259 
-0.019505 -0.252768 
-0.020020 -0.256836 
-0.021811 -0.252229 
-0.016455 -0.264255 
-0.018223 -0.260853 
-0.016368 -0.261514 
-0.021753 -0.258824 
-0.020019 -0.259971 
-0.019507 -0.262098 
-0.010534 -0.271078 
-0.011724 -0.270467 
-0.010788 -0.271329 
-0.013267 -0.267973 
-0.012548 -0.269363 
-0.011524 -0.268462 
-0.013353 -0.267778 
-0.013154 -0.269098 
-0.014750 -0.267014 
-0.017316 -0.264739 
-0.016070 -0.266015 
-0.015220 -0.266713 
-0.003444 -0.204616 
-0.003499 -0.195722 
-0.003260 -0.221107 
-0.003364 -0.213084 
-0.010124 -0.213171 
-0.006736 -0.213118 
-0.009802 -0.221177 
-0.002665 -0.248284 
-0.002834 -0.242271 
-0.008499 -0.242281 
-0.005667 -0.242277 
-0.007984 -0.248272 
-0.002992 -0.235722 
-0.003135 -0.228660 
-0.019754 -0.241990 
-0.016959 -0.242148 
-0.018479 -0.247845 
-0.012570 -0.228743 
-0.014974 -0.235756 
-0.015730 -0.228762 
-0.013268 -0.248175 
-0.014148 -0.242234 
-0.011327 -0.242272 
-0.006273 -0.228681 
-0.008980 -0.235754 
-0.009417 -0.228712 
-0.010730 -0.270523 
-0.013136 -0.265496 
-0.011880 -0.268349 
-0.010335 -0.268764 
-0.009576 -0.266135 
-0.017156 -0.253145 
-0.012351 -0.253558 
-0.014769 -0.253398 
-0.015806 -0.257869 
-0.014456 -0.261994 
-0.004972 -0.253729 
-0.008434 -0.262710 
-0.006899 -0.258555 
-0.007447 -0.253704 
-0.009908 -0.253653 
-0.012493 -0.262333 
-0.011416 -0.258362 
-0.010483 -0.262562 
-0.015929 -0.255633 
-0.018562 -0.257808 
-0.024956 -0.253644 
-0.021740 -0.256050 
-0.022806 -0.252818 
-0.020688 -0.258830 
-0.022312 -0.258674 
-0.037703 -0.238368 
-0.034586 -0.242970 
-0.036600 -0.239898 
-0.030515 -0.247558 
-0.032566 -0.245501 
-0.033187 -0.242751 
-0.029753 -0.247446 
-0.031405 -0.247068 
-0.028187 -0.250637 
-0.024068 -0.251486 
-0.023569 -0.247053 
-0.023428 -0.257364 
-0.024018 -0.254948 
-0.028484 -0.245487 
-0.026272 -0.250495 
-0.028420 -0.249203 
-0.026629 -0.253319 
-0.027793 -0.251831 
-0.025049 -0.255545 
-0.057299 -0.185557 
-0.055607 -0.193595 
-0.059149 -0.191880 
-0.048210 -0.195591 
-0.051957 -0.194795 
-0.049501 -0.187069 
-0.054625 -0.206300 
-0.053647 -0.201242 
-0.051444 -0.208490 
-0.032783 -0.196444 
-0.036649 -0.196446 
-0.033360 -0.187348 
-0.041434 -0.212190 
-0.039364 -0.204775 
-0.037970 -0.212758 
-0.041427 -0.187467 
-0.040526 -0.196342 
-0.044390 -0.196079 
-0.043155 -0.230419 
-0.043642 -0.227740 
-0.040729 -0.233285 
-0.049024 -0.215330 
-0.046415 -0.221751 
-0.049227 -0.219177 
-0.040627 -0.225319 
-0.043552 -0.223769 
-0.042828 -0.218558 
-0.046647 -0.203684 
-0.044844 -0.211343 
-0.048183 -0.210139 
-0.007012 -0.195763 
-0.003526 -0.186425 
-0.013534 -0.213237 
-0.010377 -0.204715 
-0.010641 -0.186539 
-0.010551 -0.195830 
-0.014128 -0.195922 
-0.022526 -0.241729 
-0.020956 -0.235600 
-0.023060 -0.221290 
-0.022065 -0.228694 
-0.025229 -0.228558 
-0.018896 -0.228753 
-0.016400 -0.221273 
-0.025503 -0.187056 
-0.025162 -0.196272 
-0.028949 -0.196377 
-0.017751 -0.196031 
-0.021428 -0.196152 
-0.017938 -0.186761 
-0.027430 -0.213397 
-0.024628 -0.205061 
-0.023921 -0.213407 
-0.016969 -0.213308 
-0.020432 -0.213370 
-0.017424 -0.204887 
-0.038277 -0.235596 
-0.037641 -0.226480 
-0.038269 -0.231614 
-0.035780 -0.237430 
-0.033231 -0.238858 
-0.031971 -0.205103 
-0.029745 -0.221052 
-0.030950 -0.213311 
-0.034469 -0.213113 
-0.036371 -0.220278 
-0.025267 -0.241330 
-0.030626 -0.239945 
-0.027970 -0.240751 
-0.026879 -0.235078 
-0.028379 -0.228313 
-0.034597 -0.227325 
-0.031506 -0.227918 
-0.032673 -0.233886 
-0.062597 -0.175998 
-0.058690 -0.177132 
-0.060418 -0.159131 
-0.059742 -0.168323 
-0.064707 -0.158708 
-0.054641 -0.177798 
-0.050485 -0.178124 
-0.058446 -0.118476 
-0.059750 -0.129238 
-0.063644 -0.119922 
-0.051223 -0.148784 
-0.055567 -0.138925 
-0.050587 -0.138176 
-0.065182 -0.140018 
-0.060472 -0.139594 
-0.060677 -0.149556 
-0.037825 -0.178016 
-0.033676 -0.177829 
-0.046267 -0.178217 
-0.042032 -0.178160 
-0.042232 -0.158290 
-0.042312 -0.168431 
-0.046790 -0.158658 
-0.055955 -0.159174 
-0.051387 -0.158979 
-0.051127 -0.168759 
-0.011371 -0.014339 
-0.022895 -0.029288 
-0.019460 -0.020726 
-0.027804 -0.052808 
-0.025903 -0.040810 
-0.021304 -0.039428 
-0.040124 -0.049813 
-0.032282 -0.043841 
-0.039703 -0.057713 
-0.026725 -0.100865 
-0.028030 -0.089024 
-0.024252 -0.088687 
-0.036937 -0.090395 
-0.032236 -0.089563 
-0.035195 -0.101850 
-0.024675 -0.064296 
-0.028723 -0.077026 
-0.028692 -0.064926 
-0.059579 -0.098352 
-0.053770 -0.095665 
-0.056484 -0.107293 
-0.045567 -0.070929 
-0.050184 -0.083559 
-0.052208 -0.075132 
-0.045281 -0.103878 
-0.047843 -0.093381 
-0.042161 -0.091634 
-0.033469 -0.066043 
-0.038245 -0.079010 
-0.039130 -0.067937 
-0.007062 -0.176791 
-0.003522 -0.176748 
-0.014270 -0.176965 
-0.010639 -0.176863 
-0.010342 -0.156445 
-0.010541 -0.166824 
-0.013899 -0.156540 
-0.029609 -0.177628 
-0.025635 -0.177432 
-0.025203 -0.157039 
-0.025540 -0.167420 
-0.029242 -0.157289 
-0.021757 -0.177252 
-0.017972 -0.177096 
-0.021249 -0.112299 
-0.022639 -0.123917 
-0.024901 -0.112506 
-0.017075 -0.145952 
-0.020009 -0.135072 
-0.016423 -0.134930 
-0.027704 -0.135519 
-0.023760 -0.135264 
-0.024613 -0.146313 
-0.017845 -0.167058 
-0.021310 -0.156834 
-0.017547 -0.156669 
-0.053053 -0.117018 
-0.042493 -0.114659 
-0.047678 -0.115720 
-0.049425 -0.127154 
-0.045651 -0.137452 
-0.028821 -0.112808 
-0.031862 -0.135852 
-0.030532 -0.124481 
-0.033045 -0.113239 
-0.037601 -0.113842 
-0.033708 -0.167902 
-0.041757 -0.147746 
-0.037767 -0.157923 
-0.033431 -0.157585 
-0.032823 -0.146895 
-0.039477 -0.125505 
-0.036245 -0.136280 
-0.040850 -0.136813 
0.000000 0.000000 
-0.008457 -0.013234 
-0.005845 -0.012822 
-0.006911 -0.012921 
0.000000 0.000000 
-0.014193 -0.026076 
-0.017912 -0.038809 
-0.003198 -0.012883 
-0.003729 -0.012849 
0.000000 0.000000 
-0.011232 -0.038427 
-0.007498 -0.025658 
-0.009600 -0.038453 
0.000000 0.000000 
-0.004326 -0.012819 
-0.005016 -0.012804 
-0.021421 -0.076313 
-0.020829 -0.088483 
-0.020153 -0.051444 
-0.021249 -0.063957 
-0.015625 -0.063713 
-0.018269 -0.063786 
-0.014849 -0.051145 
-0.010159 -0.025649 
-0.013089 -0.038442 
-0.015264 -0.038541 
0.000000 -0.013040 
-0.000355 -0.013038 
0.000000 0.000000 
-0.001057 -0.038715 
-0.000709 -0.025945 
0.000000 -0.038720 
0.000000 0.000000 
-0.000715 -0.013030 
-0.001081 -0.013017 
-0.002313 -0.088263 
-0.002027 -0.076130 
-0.000000 -0.088263 
-0.004251 -0.051302 
-0.003460 -0.063805 
-0.005240 -0.063785 
0.000000 -0.063822 
-0.001721 -0.063818 
-0.001396 -0.051343 
0.000000 0.000000 
-0.002271 -0.012949 
-0.002716 -0.012917 
-0.001460 -0.012999 
-0.001854 -0.012976 
0.000000 0.000000 
-0.005532 -0.038596 
-0.003706 -0.025843 
-0.004350 -0.038639 
-0.002126 -0.038700 
-0.003220 -0.038674 
-0.002159 -0.025910 
-0.003486 -0.166712 
-0.000000 -0.176735 
-0.010041 -0.145747 
-0.006856 -0.156379 
-0.000000 -0.156327 
-0.003416 -0.156340 
-0.003313 -0.145655 
-0.019598 -0.100439 
-0.017824 -0.112159 
-0.011497 -0.112006 
-0.014585 -0.112066 
-0.013410 -0.100273 
-0.015592 -0.123627 
-0.012975 -0.134826 
-0.000000 -0.111926 
-0.002805 -0.111930 
-0.002573 -0.100202 
-0.003177 -0.134677 
-0.003007 -0.123429 
-0.000000 -0.134667 
-0.007825 -0.100218 
-0.005637 -0.111943 
-0.008525 -0.111967 
-0.009637 -0.134753 
-0.009130 -0.123486 
-0.006380 -0.134705 
-0.005440 -0.025750 
-0.007307 -0.051229 
-0.006785 -0.038548 
-0.008131 -0.038498 
-0.010745 -0.051151 
-0.004650 -0.088261 
-0.009504 -0.088260 
-0.007038 -0.088258 
-0.006173 -0.076108 
-0.007080 -0.063758 
-0.017696 -0.088365 
-0.013238 -0.063694 
-0.015567 -0.076108 
-0.014795 -0.088302 
-0.012078 -0.088272 
-0.009006 -0.063730 
-0.010603 -0.076083 
-0.011046 -0.063705 
0.000000 0.000000 
0.000355 -0.013038 
0.001081 -0.013017 
0.000715 -0.013030 
0.000000 0.000000 
0.000709 -0.025945 
0.001057 -0.038715 
0.002716 -0.012917 
0.002271 -0.012949 
0.000000 0.000000 
0.004350 -0.038639 
0.003706 -0.025843 
0.005532 -0.038596 
0.000000 0.000000 
0.001854 -0.012976 
0.001460 -0.012999 
0.002027 -0.076130 
0.002313 -0.088263 
0.001396 -0.051343 
0.001721 -0.063818 
0.005240 -0.063785 
0.003460 -0.063805 
0.004251 -0.051302 
0.002159 -0.025910 
0.003220 -0.038674 
0.002126 -0.038700 
0.011371 -0.014339 
0.008457 -0.013234 
0.000000 0.000000 
0.017912 -0.038809 
0.014193 -0.026076 
0.021304 -0.039428 
0.000000 0.000000 
0.006911 -0.012921 
0.005845 -0.012822 
0.020829 -0.088483 
0.021421 -0.076313 
0.024252 -0.088687 
0.014849 -0.051145 
0.018269 -0.063786 
0.015625 -0.063713 
0.024675 -0.064296 
0.021249 -0.063957 
0.020153 -0.051444 
0.000000 0.000000 
0.003729 -0.012849 
0.003198 -0.012883 
0.005016 -0.012804 
0.004326 -0.012819 
0.000000 0.000000 
0.009600 -0.038453 
0.007498 -0.025658 
0.011232 -0.038427 
0.015264 -0.038541 
0.013089 -0.038442 
0.010159 -0.025649 
0.003486 -0.166712 
0.003522 -0.176748 
0.003313 -0.145655 
0.003416 -0.156340 
0.010342 -0.156445 
0.006856 -0.156379 
0.010041 -0.145747 
0.002573 -0.100202 
0.002805 -0.111930 
0.008525 -0.111967 
0.005637 -0.111943 
0.007825 -0.100218 
0.003007 -0.123429 
0.003177 -0.134677 
0.021249 -0.112299 
0.017824 -0.112159 
0.019598 -0.100439 
0.012975 -0.134826 
0.015592 -0.123627 
0.016423 -0.134930 
0.013410 -0.100273 
0.014585 -0.112066 
0.011497 -0.112006 
0.006380 -0.134705 
0.009130 -0.123486 
0.009637 -0.134753 
0.005440 -0.025750 
0.010745 -0.051151 
0.008131 -0.038498 
0.006785 -0.038548 
0.007307 -0.051229 
0.017696 -0.088365 
0.012078 -0.088272 
0.014795 -0.088302 
0.015567 -0.076108 
0.013238 -0.063694 
0.004650 -0.088261 
0.007080 -0.063758 
0.006173 -0.076108 
0.007038 -0.088258 
0.009504 -0.088260 
0.011046 -0.063705 
0.010603 -0.076083 
0.009006 -0.063730 
0.019460 -0.020726 
0.022895 -0.029288 
0.039703 -0.057713 
0.032282 -0.043841 
0.040124 -0.049813 
0.025903 -0.040810 
0.027804 -0.052808 
0.056484 -0.107293 
0.053770 -0.095665 
0.059579 -0.098352 
0.042161 -0.091634 
0.047843 -0.093381 
0.045281 -0.103878 
0.052208 -0.075132 
0.050184 -0.083559 
0.045567 -0.070929 
0.028030 -0.089024 
0.026725 -0.100865 
0.028692 -0.064926 
0.028723 -0.077026 
0.035195 -0.101850 
0.032236 -0.089563 
0.036937 -0.090395 
0.039130 -0.067937 
0.038245 -0.079010 
0.033469 -0.066043 
0.057299 -0.185557 
0.058690 -0.177132 
0.062597 -0.175998 
0.050485 -0.178124 
0.054641 -0.177798 
0.049501 -0.187069 
0.064707 -0.158708 
0.059742 -0.168323 
0.060418 -0.159131 
0.033676 -0.177829 
0.037825 -0.178016 
0.033360 -0.187348 
0.046790 -0.158658 
0.042312 -0.168431 
0.042232 -0.158290 
0.041427 -0.187467 
0.042032 -0.178160 
0.046267 -0.178217 
0.063644 -0.119922 
0.059750 -0.129238 
0.058446 -0.118476 
0.060677 -0.149556 
0.060472 -0.139594 
0.065182 -0.140018 
0.050587 -0.138176 
0.055567 -0.138925 
0.051223 -0.148784 
0.051127 -0.168759 
0.051387 -0.158979 
0.055955 -0.159174 
0.007062 -0.176791 
0.003526 -0.186425 
0.013899 -0.156540 
0.010541 -0.166824 
0.010641 -0.186539 
0.010639 -0.176863 
0.014270 -0.176965 
0.024901 -0.112506 
0.022639 -0.123917 
0.024613 -0.146313 
0.023760 -0.135264 
0.027704 -0.135519 
0.020009 -0.135072 
0.017075 -0.145952 
0.025503 -0.187056 
0.025635 -0.177432 
0.029609 -0.177628 
0.017972 -0.177096 