# vtk DataFile Version 2.0
Unstructured Grid Example
ASCII
DATASET UNSTRUCTURED_GRID

POINTS 128 float
0.000000 0.000000 0.000000 
0.015625 0.000000 0.000000 
0.015625 0.000000 0.000000 
0.031250 0.000000 0.000000 
0.031250 0.000000 0.000000 
0.046875 0.000000 0.000000 
0.046875 0.000000 0.000000 
0.062500 0.000000 0.000000 
0.093750 0.000000 0.000000 
0.109375 0.000000 0.000000 
0.109375 0.000000 0.000000 
0.125000 0.000000 0.000000 
0.062500 0.000000 0.000000 
0.078125 0.000000 0.000000 
0.078125 0.000000 0.000000 
0.093750 0.000000 0.000000 
0.218750 0.000000 0.000000 
0.234375 0.000000 0.000000 
0.234375 0.000000 0.000000 
0.250000 0.000000 0.000000 
0.187500 0.000000 0.000000 
0.203125 0.000000 0.000000 
0.203125 0.000000 0.000000 
0.218750 0.000000 0.000000 
0.125000 0.000000 0.000000 
0.140625 0.000000 0.000000 
0.140625 0.000000 0.000000 
0.156250 0.000000 0.000000 
0.156250 0.000000 0.000000 
0.171875 0.000000 0.000000 
0.171875 0.000000 0.000000 
0.187500 0.000000 0.000000 
0.468750 -2.415008 0.000000 
0.484375 -2.389581 0.000000 
0.484375 -2.424010 0.000000 
0.500000 -2.346149 0.000000 
0.437500 -2.471845 0.000000 
0.453125 -2.398277 0.000000 
0.453125 -2.439067 0.000000 
0.468750 -2.390265 0.000000 
0.375000 -2.747070 0.000000 
0.390625 -2.507666 0.000000 
0.390625 -2.647891 0.000000 
0.406250 -2.466620 0.000000 
0.406250 -2.572712 0.000000 
0.421875 -2.435707 0.000000 
0.421875 -2.515428 0.000000 
0.437500 -2.413269 0.000000 
0.250000 3.747871 0.000000 
0.265625 -7.495741 0.000000 
0.265625 -3.492979 0.000000 
0.281250 -4.257654 0.000000 
0.281250 -4.335739 0.000000 
0.296875 -3.336809 0.000000 
0.296875 -3.984808 0.000000 
0.312500 -3.039742 0.000000 
0.343750 -3.056041 0.000000 
0.359375 -2.631713 0.000000 
0.359375 -2.879043 0.000000 
0.375000 -2.561381 0.000000 
0.312500 -3.605478 0.000000 
0.328125 -2.853334 0.000000 
0.328125 -3.293500 0.000000 
0.343750 -2.725147 0.000000 
0.500000 -2.345839 0.000000 
0.515625 -2.424630 0.000000 
0.515625 -2.389527 0.000000 
0.531250 -2.416046 0.000000 
0.531250 -2.390547 0.000000 
0.546875 -2.440524 0.000000 
0.546875 -2.398914 0.000000 
0.562500 -2.473766 0.000000 
0.593750 -2.468530 0.000000 
0.609375 -2.651611 0.000000 
0.609375 -2.510148 0.000000 
0.625000 -2.751456 0.000000 
0.562500 -2.414284 0.000000 
0.578125 -2.517880 0.000000 
0.578125 -2.437138 0.000000 
0.593750 -2.575766 0.000000 
0.718750 -4.292199 0.000000 
0.734375 -3.382088 0.000000 
0.734375 -7.370917 0.000000 
0.750000 3.685459 0.000000 
0.687500 -3.047260 0.000000 
0.703125 -3.972467 0.000000 
0.703125 -3.339301 0.000000 
0.718750 -4.313593 0.000000 
0.625000 -2.564573 0.000000 
0.640625 -2.883913 0.000000 
0.640625 -2.635812 0.000000 
0.656250 -3.060774 0.000000 
0.656250 -2.730415 0.000000 
0.671875 -3.296530 0.000000 
0.671875 -2.859988 0.000000 
0.687500 -3.603499 0.000000 
0.968750 0.000000 0.000000 
0.984375 0.000000 0.000000 
0.984375 0.000000 0.000000 
1.000000 0.000000 0.000000 
0.937500 0.000000 0.000000 
0.953125 0.000000 0.000000 
0.953125 0.000000 0.000000 
0.968750 0.000000 0.000000 
0.875000 0.000000 0.000000 
0.890625 0.000000 0.000000 
0.890625 0.000000 0.000000 
0.906250 0.000000 0.000000 
0.906250 0.000000 0.000000 
0.921875 0.000000 0.000000 
0.921875 0.000000 0.000000 
0.937500 0.000000 0.000000 
0.750000 0.000000 0.000000 
0.765625 0.000000 0.000000 
0.765625 0.000000 0.000000 
0.781250 0.000000 0.000000 
0.781250 0.000000 0.000000 
0.796875 0.000000 0.000000 
0.796875 0.000000 0.000000 
0.812500 0.000000 0.000000 
0.843750 0.000000 0.000000 
0.859375 0.000000 0.000000 
0.859375 0.000000 0.000000 
0.875000 0.000000 0.000000 
0.812500 0.000000 0.000000 
0.828125 0.000000 0.000000 
0.828125 0.000000 0.000000 
0.843750 0.000000 0.000000 

CELLS 64 192
2  0 1 
2  2 3 
2  4 5 
2  6 7 
2  8 9 
2  10 11 
2  12 13 
2  14 15 
2  16 17 
2  18 19 
2  20 21 
2  22 23 
2  24 25 
2  26 27 
2  28 29 
2  30 31 
2  32 33 
2  34 35 
2  36 37 
2  38 39 
2  40 41 
2  42 43 
2  44 45 
2  46 47 
2  48 49 
2  50 51 
2  52 53 
2  54 55 
2  56 57 
2  58 59 
2  60 61 
2  62 63 
2  64 65 
2  66 67 
2  68 69 
2  70 71 
2  72 73 
2  74 75 
2  76 77 
2  78 79 
2  80 81 
2  82 83 
2  84 85 
2  86 87 
2  88 89 
2  90 91 
2  92 93 
2  94 95 
2  96 97 
2  98 99 
2  100 101 
2  102 103 
2  104 105 
2  106 107 
2  108 109 
2  110 111 
2  112 113 
2  114 115 
2  116 117 
2  118 119 
2  120 121 
2  122 123 
2  124 125 
2  126 127 

CELL_TYPES 64
3
3
3
3
3
3
3
3
3
3
3
3
3
3
3
3
3
3
3
3
3
3
3
3
3
3
3
3
3
3
3
3
3
3
3
3
3
3
3
3
3
3
3
3
3
3
3
3
3
3
3
3
3
3
3
3
3
3
3
3
3
3
3
3

POINT_DATA 128

SCALARS lambda_h float 1
LOOKUP_TABLE default
0.000000 
0.000000 
0.000000 
0.000000 
0.000000 
0.000000 
0.000000 
0.000000 
0.000000 
0.000000 
0.000000 
0.000000 
0.000000 
0.000000 
0.000000 
0.000000 
0.000000 
0.000000 
0.000000 
0.000000 
0.000000 
0.000000 
0.000000 
0.000000 
0.000000 
0.000000 
0.000000 
0.000000 
0.000000 
0.000000 
0.000000 
0.000000 
-2.415008 
-2.389581 
-2.424010 
-2.346149 
-2.471845 
-2.398277 
-2.439067 
-2.390265 
-2.747070 
-2.507666 
-2.647891 
-2.466620 
-2.572712 
-2.435707 
-2.515428 
-2.413269 
3.747871 
-7.495741 
-3.492979 
-4.257654 
-4.335739 
-3.336809 
-3.984808 
-3.039742 
-3.056041 
-2.631713 
-2.879043 
-2.561381 
-3.605478 
-2.853334 
-3.293500 
-2.725147 
-2.345839 
-2.424630 
-2.389527 
-2.416046 
-2.390547 
-2.440524 
-2.398914 
-2.473766 
-2.468530 
-2.651611 
-2.510148 
-2.751456 
-2.414284 
-2.517880 
-2.437138 
-2.575766 
-4.292199 
-3.382088 
-7.370917 
3.685459 
-3.047260 
-3.972467 
-3.339301 
-4.313593 
-2.564573 
-2.883913 
-2.635812 
-3.060774 
-2.730415 
-3.296530 
-2.859988 
-3.603499 
0.000000 
0.000000 
0.000000 
0.000000 
0.000000 
0.000000 
0.000000 
0.000000 
0.000000 
0.000000 
0.000000 
0.000000 
0.000000 
0.000000 
0.000000 
0.000000 
0.000000 
0.000000 
0.000000 
0.000000 
0.000000 
0.000000 
0.000000 
0.000000 
0.000000 
0.000000 
0.000000 
0.000000 
0.000000 
0.000000 
0.000000 
0.000000 

