# vtk DataFile Version 2.0
Unstructured Grid Example
ASCII
DATASET UNSTRUCTURED_GRID

POINTS 81 float
0.011522 -0.141993 0.000000 
0.988478 -0.141993 0.000000 
1.000000 1.000000 0.000000 
0.000000 1.000000 0.000000 
0.500000 -0.100000 0.000000 
0.976173 0.402204 0.000000 
0.500000 1.000000 0.000000 
0.023827 0.402204 0.000000 
0.500000 0.404366 0.000000 
0.259158 -0.129631 0.000000 
0.500000 0.137713 0.000000 
0.253716 0.126644 0.000000 
0.740842 -0.129631 0.000000 
0.746284 0.126644 0.000000 
0.987297 0.122846 0.000000 
0.739871 0.401840 0.000000 
0.971658 0.690985 0.000000 
0.739604 0.695278 0.000000 
0.750000 1.000000 0.000000 
0.500000 0.696479 0.000000 
0.250000 1.000000 0.000000 
0.260396 0.695278 0.000000 
0.028342 0.690985 0.000000 
0.260129 0.401840 0.000000 
0.012703 0.122846 0.000000 
0.135435 -0.138632 0.000000 
0.253037 -0.003720 0.000000 
0.131541 -0.010572 0.000000 
0.500000 0.016223 0.000000 
0.374736 0.011033 0.000000 
0.381709 -0.100000 0.000000 
0.377422 0.266153 0.000000 
0.375550 0.134590 0.000000 
0.500000 0.267583 0.000000 
0.618291 -0.100000 0.000000 
0.625264 0.011033 0.000000 
0.868459 -0.010572 0.000000 
0.746963 -0.003720 0.000000 
0.864565 -0.138632 0.000000 
0.624450 0.134590 0.000000 
0.622578 0.266153 0.000000 
0.990422 -0.012014 0.000000 
0.866985 0.122166 0.000000 
0.857991 0.400082 0.000000 
0.862770 0.259131 0.000000 
0.981698 0.261085 0.000000 
0.743268 0.261782 0.000000 
0.620683 0.404360 0.000000 
0.972024 0.544746 0.000000 
0.855401 0.544815 0.000000 
0.863760 0.846451 0.000000 
0.856586 0.693650 0.000000 
0.977906 0.841781 0.000000 
0.738333 0.546544 0.000000 
0.619596 0.548077 0.000000 
0.875000 1.000000 0.000000 
0.743839 0.846863 0.000000 
0.500000 0.847195 0.000000 
0.622240 0.847020 0.000000 
0.625000 1.000000 0.000000 
0.620271 0.696076 0.000000 
0.500000 0.548552 0.000000 
0.375000 1.000000 0.000000 
0.377760 0.847020 0.000000 
0.136240 0.846451 0.000000 
0.256161 0.846863 0.000000 
0.125000 1.000000 0.000000 
0.379729 0.696076 0.000000 
0.380404 0.548077 0.000000 
0.022094 0.841781 0.000000 
0.143414 0.693650 0.000000 
0.142009 0.400082 0.000000 
0.144599 0.544815 0.000000 
0.027976 0.544746 0.000000 
0.261667 0.546544 0.000000 
0.379317 0.404360 0.000000 
0.018302 0.261085 0.000000 
0.137230 0.259131 0.000000 
0.133015 0.122166 0.000000 
0.009578 -0.012014 0.000000 
0.256732 0.261782 0.000000 

CELLS 128 512
3  0 25 27 
3  9 26 25 
3  11 27 26 
3  25 26 27 
3  4 28 30 
3  10 29 28 
3  9 30 29 
3  28 29 30 
3  8 31 33 
3  11 32 31 
3  10 33 32 
3  31 32 33 
3  9 29 26 
3  10 32 29 
3  11 26 32 
3  29 32 26 
3  4 34 28 
3  12 35 34 
3  10 28 35 
3  34 35 28 
3  1 36 38 
3  13 37 36 
3  12 38 37 
3  36 37 38 
3  8 33 40 
3  10 39 33 
3  13 40 39 
3  33 39 40 
3  12 37 35 
3  13 39 37 
3  10 35 39 
3  37 39 35 
3  1 41 36 
3  14 42 41 
3  13 36 42 
3  41 42 36 
3  5 43 45 
3  15 44 43 
3  14 45 44 
3  43 44 45 
3  8 40 47 
3  13 46 40 
3  15 47 46 
3  40 46 47 
3  14 44 42 
3  15 46 44 
3  13 42 46 
3  44 46 42 
3  5 48 43 
3  16 49 48 
3  15 43 49 
3  48 49 43 
3  2 50 52 
3  17 51 50 
3  16 52 51 
3  50 51 52 
3  8 47 54 
3  15 53 47 
3  17 54 53 
3  47 53 54 
3  16 51 49 
3  17 53 51 
3  15 49 53 
3  51 53 49 
3  2 55 50 
3  18 56 55 
3  17 50 56 
3  55 56 50 
3  6 57 59 
3  19 58 57 
3  18 59 58 
3  57 58 59 
3  8 54 61 
3  17 60 54 
3  19 61 60 
3  54 60 61 
3  18 58 56 
3  19 60 58 
3  17 56 60 
3  58 60 56 
3  6 62 57 
3  20 63 62 
3  19 57 63 
3  62 63 57 
3  3 64 66 
3  21 65 64 
3  20 66 65 
3  64 65 66 
3  8 61 68 
3  19 67 61 
3  21 68 67 
3  61 67 68 
3  20 65 63 
3  21 67 65 
3  19 63 67 
3  65 67 63 
3  3 69 64 
3  22 70 69 
3  21 64 70 
3  69 70 64 
3  7 71 73 
3  23 72 71 
3  22 73 72 
3  71 72 73 
3  8 68 75 
3  21 74 68 
3  23 75 74 
3  68 74 75 
3  22 72 70 
3  23 74 72 
3  21 70 74 
3  72 74 70 
3  7 76 71 
3  24 77 76 
3  23 71 77 
3  76 77 71 
3  0 27 79 
3  11 78 27 
3  24 79 78 
3  27 78 79 
3  8 75 31 
3  23 80 75 
3  11 31 80 
3  75 80 31 
3  24 78 77 
3  11 80 78 
3  23 77 80 
3  78 80 77 

CELL_TYPES 128
5
5
5
5
5
5
5
5
5
5
5
5
5
5
5
5
5
5
5
5
5
5
5
5
5
5
5
5
5
5
5
5
5
5
5
5
5
5
5
5
5
5
5
5
5
5
5
5
5
5
5
5
5
5
5
5
5
5
5
5
5
5
5
5
5
5
5
5
5
5
5
5
5
5
5
5
5
5
5
5
5
5
5
5
5
5
5
5
5
5
5
5
5
5
5
5
5
5
5
5
5
5
5
5
5
5
5
5
5
5
5
5
5
5
5
5
5
5
5
5
5
5
5
5
5
5
5
5

POINT_DATA 81

SCALARS u_h float 2
LOOKUP_TABLE default
0.011522 -0.141993 
-0.011522 -0.141993 
0.000000 0.000000 
0.000000 0.000000 
0.000000 -0.100000 
-0.023827 -0.097796 
0.000000 0.000000 
0.023827 -0.097796 
0.000000 -0.095634 
0.009158 -0.129631 
0.000000 -0.112287 
0.003716 -0.123356 
-0.009158 -0.129631 
-0.003716 -0.123356 
-0.012703 -0.127154 
-0.010129 -0.098160 
-0.028342 -0.059015 
-0.010396 -0.054722 
0.000000 0.000000 
0.000000 -0.053521 
0.000000 0.000000 
0.010396 -0.054722 
0.028342 -0.059015 
0.010129 -0.098160 
0.012703 -0.127154 
0.010435 -0.138632 
0.003037 -0.128720 
0.006541 -0.135572 
0.000000 -0.108777 
-0.000264 -0.113967 
0.006709 -0.100000 
0.002422 -0.108847 
0.000550 -0.115410 
0.000000 -0.107417 
-0.006709 -0.100000 
0.000264 -0.113967 
-0.006541 -0.135572 
-0.003037 -0.128720 
-0.010435 -0.138632 
-0.000550 -0.115410 
-0.002422 -0.108847 
-0.009578 -0.137014 
-0.008015 -0.127834 
-0.017009 -0.099918 
-0.012230 -0.115869 
-0.018302 -0.113915 
-0.006732 -0.113218 
-0.004317 -0.095640 
-0.027976 -0.080254 
-0.019599 -0.080185 
-0.011240 -0.028549 
-0.018414 -0.056350 
-0.022094 -0.033219 
-0.011667 -0.078456 
-0.005404 -0.076923 
0.000000 0.000000 
-0.006161 -0.028137 
0.000000 -0.027805 
-0.002760 -0.027980 
0.000000 0.000000 
-0.004729 -0.053924 
0.000000 -0.076448 
0.000000 0.000000 
0.002760 -0.027980 
0.011240 -0.028549 
0.006161 -0.028137 
0.000000 0.000000 
0.004729 -0.053924 
0.005404 -0.076923 
0.022094 -0.033219 
0.018414 -0.056350 
0.017009 -0.099918 
0.019599 -0.080185 
0.027976 -0.080254 
0.011667 -0.078456 
0.004317 -0.095640 
0.018302 -0.113915 
0.012230 -0.115869 
0.008015 -0.127834 
0.009578 -0.137014 
0.006732 -0.113218 

CELL_DATA 128

SCALARS epsilon float 4
LOOKUP_TABLE default
-0.007443 0.025353 0.000000 -0.002577
-0.005540 0.013375 0.000000 0.011008
-0.028707 0.043165 0.000000 0.029046
-0.026228 0.027401 0.000000 0.010718
-0.055106 -0.072664 0.000000 0.000000
0.002111 -0.027566 0.000000 0.021362
-0.002728 -0.067074 0.000000 0.105317
0.006663 -0.114241 0.000000 -0.004039
-0.019564 0.089916 0.000000 0.005223
-0.026470 0.052126 0.000000 0.037841
-0.004410 0.038488 0.000000 0.012024
-0.019624 0.051025 0.000000 0.013047
-0.019653 0.020288 0.000000 0.033416
-0.004554 -0.011450 0.000000 0.015909
-0.025974 0.043613 0.000000 0.033238
-0.027533 -0.004874 0.000000 0.063000
-0.055106 -0.072664 0.000000 0.000000
-0.002728 -0.067074 0.000000 -0.105317
0.002111 -0.027566 0.000000 -0.021362
0.006663 -0.114241 0.000000 0.004039
-0.007443 0.025353 0.000000 0.002577
-0.028707 0.043165 0.000000 -0.029046
-0.005540 0.013375 0.000000 -0.011008
-0.026228 0.027401 0.000000 -0.010718
-0.019564 0.089916 0.000000 -0.005223
-0.004410 0.038488 0.000000 -0.012024
-0.026470 0.052126 0.000000 -0.037841
-0.019624 0.051025 0.000000 -0.013047
-0.019653 0.020288 0.000000 -0.033416
-0.025974 0.043613 0.000000 -0.033238
-0.004554 -0.011450 0.000000 -0.015909
-0.027533 -0.004874 0.000000 -0.063000
-0.024295 0.039284 0.000000 0.002415
-0.037786 0.075930 0.000000 -0.010400
-0.035328 0.060194 0.000000 -0.022930
-0.024656 0.059925 0.000000 -0.011450
-0.054467 0.121567 0.000000 -0.015569
-0.056412 0.119157 0.000000 -0.026189
-0.048191 0.101125 0.000000 -0.016273
-0.048569 0.120224 0.000000 -0.012921
-0.035032 0.100122 0.000000 -0.007803
-0.035614 0.077594 0.000000 -0.028576
-0.047760 0.112961 0.000000 -0.023060
-0.035469 0.100167 0.000000 -0.023572
-0.037522 0.091362 0.000000 -0.014902
-0.045161 0.112954 0.000000 -0.023492
-0.035542 0.077602 0.000000 -0.028970
-0.045109 0.090704 0.000000 -0.027157
-0.055029 0.131272 0.000000 -0.009865
-0.069251 0.155782 0.000000 -0.001772
-0.056639 0.145457 0.000000 -0.016810
-0.069080 0.145626 0.000000 -0.011134
-0.073362 0.237952 0.000000 0.077688
-0.064288 0.199192 0.000000 0.024341
-0.080589 0.186813 0.000000 0.017575
-0.087351 0.200908 0.000000 0.015221
-0.035102 0.138718 0.000000 -0.004448
-0.047734 0.145384 0.000000 -0.015017
-0.051204 0.172474 0.000000 0.000074
-0.051420 0.138686 0.000000 -0.009818
-0.082331 0.173333 0.000000 -0.003872
-0.066035 0.172492 0.000000 -0.000156
-0.065552 0.145365 0.000000 -0.012392
-0.065308 0.173156 0.000000 -0.000853
0.002679 0.203212 0.000000 0.043404
0.000809 0.200618 0.000000 0.023812
-0.040933 0.190854 0.000000 0.015757
-0.038292 0.203459 0.000000 0.043900
0.000000 0.198519 0.000000 -0.000000
-0.022324 0.185185 0.000000 -0.000581
0.000163 0.199627 0.000000 0.010671
-0.022128 0.199653 0.000000 0.010339
-0.044162 0.141923 0.000000 -0.001644
-0.046322 0.167519 0.000000 0.000071
-0.038544 0.167001 0.000000 -0.001359
-0.044133 0.167497 0.000000 0.001152
-0.026671 0.200669 0.000000 0.023966
-0.038408 0.186694 0.000000 0.006610
-0.045749 0.190954 0.000000 0.014572
-0.027471 0.186665 0.000000 0.007336
0.000000 0.198519 0.000000 -0.000000
0.000163 0.199627 0.000000 -0.010671
-0.022324 0.185185 0.000000 0.000581
-0.022128 0.199653 0.000000 -0.010339
0.002679 0.203212 0.000000 -0.043404
-0.040933 0.190854 0.000000 -0.015757
0.000809 0.200618 0.000000 -0.023812
-0.038292 0.203459 0.000000 -0.043900
-0.044162 0.141923 0.000000 0.001644
-0.038544 0.167001 0.000000 0.001359
-0.046322 0.167519 0.000000 -0.000071
-0.044133 0.167497 0.000000 -0.001152
-0.026671 0.200669 0.000000 -0.023966
-0.045749 0.190954 0.000000 -0.014572
-0.038408 0.186694 0.000000 -0.006610
-0.027471 0.186665 0.000000 -0.007336
-0.073362 0.237952 0.000000 -0.077688
-0.080589 0.186813 0.000000 -0.017575
-0.064288 0.199192 0.000000 -0.024341
-0.087351 0.200908 0.000000 -0.015221
-0.055029 0.131272 0.000000 0.009865
-0.056639 0.145457 0.000000 0.016810
-0.069251 0.155782 0.000000 0.001772
-0.069080 0.145626 0.000000 0.011134
-0.035102 0.138718 0.000000 0.004448
-0.051204 0.172474 0.000000 -0.000074
-0.047734 0.145384 0.000000 0.015017
-0.051420 0.138686 0.000000 0.009818
-0.082331 0.173333 0.000000 0.003872
-0.065552 0.145365 0.000000 0.012392
-0.066035 0.172492 0.000000 0.000156
-0.065308 0.173156 0.000000 0.000853
-0.054467 0.121567 0.000000 0.015569
-0.048191 0.101125 0.000000 0.016273
-0.056412 0.119157 0.000000 0.026189
-0.048569 0.120224 0.000000 0.012921
-0.024295 0.039284 0.000000 -0.002415
-0.035328 0.060194 0.000000 0.022930
-0.037786 0.075930 0.000000 0.010400
-0.024656 0.059925 0.000000 0.011450
-0.035032 0.100122 0.000000 0.007803
-0.047760 0.112961 0.000000 0.023060
-0.035614 0.077594 0.000000 0.028576
-0.035469 0.100167 0.000000 0.023572
-0.037522 0.091362 0.000000 0.014902
-0.035542 0.077602 0.000000 0.028970
-0.045161 0.112954 0.000000 0.023492
-0.045109 0.090704 0.000000 0.027157

SCALARS sigma float 4
LOOKUP_TABLE default
0.055465 0.610874 0.179100 -0.026190
0.000574 0.292063 0.078352 0.200738
-0.290941 0.889881 0.144581 0.508581
-0.397432 0.467392 0.011723 0.196352
-2.057729 -2.282921 -1.277706 0.000000
-0.205457 -0.686207 -0.254547 0.320953
-0.276138 -1.711116 -0.698022 1.236934
-0.974124 -2.582798 -1.075777 -0.203782
0.376022 2.365776 0.703517 0.107178
-0.134275 1.174962 0.256560 0.672813
0.272023 1.008427 0.340778 0.219798
-0.005311 1.211139 0.314003 0.222461
-0.243722 0.316292 0.006350 0.577018
-0.227023 -0.341977 -0.160041 0.250878
-0.208920 0.930959 0.176387 0.586532
-0.627128 -0.391957 -0.324071 0.954733
-2.057729 -2.282921 -1.277706 0.000000
-0.276138 -1.711116 -0.698022 -1.236934
-0.205457 -0.686207 -0.254547 -0.320953
-0.974124 -2.582798 -1.075777 0.203782
0.055465 0.610874 0.179100 0.026190
-0.290941 0.889881 0.144581 -0.508581
0.000574 0.292063 0.078352 -0.200738
-0.397432 0.467392 0.011723 -0.196352
0.376022 2.365776 0.703517 -0.107178
0.272023 1.008427 0.340778 -0.219798
-0.134275 1.174962 0.256560 -0.672813
-0.005311 1.211139 0.314003 -0.222461
-0.243722 0.316292 0.006350 -0.577018
-0.208920 0.930959 0.176387 -0.586532
-0.227023 -0.341977 -0.160041 -0.250878
-0.627128 -0.391957 -0.324071 -0.954733
-0.242865 0.825307 0.149886 0.029596
-0.229894 1.749928 0.381440 -0.155407
-0.305656 1.311724 0.248658 -0.405695
-0.048287 1.415274 0.352687 -0.197950
-0.213666 2.981300 0.671000 -0.198426
-0.274530 2.888036 0.627451 -0.438348
-0.251800 2.409985 0.529343 -0.220955
-0.079037 3.001304 0.716546 -0.162064
0.073645 2.513815 0.650898 -0.123502
-0.142550 1.828876 0.419800 -0.508247
-0.117639 2.782329 0.652015 -0.406816
0.075597 2.512993 0.646984 -0.447611
-0.075237 2.222804 0.538400 -0.224407
-0.052166 2.810989 0.677930 -0.417459
-0.140061 1.829992 0.420596 -0.515937
-0.261563 2.126403 0.455945 -0.463946
-0.134603 3.280358 0.762425 -0.106660
-0.250972 3.916930 0.865307 -0.028712
-0.034776 3.724487 0.888181 -0.301643
-0.340961 3.587173 0.765457 -0.171095
0.362462 6.931817 1.645895 0.982551
0.270184 5.478088 1.349042 0.319575
-0.242823 4.848048 1.062248 0.184543
-0.277708 5.256326 1.135572 0.078425
0.444021 3.742947 1.036163 -0.070492
0.188667 3.820514 0.976497 -0.295606
0.353305 4.686541 1.212696 -0.042703
0.029616 3.557985 0.872654 -0.187851
-0.401094 4.353663 0.910015 -0.131007
-0.017121 4.515094 1.064567 -0.047933
-0.255532 3.617282 0.798125 -0.230024
0.007106 4.545971 1.078480 -0.061629
2.102851 6.446151 2.058914 0.711831
2.027544 6.294735 2.014271 0.390519
0.792202 5.448982 1.499214 0.234387
0.978574 5.971814 1.651666 0.675712
1.985189 6.194553 1.985189 -0.000000
1.233999 5.461724 1.628608 -0.014862
2.000567 6.239150 1.997898 0.175002
1.380297 5.976352 1.775247 0.159824
0.241996 3.744936 0.977608 -0.037118
0.430831 4.574670 1.211977 -0.021255
0.626861 4.646956 1.284570 -0.032796
0.486777 4.599322 1.233643 0.004696
1.265803 5.971785 1.739978 0.376767
0.819161 5.327395 1.482857 0.091552
0.667254 5.395261 1.452045 0.202404
1.109381 5.454705 1.591938 0.111978
1.985189 6.194553 1.985189 -0.000000
2.000567 6.239150 1.997898 -0.175002
1.233999 5.461724 1.628608 0.014862
1.380297 5.976352 1.775247 -0.159824
2.102851 6.446151 2.058914 -0.711831
0.792202 5.448982 1.499214 -0.234387
2.027544 6.294735 2.014271 -0.390519
0.978574 5.971814 1.651666 -0.675712
0.241996 3.744936 0.977608 0.037118
0.626861 4.646956 1.284570 0.032796
0.430831 4.574670 1.211977 0.021255
0.486777 4.599322 1.233643 -0.004696
1.265803 5.971785 1.739978 -0.376767
0.667254 5.395261 1.452045 -0.202404
0.819161 5.327395 1.482857 -0.091552
1.109381 5.454705 1.591938 -0.111978
0.362462 6.931817 1.645895 -0.982551
-0.242823 4.848048 1.062248 -0.184543
0.270184 5.478088 1.349042 -0.319575
-0.277708 5.256326 1.135572 -0.078425
-0.134603 3.280358 0.762425 0.106660
-0.034776 3.724487 0.888181 0.301643
-0.250972 3.916930 0.865307 0.028712
-0.340961 3.587173 0.765457 0.171095
0.444021 3.742947 1.036163 0.070492
0.353305 4.686541 1.212696 0.042703
0.188667 3.820514 0.976497 0.295606
0.029616 3.557985 0.872654 0.187851
-0.401094 4.353663 0.910015 0.131007
-0.255532 3.617282 0.798125 0.230024
-0.017121 4.515094 1.064567 0.047933
0.007106 4.545971 1.078480 0.061629
-0.213666 2.981300 0.671000 0.198426
-0.251800 2.409985 0.529343 0.220955
-0.274530 2.888036 0.627451 0.438348
-0.079037 3.001304 0.716546 0.162064
-0.242865 0.825307 0.149886 -0.029596
-0.305656 1.311724 0.248658 0.405695
-0.229894 1.749928 0.381440 0.155407
-0.048287 1.415274 0.352687 0.197950
0.073645 2.513815 0.650898 0.123502
-0.117639 2.782329 0.652015 0.406816
-0.142550 1.828876 0.419800 0.508247
0.075597 2.512993 0.646984 0.447611
-0.075237 2.222804 0.538400 0.224407
-0.140061 1.829992 0.420596 0.515937
-0.052166 2.810989 0.677930 0.417459
-0.261563 2.126403 0.455945 0.463946

