# vtk DataFile Version 2.0
Unstructured Grid Example
ASCII
DATASET UNSTRUCTURED_GRID

POINTS 4225 float
0.012113 -0.137919 0.000000 
0.987724 -0.138024 0.000000 
1.000000 1.000000 0.000000 
0.000000 1.000000 0.000000 
0.499990 -0.100000 0.000000 
0.977257 0.404653 0.000000 
0.500000 1.000000 0.000000 
0.022719 0.404694 0.000000 
0.499991 0.407336 0.000000 
0.247411 -0.096949 0.000000 
0.499981 0.139888 0.000000 
0.252779 0.132523 0.000000 
0.752455 -0.096682 0.000000 
0.747175 0.132503 0.000000 
0.989298 0.126588 0.000000 
0.740515 0.404173 0.000000 
0.971187 0.692256 0.000000 
0.739344 0.696033 0.000000 
0.750000 1.000000 0.000000 
0.499999 0.697156 0.000000 
0.250000 1.000000 0.000000 
0.260653 0.696040 0.000000 
0.028803 0.692274 0.000000 
0.259468 0.404189 0.000000 
0.010640 0.126668 0.000000 
0.138009 -0.133344 0.000000 
0.251793 0.006169 0.000000 
0.130811 -0.005443 0.000000 
0.499983 0.016585 0.000000 
0.376281 0.014953 0.000000 
0.377701 -0.100000 0.000000 
0.377642 0.268933 0.000000 
0.376153 0.138051 0.000000 
0.499986 0.270292 0.000000 
0.622304 -0.100000 0.000000 
0.623678 0.014940 0.000000 
0.869091 -0.005504 0.000000 
0.748139 0.006145 0.000000 
0.861822 -0.133408 0.000000 
0.623806 0.138044 0.000000 
0.622329 0.268926 0.000000 
0.990827 -0.008840 0.000000 
0.868731 0.126717 0.000000 
0.859165 0.402374 0.000000 
0.864279 0.262527 0.000000 
0.983683 0.264612 0.000000 
0.743935 0.265472 0.000000 
0.620678 0.406445 0.000000 
0.972388 0.547011 0.000000 
0.855749 0.546344 0.000000 
0.862621 0.846538 0.000000 
0.856115 0.694495 0.000000 
0.976603 0.841137 0.000000 
0.738545 0.547955 0.000000 
0.619790 0.549480 0.000000 
0.875000 1.000000 0.000000 
0.743540 0.847212 0.000000 
0.500000 0.847433 0.000000 
0.622187 0.847375 0.000000 
0.625000 1.000000 0.000000 
0.620263 0.696864 0.000000 
0.499996 0.550071 0.000000 
0.375000 1.000000 0.000000 
0.377813 0.847377 0.000000 
0.137378 0.846544 0.000000 
0.256460 0.847215 0.000000 
0.125000 1.000000 0.000000 
0.379735 0.696868 0.000000 
0.380202 0.549485 0.000000 
0.023392 0.841146 0.000000 
0.143880 0.694508 0.000000 
0.140816 0.402403 0.000000 
0.144240 0.546365 0.000000 
0.027597 0.547040 0.000000 
0.261447 0.547966 0.000000 
0.379305 0.406451 0.000000 
0.016279 0.264670 0.000000 
0.135688 0.262564 0.000000 
0.131214 0.126764 0.000000 
0.009064 -0.008739 0.000000 
0.256035 0.265490 0.000000 
0.074651 -0.136096 0.000000 
0.133621 -0.070265 0.000000 
0.072065 -0.072810 0.000000 
0.253393 -0.053601 0.000000 
0.194307 -0.064935 0.000000 
0.202352 -0.127586 0.000000 
0.190775 0.063767 0.000000 
0.191126 -0.000803 0.000000 
0.251831 0.068427 0.000000 
0.499987 -0.042562 0.000000 
0.438697 -0.042750 0.000000 
0.438932 -0.100000 0.000000 
0.438012 0.076922 0.000000 
0.438251 0.016230 0.000000 
0.499980 0.077368 0.000000 
0.315403 -0.100000 0.000000 
0.377214 -0.043524 0.000000 
0.315279 -0.045862 0.000000 
0.439201 0.337768 0.000000 
0.438771 0.269945 0.000000 
0.499988 0.338050 0.000000 
0.314303 0.135682 0.000000 
0.376800 0.202591 0.000000 
0.315385 0.200657 0.000000 
0.499983 0.204206 0.000000 
0.438367 0.203799 0.000000 
0.438078 0.139436 0.000000 
0.313932 0.011978 0.000000 
0.375906 0.075464 0.000000 
0.313702 0.072663 0.000000 
0.561053 -0.100000 0.000000 
0.561279 -0.042757 0.000000 
0.684695 -0.045892 0.000000 
0.622765 -0.043541 0.000000 
0.684649 -0.100000 0.000000 
0.561713 0.016224 0.000000 
0.561947 0.076918 0.000000 
0.927799 -0.072892 0.000000 
0.866243 -0.070332 0.000000 
0.925186 -0.136178 0.000000 
0.748112 0.068406 0.000000 
0.808787 -0.000848 0.000000 
0.809160 0.063730 0.000000 
0.797459 -0.127621 0.000000 
0.805561 -0.064990 0.000000 
0.746524 -0.053630 0.000000 
0.561200 0.269942 0.000000 
0.560776 0.337764 0.000000 
0.561883 0.139433 0.000000 
0.561598 0.203795 0.000000 
0.684578 0.200645 0.000000 
0.623164 0.202584 0.000000 
0.685653 0.135670 0.000000 
0.686015 0.011962 0.000000 
0.686248 0.072650 0.000000 
0.624050 0.075456 0.000000 
0.989521 -0.074481 0.000000 
0.929841 -0.007852 0.000000 
0.929105 0.125688 0.000000 
0.930248 0.058445 0.000000 
0.990775 0.058402 0.000000 
0.869706 0.060209 0.000000 
0.808165 0.129211 0.000000 
0.918211 0.402691 0.000000 
0.921073 0.332247 0.000000 
0.980400 0.334354 0.000000 
0.802029 0.332759 0.000000 
0.861645 0.331938 0.000000 
0.799972 0.403038 0.000000 
0.986781 0.195362 0.000000 
0.924071 0.262607 0.000000 
0.926883 0.193754 0.000000 
0.621458 0.336926 0.000000 
0.560393 0.407132 0.000000 
0.745692 0.198229 0.000000 
0.683274 0.267354 0.000000 
0.680743 0.405399 0.000000 
0.681939 0.335647 0.000000 
0.742139 0.334146 0.000000 
0.866765 0.194130 0.000000 
0.804260 0.263685 0.000000 
0.806406 0.195838 0.000000 
0.974492 0.475494 0.000000 
0.915771 0.473971 0.000000 
0.913188 0.619230 0.000000 
0.914007 0.546132 0.000000 
0.971187 0.619243 0.000000 
0.857119 0.473840 0.000000 
0.798332 0.474488 0.000000 
0.927893 0.922632 0.000000 
0.920276 0.845051 0.000000 
0.983867 0.917805 0.000000 
0.798066 0.695382 0.000000 
0.858459 0.770101 0.000000 
0.800177 0.770893 0.000000 
0.972787 0.766152 0.000000 
0.915788 0.768577 0.000000 
0.913637 0.693342 0.000000 
0.620091 0.477344 0.000000 
0.560104 0.477899 0.000000 
0.739258 0.475472 0.000000 
0.679837 0.476492 0.000000 
0.679393 0.622191 0.000000 
0.679352 0.548800 0.000000 
0.738533 0.621518 0.000000 
0.855318 0.619896 0.000000 
0.797169 0.620727 0.000000 
0.797325 0.547069 0.000000 
0.937500 1.000000 0.000000 
0.868479 0.923354 0.000000 
0.746641 0.923476 0.000000 
0.807818 0.923468 0.000000 
0.812500 1.000000 0.000000 
0.803518 0.847024 0.000000 
0.741034 0.771331 0.000000 
0.500000 0.923468 0.000000 
0.561796 0.923466 0.000000 
0.562500 1.000000 0.000000 
0.560596 0.771919 0.000000 
0.561142 0.847416 0.000000 
0.500000 0.771961 0.000000 
0.687500 1.000000 0.000000 
0.623540 0.923466 0.000000 
0.685179 0.923470 0.000000 
0.559961 0.549918 0.000000 
0.499994 0.478090 0.000000 
0.680028 0.696516 0.000000 
0.619837 0.622705 0.000000 
0.499998 0.623144 0.000000 
0.559990 0.623029 0.000000 
0.560204 0.697079 0.000000 
0.683031 0.847310 0.000000 
0.621063 0.771802 0.000000 
0.681263 0.771612 0.000000 
0.437500 1.000000 0.000000 
0.438205 0.923467 0.000000 
0.314822 0.923471 0.000000 
0.376460 0.923467 0.000000 
0.312500 1.000000 0.000000 
0.438859 0.847417 0.000000 
0.439403 0.771920 0.000000 
0.072106 0.922636 0.000000 
0.131521 0.923357 0.000000 
0.062500 1.000000 0.000000 
0.258965 0.771337 0.000000 
0.196482 0.847029 0.000000 
0.199821 0.770900 0.000000 
0.187500 1.000000 0.000000 
0.192182 0.923470 0.000000 
0.253359 0.923478 0.000000 
0.440030 0.549920 0.000000 
0.439884 0.477902 0.000000 
0.439794 0.697081 0.000000 
0.440005 0.623031 0.000000 
0.320602 0.622198 0.000000 
0.380159 0.622710 0.000000 
0.319970 0.696522 0.000000 
0.316970 0.847313 0.000000 
0.318736 0.771616 0.000000 
0.378936 0.771805 0.000000 
0.016129 0.917810 0.000000 
0.079721 0.845058 0.000000 
0.086356 0.693357 0.000000 
0.084207 0.768588 0.000000 
0.027206 0.766165 0.000000 
0.141538 0.770110 0.000000 
0.201930 0.695393 0.000000 
0.081768 0.402726 0.000000 
0.084213 0.474001 0.000000 
0.025489 0.475529 0.000000 
0.201655 0.474507 0.000000 
0.142867 0.473865 0.000000 
0.200010 0.403059 0.000000 
0.028802 0.619266 0.000000 
0.085981 0.546157 0.000000 
0.086803 0.619250 0.000000 
0.379897 0.477350 0.000000 
0.439590 0.407135 0.000000 
0.261462 0.621528 0.000000 
0.320640 0.548808 0.000000 
0.319240 0.405410 0.000000 
0.320151 0.476501 0.000000 
0.260729 0.475486 0.000000 
0.144674 0.619912 0.000000 
0.202665 0.547084 0.000000 
0.202825 0.620740 0.000000 
0.019570 0.334403 0.000000 
0.078899 0.332288 0.000000 
0.073072 0.193810 0.000000 
0.075895 0.262655 0.000000 
0.013171 0.195430 0.000000 
0.138330 0.331971 0.000000 
0.197947 0.332783 0.000000 
0.070054 -0.007774 0.000000 
0.010341 -0.074376 0.000000 
0.191784 0.129245 0.000000 
0.130221 0.060263 0.000000 
0.009142 0.058493 0.000000 
0.069673 0.058516 0.000000 
0.070836 0.125751 0.000000 
0.378519 0.336932 0.000000 
0.257838 0.334163 0.000000 
0.318039 0.335658 0.000000 
0.316697 0.267366 0.000000 
0.254271 0.198248 0.000000 
0.133193 0.194172 0.000000 
0.193555 0.195868 0.000000 
0.195709 0.263712 0.000000 
0.043313 -0.137016 0.000000 
0.073420 -0.104695 0.000000 
0.042293 -0.105557 0.000000 
0.135810 -0.102103 0.000000 
0.104602 -0.103616 0.000000 
0.106207 -0.134945 0.000000 
0.101468 -0.039470 0.000000 
0.102897 -0.071762 0.000000 
0.131913 -0.037994 0.000000 
0.255845 -0.081428 0.000000 
0.228287 -0.091904 0.000000 
0.234501 -0.122858 0.000000 
0.222107 -0.028912 0.000000 
0.223965 -0.060334 0.000000 
0.252304 -0.024118 0.000000 
0.170066 -0.131023 0.000000 
0.197947 -0.096705 0.000000 
0.166975 -0.099910 0.000000 
0.221605 0.098270 0.000000 
0.221201 0.066038 0.000000 
0.252217 0.100262 0.000000 
0.161009 -0.003459 0.000000 
0.190724 0.031394 0.000000 
0.160498 0.029094 0.000000 
0.251668 0.037047 0.000000 
0.221068 0.034131 0.000000 
0.221304 0.002511 0.000000 
0.164139 -0.068089 0.000000 
0.192196 -0.032899 0.000000 
0.162163 -0.035870 0.000000 
0.499989 -0.071514 0.000000 
0.469438 -0.071532 0.000000 
0.469466 -0.100000 0.000000 
0.469241 -0.013255 0.000000 
0.469353 -0.042604 0.000000 
0.499985 -0.013190 0.000000 
0.408360 -0.100000 0.000000 
0.438874 -0.071608 0.000000 
0.408274 -0.071759 0.000000 
0.469002 0.108290 0.000000 
0.469007 0.077257 0.000000 
0.499980 0.108405 0.000000 
0.407310 0.015740 0.000000 
0.438093 0.046354 0.000000 
0.407083 0.045801 0.000000 
0.499981 0.046766 0.000000 
0.469051 0.046665 0.000000 
0.469133 0.016499 0.000000 
0.282586 -0.100000 0.000000 
0.315868 -0.073617 0.000000 
0.284829 -0.075888 0.000000 
0.377608 -0.072038 0.000000 
0.346824 -0.072562 0.000000 
0.346826 -0.100000 0.000000 
0.345666 -0.015599 0.000000 
0.346317 -0.044371 0.000000 
0.376713 -0.014528 0.000000 
0.438468 -0.013467 0.000000 
0.407636 -0.013865 0.000000 
0.407995 -0.043032 0.000000 
0.469688 0.372458 0.000000 
[...]
POINT_DATA 4225

SCALARS u_h float 2
LOOKUP_TABLE default
0.012113 -0.137919 
-0.012276 -0.138024 
0.000000 0.000000 
0.000000 0.000000 
-0.000010 -0.100000 
-0.022743 -0.095347 
0.000000 0.000000 
0.022719 -0.095306 
-0.000009 -0.092664 
-0.002589 -0.096949 
-0.000019 -0.110112 
0.002779 -0.117477 
0.002455 -0.096682 
-0.002825 -0.117497 
-0.010702 -0.123412 
-0.009485 -0.095827 
-0.028813 -0.057744 
-0.010656 -0.053967 
0.000000 0.000000 
-0.000001 -0.052844 
0.000000 0.000000 
0.010653 -0.053960 
0.028803 -0.057726 
0.009468 -0.095811 
0.010640 -0.123332 
0.013009 -0.133344 
0.001793 -0.118831 
0.005811 -0.130443 
-0.000017 -0.108415 
0.001281 -0.110047 
0.002701 -0.100000 
0.002642 -0.106067 
0.001153 -0.111949 
-0.000014 -0.104708 
-0.002696 -0.100000 
-0.001322 -0.110060 
-0.005909 -0.130504 
-0.001861 -0.118855 
-0.013178 -0.133408 
-0.001194 -0.111956 
-0.002671 -0.106074 
-0.009173 -0.133840 
-0.006269 -0.123283 
-0.015835 -0.097626 
-0.010721 -0.112473 
-0.016317 -0.110388 
-0.006065 -0.109528 
-0.004322 -0.093555 
-0.027612 -0.077989 
-0.019251 -0.078656 
-0.012379 -0.028462 
-0.018885 -0.055505 
-0.023397 -0.033863 
-0.011455 -0.077045 
-0.005210 -0.075520 
0.000000 0.000000 
-0.006460 -0.027788 
0.000000 -0.027567 
-0.002813 -0.027625 
0.000000 0.000000 
-0.004737 -0.053136 
-0.000004 -0.074929 
0.000000 0.000000 
0.002813 -0.027623 
0.012378 -0.028456 
0.006460 -0.027785 
0.000000 0.000000 
0.004735 -0.053132 
0.005202 -0.075515 
0.023392 -0.033854 
0.018880 -0.055492 
0.015816 -0.097597 
0.019240 -0.078635 
0.027597 -0.077960 
0.011447 -0.077034 
0.004305 -0.093549 
0.016279 -0.110330 
0.010688 -0.112436 
0.006214 -0.123236 
0.009064 -0.133739 
0.006035 -0.109510 
0.012151 -0.136096 
0.008621 -0.132765 
0.009565 -0.135310 
0.003393 -0.116101 
0.006807 -0.127435 
0.014852 -0.127586 
0.003275 -0.123733 
0.003626 -0.125803 
0.001831 -0.119073 
-0.000013 -0.105062 
0.001197 -0.105250 
0.001432 -0.100000 
0.000512 -0.110578 
0.000751 -0.108770 
-0.000020 -0.110132 
0.002903 -0.100000 
0.002214 -0.106024 
0.002779 -0.108362 
0.001701 -0.099732 
0.001271 -0.105055 
-0.000012 -0.099450 
0.001803 -0.114318 
0.001800 -0.109909 
0.002885 -0.111843 
-0.000017 -0.108294 
0.000867 -0.108701 
0.000578 -0.110564 
0.001432 -0.113022 
0.000906 -0.112036 
0.001202 -0.114837 
-0.001447 -0.100000 
-0.001221 -0.105257 
-0.002805 -0.108392 
-0.002235 -0.106041 
-0.002851 -0.100000 
-0.000787 -0.108776 
-0.000553 -0.110582 
-0.009701 -0.135392 
-0.008757 -0.132832 
-0.012314 -0.136178 
-0.001888 -0.119094 
-0.003713 -0.125848 
-0.003340 -0.123770 
-0.015041 -0.127621 
-0.006939 -0.127490 
-0.003476 -0.116130 
-0.001300 -0.105058 
-0.001724 -0.099736 
-0.000617 -0.110567 
-0.000902 -0.108705 
-0.002922 -0.111855 
-0.001836 -0.109916 
-0.001847 -0.114330 
-0.001485 -0.113038 
-0.001252 -0.114850 
-0.000950 -0.112044 
-0.010479 -0.136981 
-0.007659 -0.132852 
-0.008395 -0.124312 
-0.007252 -0.129055 
-0.009225 -0.129098 
-0.005294 -0.127291 
-0.004335 -0.120789 
-0.019289 -0.097309 
-0.016427 -0.105253 
-0.019600 -0.103146 
-0.010471 -0.104741 
-0.013355 -0.105562 
-0.012528 -0.096962 
-0.013219 -0.117138 
-0.013429 -0.112393 
-0.010617 -0.118746 
-0.003542 -0.100574 
-0.002107 -0.092868 
-0.004308 -0.114271 
-0.004226 -0.107646 
-0.006757 -0.094601 
-0.005561 -0.101853 
-0.007861 -0.103354 
-0.008235 -0.118370 
-0.008240 -0.111315 
-0.006094 -0.116662 
-0.025508 -0.087006 
-0.021729 -0.088529 
-0.024312 -0.068270 
-0.023493 -0.078868 
-0.028813 -0.068257 
-0.017881 -0.088660 
-0.014168 -0.088012 
-0.009607 -0.014868 
-0.017224 -0.029949 
-0.016133 -0.019695 
-0.014434 -0.054618 
-0.016541 -0.042399 
-0.012323 -0.041607 
-0.027213 -0.046348 
-0.021712 -0.043923 
-0.023863 -0.056658 
-0.004909 -0.085156 
-0.002396 -0.084601 
-0.010742 -0.087028 
-0.007663 -0.086008 
-0.008107 -0.065309 
-0.008148 -0.076200 
-0.011467 -0.065982 
-0.019682 -0.067604 
-0.015331 -0.066773 
-0.015175 -0.077931 
0.000000 0.000000 
-0.006521 -0.014146 
-0.003359 -0.014024 
-0.004682 -0.014032 
0.000000 0.000000 
-0.008982 -0.027976 
-0.008966 -0.041169 
0.000000 -0.014032 
-0.000704 -0.014034 
0.000000 0.000000 
-0.001904 -0.040581 
-0.001358 -0.027584 
-0.000000 -0.040539 
0.000000 0.000000 
-0.001460 -0.014034 
-0.002321 -0.014030 
-0.002539 -0.075082 
-0.000006 -0.084410 
-0.007472 -0.053484 
-0.005163 -0.064795 
-0.000002 -0.064356 
-0.002510 -0.064471 
-0.002296 -0.052921 
-0.004469 -0.027690 
-0.003937 -0.040698 
-0.006237 -0.040888 
0.000000 0.000000 
0.000705 -0.014033 
0.002322 -0.014029 
0.001460 -0.014033 
0.000000 0.000000 
0.001359 -0.027583 
0.001903 -0.040580 
0.009606 -0.014864 
0.006521 -0.014143 
0.000000 0.000000 
0.008965 -0.041163 
0.008982 -0.027971 
0.012321 -0.041600 
0.000000 0.000000 
0.004682 -0.014030 
0.003359 -0.014022 
0.002530 -0.075080 
0.002384 -0.084598 
0.002294 -0.052919 
0.002505 -0.064469 
0.008102 -0.065302 
0.005159 -0.064790 
0.007470 -0.053478 
0.004470 -0.027687 
0.006236 -0.040884 
0.003936 -0.040695 
0.016129 -0.019690 
0.017221 -0.029942 
0.023856 -0.056643 
0.021707 -0.043912 
0.027206 -0.046335 
0.016538 -0.042390 
0.014430 -0.054607 
0.019268 -0.097274 
0.021713 -0.088499 
0.025489 -0.086971 
0.014155 -0.087993 
0.017867 -0.088635 
0.012510 -0.096941 
0.028802 -0.068234 
0.023481 -0.078843 
0.024303 -0.068250 
0.004897 -0.085150 
0.002090 -0.092865 
0.011462 -0.065972 
0.008140 -0.076192 
0.006740 -0.094590 
0.007651 -0.085999 
0.010729 -0.087014 
0.019674 -0.067588 
0.015165 -0.077916 
0.015325 -0.066760 
0.019570 -0.103097 
0.016399 -0.105212 
0.010572 -0.118690 
0.013395 -0.112345 
0.013171 -0.117070 
0.013330 -0.105529 
0.010447 -0.104717 
0.007554 -0.132774 
0.010341 -0.136876 
0.004284 -0.120755 
0.005221 -0.127237 
0.009142 -0.129007 
0.007173 -0.128984 
0.008336 -0.124249 
0.003519 -0.100568 
0.007838 -0.103337 
0.005539 -0.101842 
0.004197 -0.107634 
0.004271 -0.114252 
0.008193 -0.118328 
0.006055 -0.116632 
0.008209 -0.111288 
0.012063 -0.137016 
0.010920 -0.135945 
0.011043 -0.136807 
0.010810 -0.133353 
0.010852 -0.134866 
0.012457 -0.134945 
0.007718 -0.133220 
0.009147 -0.134262 
0.006913 -0.131744 
0.005845 -0.112678 
0.009537 -0.123154 
0.015751 -0.122858 
0.003357 -0.122662 
0.005215 -0.122834 
0.002304 -0.117868 
0.013816 -0.131023 
0.010447 -0.127955 
0.010725 -0.131160 
0.002855 -0.120480 
0.002451 -0.121462 
0.002217 -0.118488 
0.004759 -0.128459 
0.003224 -0.124856 
0.004248 -0.127156 
0.001668 -0.119203 
0.002318 -0.122119 
0.002554 -0.122489 
0.007889 -0.130589 
0.004696 -0.126649 
0.005913 -0.129620 
-0.000011 -0.102764 
0.000688 -0.102782 
0.000716 -0.100000 
0.000491 -0.107005 
0.000603 -0.105104 
-0.000015 -0.106940 
0.002110 -0.100000 
0.001374 -0.102858 
0.002024 -0.103009 
0.000252 -0.110460 
0.000257 -0.110243 
-0.000020 -0.110345 
0.001060 -0.109260 
0.000593 -0.109896 
0.000833 -0.110449 
-0.000019 -0.109484 
0.000301 -0.109585 
0.000383 -0.108501 
0.001336 -0.100000 
0.003368 -0.104867 
0.003579 -0.107138 
0.002608 -0.103288 
0.003074 -0.103812 
0.003076 -0.100000 
0.001916 -0.109349 
0.002567 -0.106871 
0.001713 -0.108278 
0.000968 -0.107217 
0.001386 -0.107615 
0.001745 -0.105532 
0.000938 -0.096292 
0.000837 -0.099519 
-0.000010 -0.096236 
0.001940 -0.105482 
0.001487 -0.102595 
0.002268 -0.102985 
-0.000013 -0.102280 
0.000731 -0.102359 
0.000623 -0.104795 
0.002232 -0.115828 
0.002301 -0.113309 
0.002836 -0.114636 
0.001441 -0.111164 
0.001845 -0.112139 
0.001455 -0.113013 
0.002838 -0.109007 
0.002315 -0.110796 
0.002208 -0.108204 
-0.000018 -0.109428 
0.000341 -0.109537 
0.000282 -0.110225 
0.000518 -0.106812 
0.000422 -0.108396 
-0.000016 -0.106717 
0.000866 -0.111135 
0.000701 -0.109861 
0.001065 -0.110403 
0.001620 -0.107562 
0.001323 -0.109207 
0.001061 -0.107095 
0.002928 -0.111054 
0.001398 -0.111246 
0.001987 -0.111068 
0.002001 -0.113798 
0.001487 -0.115543 
0.000510 -0.110803 
0.000964 -0.112246 
0.000747 -0.111390 
0.000730 -0.111162 
0.001005 -0.111304 
0.001751 -0.116564 
0.001325 -0.116495 
0.001434 -0.116805 
0.001423 -0.114840 
0.001178 -0.113393 
0.001111 -0.112542 
0.001050 -0.113247 
0.001186 -0.114254 
-0.000734 -0.100000 
-0.000709 -0.102784 
-0.002037 -0.103017 
-0.001392 -0.102862 
-0.002118 -0.100000 
-0.000628 -0.105107 
-0.000521 -0.107009 
-0.003550 -0.107153 
-0.003348 -0.104896 
-0.001288 -0.100000 
-0.001746 -0.108294 
-0.002588 -0.106895 
-0.001954 -0.109369 
-0.003051 -0.100000 
-0.003068 -0.103832 
-0.002613 -0.103301 
-0.000296 -0.110245 
-0.000291 -0.110462 
-0.000417 -0.108504 
-0.000339 -0.109588 
-0.000874 -0.110457 
-0.000632 -0.109901 
-0.001098 -0.109270 
-0.001767 -0.105544 
-0.001418 -0.107627 
-0.000998 -0.107225 
-0.011194 -0.136900 
-0.011070 -0.136028 
-0.012226 -0.137109 
-0.007029 -0.131810 
-0.009283 -0.134337 
-0.007836 -0.133293 
-0.012621 -0.135018 
-0.011004 -0.134940 
-0.010966 -0.133420 
-0.002269 -0.118509 
-0.002512 -0.121491 
-0.002909 -0.120508 
-0.002632 -0.122524 
-0.002386 -0.122150 
-0.001731 -0.119225 
-0.004328 -0.127205 
-0.003298 -0.124896 
-0.004853 -0.128513 
-0.015945 -0.122835 
-0.009731 -0.123207 
-0.005975 -0.112723 
-0.010886 -0.131219 
-0.010620 -0.128007 
-0.013994 -0.131076 
-0.002378 -0.117894 
-0.005336 -0.122885 
-0.003450 -0.122703 
-0.006025 -0.129678 
-0.004801 -0.126699 
-0.008024 -0.130650 
-0.000860 -0.099520 
-0.000958 -0.096294 
-0.000652 -0.104796 
-0.000757 -0.102360 
-0.002294 -0.102989 
-0.001513 -0.102598 
-0.001969 -0.105487 
-0.000321 -0.110227 
-0.000378 -0.109538 
-0.001103 -0.110408 
-0.000739 -0.109864 
-0.000906 -0.111140 
-0.000457 -0.108398 
-0.000550 -0.106813 
-0.002877 -0.114652 
-0.002341 -0.113321 
-0.002277 -0.115844 
-0.002240 -0.108211 
-0.002351 -0.110805 
-0.002870 -0.109016 
-0.001498 -0.113023 
-0.001884 -0.112148 
-0.001479 -0.111171 
-0.001093 -0.107098 
-0.001358 -0.109212 
-0.001652 -0.107567 
-0.002973 -0.111092 
-0.001548 -0.115561 
-0.002062 -0.113819 
-0.002034 -0.111089 
-0.001445 -0.111261 
-0.001801 -0.116580 
-0.001224 -0.113403 
-0.001471 -0.114853 
-0.001487 -0.116821 
-0.001383 -0.116512 
-0.000550 -0.110806 
-0.001050 -0.111314 
-0.000773 -0.111168 
-0.000789 -0.111396 
-0.001008 -0.112254 
-0.001239 -0.114268 
-0.001097 -0.113258 
-0.001159 -0.112554 
-0.011380 -0.137759 
-0.010081 -0.136204 
-0.008410 -0.133451 
-0.009098 -0.135035 
-0.009693 -0.135657 
-0.008504 -0.134310 
-0.006841 -0.131912 
-0.009512 -0.124135 
-0.008697 -0.126815 
-0.009805 -0.126343 
-0.006636 -0.126309 
-0.007656 -0.126791 
-0.007317 -0.124010 
-0.009007 -0.131623 
-0.008212 -0.129286 
-0.008107 -0.131514 
-0.003713 -0.122413 
-0.003513 -0.119186 
-0.005360 -0.128992 
-0.004294 -0.125738 
-0.005265 -0.122186 
-0.004635 -0.124075 
-0.005623 -0.125393 
-0.007240 -0.131085 
-0.006285 -0.128395 
-0.006334 -0.130267 
-0.021026 -0.096585 
-0.019548 -0.100613 
-0.021208 -0.099323 
-0.016248 -0.101724 
-0.017892 -0.101383 
-0.017552 -0.097627 
-0.017957 -0.106832 
-0.018004 -0.104470 
-0.016426 -0.108157 
-0.010084 -0.100414 
-0.011536 -0.101001 
-0.010969 -0.096427 
-0.012039 -0.109145 
-0.011883 -0.105255 
-0.010669 -0.108773 
-0.014155 -0.097382 
-0.013056 -0.101458 
-0.014631 -0.101722 
-0.011860 -0.120337 
-0.011885 -0.118236 
-0.010596 -0.121271 
-0.014851 -0.111679 
-0.013322 -0.115038 
-0.014722 -0.113822 
-0.010682 -0.115808 
-0.011977 -0.115667 
-0.012051 -0.112628 
-0.014873 -0.105588 
-0.013462 -0.109222 
-0.014927 -0.108922 
-0.001924 -0.096486 
-0.001051 -0.092695 
-0.003111 -0.103523 
-0.002614 -0.100091 
-0.003194 -0.093159 
-0.002917 -0.096808 
-0.003951 -0.097246 
-0.003517 -0.116080 
-0.003569 -0.113029 
-0.005105 -0.108570 
-0.004320 -0.110996 
-0.005168 -0.112084 
-0.003559 -0.109957 
-0.003419 -0.106802 
-0.008081 -0.095206 
-0.007408 -0.099070 
-0.008707 -0.099754 
-0.005037 -0.097784 
-0.006186 -0.098402 
-0.005507 -0.094042 
-0.006972 -0.106615 
-0.006673 -0.102594 
-0.005897 -0.105765 
-0.003976 -0.104181 
-0.004901 -0.104939 
-0.004521 -0.101169 
-0.009403 -0.121628 
-0.009438 -0.115547 
-0.009401 -0.118763 
-0.008259 -0.121496 
-0.007160 -0.120946 
-0.009128 -0.104087 
-0.007110 -0.110465 
-0.008127 -0.107440 
-0.009362 -0.108181 
-0.009447 -0.112010 
-0.004273 -0.117520 
-0.006115 -0.120047 
-0.005145 -0.118876 
-0.005151 -0.115510 
-0.006108 -0.113157 
-0.008253 -0.114966 
-0.007139 -0.114143 
-0.007128 -0.117644 
-0.024197 -0.091260 
-0.022402 -0.092379 
-0.024712 -0.083399 
-0.023640 -0.087986 
-0.026656 -0.082583 
-0.020578 -0.093026 
-0.018746 -0.093296 
-0.026677 -0.062951 
-0.026608 -0.068398 
-0.028985 -0.063103 
-0.021368 -0.078856 
-0.024039 -0.073690 
-0.021813 -0.073546 
-0.028343 -0.073216 
-0.026231 -0.073614 
-0.025587 -0.078611 
-0.013414 -0.092631 
-0.011753 -0.092133 
-0.016927 -0.093272 
-0.015143 -0.093029 
-0.016684 -0.083502 
-0.015997 -0.088402 
-0.018667 -0.083788 
-0.022712 -0.083811 
-0.020686 -0.083914 
-0.019801 -0.088726 
-0.006328 -0.007948 
-0.012333 -0.016249 
-0.010246 -0.011255 
-0.014583 -0.029001 
-0.013840 -0.022505 
-0.011463 -0.021699 
-0.020325 -0.027067 
-0.016886 -0.024139 
-0.020262 -0.031529 
-0.012463 -0.054268 
-0.013536 -0.048207 
-0.011639 -0.047903 
-0.017927 -0.049071 
-0.015629 -0.048588 
-0.016576 -0.055027 
-0.012610 -0.035113 
-0.014311 -0.041939 
-0.014696 -0.035514 
-0.028244 -0.052166 
-0.025689 -0.051302 
-0.026390 -0.057259 
-0.022738 -0.038479 
-0.024503 -0.045054 
-0.025636 -0.040263 
-0.021333 -0.056055 
-0.023034 -0.050439 
-0.020413 -0.049685 
-0.017096 -0.036138 
-0.019021 -0.043043 
-0.019810 -0.037096 
-0.002268 -0.088900 
-0.001133 -0.088744 
-0.004647 -0.089519 
-0.003435 -0.089162 
-0.003769 -0.080198 
-0.003629 -0.084836 
-0.005099 -0.080484 
-0.010171 -0.091581 
-0.008672 -0.091014 
-0.009524 -0.081701 
-0.009159 -0.086508 
-0.011177 -0.082179 
-0.007255 -0.090464 
-0.005916 -0.089959 
-0.009455 -0.059775 
-0.009728 -0.065628 
-0.011170 -0.060084 
-0.006638 -0.075834 
-0.008198 -0.070881 
-0.006673 -0.070558 
-0.011558 -0.071642 
-0.009823 -0.071245 
-0.009751 -0.076609 
-0.006250 -0.085552 
-0.007966 -0.081248 
-0.006494 -0.080838 
-0.024270 -0.062597 
-0.019456 -0.061685 
-0.021839 -0.062152 
-0.021984 -0.067980 
-0.019601 -0.073261 
-0.013025 -0.060430 
-0.013408 -0.072059 
-0.013334 -0.066366 
-0.015026 -0.060813 
-0.017175 -0.061233 
-0.012413 -0.087540 
-0.017177 -0.078331 
-0.014764 -0.083110 
-0.012925 -0.082657 
-0.013264 -0.077494 
-0.017453 -0.067192 
-0.015373 -0.072483 
-0.017443 -0.072893 
0.000000 0.000000 
-0.004758 -0.007289 
-0.003247 -0.007035 
-0.003873 -0.007098 
0.000000 0.000000 
-0.007813 -0.014352 
-0.009622 -0.021312 
-0.001689 -0.007041 
-0.001996 -0.007031 
0.000000 0.000000 
-0.005876 -0.020973 
-0.003975 -0.014023 
-0.004965 -0.020944 
0.000000 0.000000 
-0.002346 -0.007022 
-0.002755 -0.007020 
-0.010551 -0.041360 
-0.009920 -0.047654 
-0.010540 -0.028156 
-0.010798 -0.034850 
-0.007805 -0.034538 
-0.009210 -0.034670 
-0.007638 -0.027864 
-0.005512 -0.014063 
-0.006921 -0.021024 
-0.008146 -0.021121 
0.000000 -0.007076 
-0.000176 -0.007076 
0.000000 0.000000 
-0.000516 -0.020868 
-0.000349 -0.014033 
0.000000 -0.020865 
0.000000 0.000000 
-0.000355 -0.007075 
-0.000540 -0.007073 
-0.001052 -0.046799 
-0.000944 -0.040551 
-0.000001 -0.046782 
-0.002067 -0.027601 
-0.001648 -0.034158 
-0.002507 -0.034189 
0.000000 -0.034129 
-0.000817 -0.034137 
-0.000673 -0.027572 
0.000000 0.000000 
-0.001168 -0.007059 
-0.001415 -0.007050 
-0.000735 -0.007069 
-0.000943 -0.007065 
0.000000 0.000000 
-0.002769 -0.020898 
-0.001873 -0.014033 
-0.002158 -0.020888 
-0.001041 -0.020873 
-0.001585 -0.020880 
-0.001072 -0.014034 
-0.001195 -0.084458 
-0.000007 -0.088697 
-0.003849 -0.075267 
-0.002488 -0.079988 
-0.000005 -0.079815 
-0.001239 -0.079860 
-0.001263 -0.074969 
-0.008999 -0.053707 
-0.007866 -0.059503 
-0.004998 -0.059072 
-0.006386 -0.059268 
-0.006058 -0.053293 
-0.006590 -0.065030 
-0.005233 -0.070284 
-0.000002 -0.058708 
-0.001205 -0.058734 
-0.001140 -0.052865 
-0.001266 -0.069805 
-0.001247 -0.064387 
-0.000003 -0.069769 
-0.003489 -0.053011 
-0.002426 -0.058804 
-0.003685 -0.058917 
-0.003863 -0.070064 
-0.003809 -0.064607 
-0.002547 -0.069903 
-0.002813 -0.014027 
-0.003609 -0.027654 
-0.003431 -0.020910 
-0.004157 -0.020925 
-0.005413 -0.027733 
-0.002121 -0.046841 
-0.004382 -0.047005 
-0.003225 -0.046910 
-0.002896 -0.040630 
-0.003410 -0.034233 
-0.008357 -0.047446 
-0.006548 -0.034436 
-0.007536 -0.041015 
-0.006928 -0.047272 
-0.005609 -0.047125 
-0.004373 -0.034287 
-0.005044 -0.040783 
-0.005412 -0.034354 
0.000000 0.000000 
0.000176 -0.007075 
0.000540 -0.007072 
0.000355 -0.007074 
0.000000 0.000000 
0.000349 -0.014033 
0.000516 -0.020867 
0.001416 -0.007050 
0.001169 -0.007058 
0.000000 0.000000 
0.002158 -0.020887 
0.001874 -0.014032 
0.002770 -0.020897 
0.000000 0.000000 
0.000944 -0.007064 
0.000735 -0.007069 
0.000944 -0.040550 
0.001051 -0.046798 
0.000673 -0.027572 
0.000817 -0.034137 
0.002507 -0.034188 
0.001648 -0.034156 
0.002068 -0.027600 
0.001073 -0.014034 
0.001586 -0.020879 
0.001042 -0.020872 
0.006327 -0.007946 
0.004758 -0.007287 
0.000000 0.000000 
0.009621 -0.021308 
0.007813 -0.014349 
0.011462 -0.021695 
0.000000 0.000000 
0.003873 -0.007096 
0.003247 -0.007034 
0.009918 -0.047647 
0.010550 -0.041354 
0.011637 -0.047895 
0.007638 -0.027860 
0.009209 -0.034664 
0.007804 -0.034533 
0.012609 -0.035107 
0.010796 -0.034844 
0.010539 -0.028151 
0.000000 0.000000 
0.001996 -0.007030 
0.001689 -0.007040 
0.002755 -0.007018 
0.002347 -0.007021 
0.000000 0.000000 
0.004965 -0.020941 
0.003975 -0.014021 
0.005876 -0.020970 
0.008145 -0.021117 
0.006921 -0.021021 
0.005512 -0.014060 
0.001182 -0.084457 
0.001118 -0.088743 
0.001255 -0.074968 
0.001228 -0.079859 
0.003759 -0.080194 
0.002477 -0.079985 
0.003840 -0.075264 
0.001137 -0.052864 
0.001201 -0.058733 
0.003681 -0.058914 
0.002423 -0.058802 
0.003487 -0.053009 
0.001242 -0.064386 
0.001260 -0.069803 
0.009451 -0.059768 
0.007862 -0.059497 
0.008996 -0.053701 
0.005226 -0.070279 
0.006585 -0.065024 
0.006666 -0.070552 
0.006056 -0.053289 
0.006383 -0.059263 
0.004995 -0.059068 
0.002540 -0.069901 
0.003804 -0.064604 
0.003857 -0.070061 
0.002813 -0.014025 
0.005413 -0.027730 
0.004158 -0.020922 
0.003431 -0.020908 
0.003609 -0.027652 
0.008355 -0.047441 
0.005608 -0.047121 
0.006926 -0.047267 
0.007535 -0.041010 
0.006548 -0.034432 
0.002120 -0.046840 
0.003410 -0.034230 
0.002895 -0.040629 
0.003224 -0.046908 
0.004380 -0.047002 
0.005412 -0.034351 
0.005043 -0.040780 
0.004373 -0.034285 
0.010244 -0.011253 
0.012332 -0.016246 
0.020258 -0.031521 
0.016883 -0.024133 
0.020321 -0.027060 
0.013838 -0.022500 
0.014581 -0.028995 
0.026382 -0.057242 
0.025683 -0.051287 
0.028236 -0.052150 
0.020408 -0.049673 
0.023028 -0.050426 
0.021327 -0.056041 
0.025630 -0.040252 
0.024498 -0.045042 
0.022733 -0.038469 
0.013533 -0.048198 
0.012459 -0.054259 
0.014694 -0.035506 
0.014308 -0.041931 
0.016572 -0.055015 
0.015626 -0.048578 
0.017923 -0.049061 
0.019807 -0.037087 
0.019017 -0.043033 
0.017093 -0.036130 
0.021003 -0.096546 
0.022382 -0.092343 
0.024175 -0.091222 
0.018728 -0.093266 
0.020559 -0.092994 
0.017532 -0.097595 
0.026640 -0.082552 
0.023622 -0.087953 
0.024696 -0.083370 
0.011738 -0.092116 
0.013398 -0.092611 
0.010951 -0.096408 
0.018654 -0.083766 
0.015983 -0.088380 
0.016673 -0.083482 
0.014136 -0.097357 
0.015127 -0.093006 
0.016910 -0.093246 
0.028974 -0.063083 
0.026598 -0.068376 
0.026668 -0.062932 
0.025573 -0.078585 
0.026219 -0.073590 
0.028330 -0.073190 
0.021803 -0.073526 
0.024028 -0.073668 
0.021356 -0.078833 
0.019786 -0.088699 
0.020673 -0.083889 
0.022697 -0.083784 
0.002254 -0.088898 
0.001033 -0.092694 
0.005089 -0.080478 
0.003617 -0.084831 
0.003176 -0.093154 
0.003420 -0.089158 
0.004632 -0.089513 
0.011166 -0.060075 
0.009723 -0.065620 
0.009743 -0.076599 
0.009816 -0.071236 
0.011551 -0.071631 
0.008192 -0.070873 
0.006630 -0.075827 
0.008064 -0.095193 
0.008657 -0.091002 
0.010156 -0.091566 
0.005902 -0.089951 