# vtk DataFile Version 2.0
Unstructured Grid Example
ASCII
DATASET UNSTRUCTURED_GRID

POINTS 1089 float
0.010911 -0.138159 0.000000 
0.989089 -0.138159 0.000000 
1.000000 1.000000 0.000000 
0.000000 1.000000 0.000000 
0.500000 -0.100000 0.000000 
0.977042 0.404239 0.000000 
0.500000 1.000000 0.000000 
0.022958 0.404239 0.000000 
0.500000 0.406856 0.000000 
0.247376 -0.097736 0.000000 
0.500000 0.139517 0.000000 
0.252781 0.131430 0.000000 
0.752624 -0.097736 0.000000 
0.747219 0.131430 0.000000 
0.989059 0.126166 0.000000 
0.740434 0.403735 0.000000 
0.971159 0.691981 0.000000 
0.739346 0.695870 0.000000 
0.750000 1.000000 0.000000 
0.500000 0.696996 0.000000 
0.250000 1.000000 0.000000 
0.260654 0.695870 0.000000 
0.028841 0.691981 0.000000 
0.259566 0.403735 0.000000 
0.010941 0.126166 0.000000 
0.136355 -0.134382 0.000000 
0.251772 0.003997 0.000000 
0.130736 -0.006486 0.000000 
0.500000 0.016451 0.000000 
0.376190 0.014511 0.000000 
0.377821 -0.100000 0.000000 
0.377606 0.268385 0.000000 
0.376010 0.137417 0.000000 
0.500000 0.269827 0.000000 
0.622179 -0.100000 0.000000 
0.623810 0.014511 0.000000 
0.869264 -0.006486 0.000000 
0.748228 0.003997 0.000000 
0.863645 -0.134382 0.000000 
0.623990 0.137417 0.000000 
0.622394 0.268385 0.000000 
0.991237 -0.008881 0.000000 
0.868497 0.125859 0.000000 
0.858972 0.401942 0.000000 
0.864042 0.261913 0.000000 
0.983375 0.264073 0.000000 
0.743886 0.264804 0.000000 
0.620680 0.406035 0.000000 
0.972242 0.546631 0.000000 
0.855643 0.546054 0.000000 
0.862728 0.846477 0.000000 
0.856116 0.694331 0.000000 
0.976772 0.841085 0.000000 
0.738493 0.547674 0.000000 
0.619771 0.549199 0.000000 
0.875000 1.000000 0.000000 
0.743568 0.847136 0.000000 
0.500000 0.847361 0.000000 
0.622193 0.847295 0.000000 
0.625000 1.000000 0.000000 
0.620260 0.696694 0.000000 
0.500000 0.549790 0.000000 
0.375000 1.000000 0.000000 
0.377807 0.847295 0.000000 
0.137272 0.846477 0.000000 
0.256432 0.847136 0.000000 
0.125000 1.000000 0.000000 
0.379740 0.696694 0.000000 
0.380229 0.549199 0.000000 
0.023228 0.841085 0.000000 
0.143884 0.694331 0.000000 
0.141028 0.401942 0.000000 
0.144357 0.546054 0.000000 
0.027758 0.546631 0.000000 
0.261507 0.547674 0.000000 
0.379320 0.406035 0.000000 
0.016625 0.264073 0.000000 
0.135958 0.261913 0.000000 
0.131503 0.125859 0.000000 
0.008763 -0.008881 0.000000 
0.256114 0.264804 0.000000 
0.073352 -0.136666 0.000000 
0.132857 -0.071207 0.000000 
0.071234 -0.073325 0.000000 
0.253981 -0.057707 0.000000 
0.193954 -0.066811 0.000000 
0.199737 -0.129804 0.000000 
0.190958 0.062347 0.000000 
0.191280 -0.002570 0.000000 
0.251782 0.066964 0.000000 
0.500000 -0.042626 0.000000 
0.438843 -0.042838 0.000000 
0.439063 -0.100000 0.000000 
0.437937 0.076569 0.000000 
0.438248 0.016025 0.000000 
0.500000 0.077110 0.000000 
0.315042 -0.100000 0.000000 
0.377492 -0.043746 0.000000 
0.315631 -0.046382 0.000000 
0.439188 0.337308 0.000000 
0.438743 0.269458 0.000000 
0.500000 0.337581 0.000000 
0.314171 0.134805 0.000000 
0.376717 0.201988 0.000000 
0.315332 0.199914 0.000000 
0.500000 0.203767 0.000000 
0.438316 0.203308 0.000000 
0.438002 0.138984 0.000000 
0.313645 0.010889 0.000000 
0.375721 0.074861 0.000000 
0.313470 0.071642 0.000000 
0.560937 -0.100000 0.000000 
0.561157 -0.042838 0.000000 
0.684369 -0.046382 0.000000 
0.622508 -0.043746 0.000000 
0.684958 -0.100000 0.000000 
0.561752 0.016025 0.000000 
0.562063 0.076569 0.000000 
0.928766 -0.073325 0.000000 
0.867143 -0.071207 0.000000 
0.926648 -0.136666 0.000000 
0.748218 0.066964 0.000000 
0.808720 -0.002570 0.000000 
0.809042 0.062347 0.000000 
0.800263 -0.129804 0.000000 
0.806046 -0.066811 0.000000 
0.746019 -0.057707 0.000000 
0.561257 0.269458 0.000000 
0.560812 0.337308 0.000000 
0.561998 0.138984 0.000000 
0.561684 0.203308 0.000000 
0.684668 0.199914 0.000000 
0.623283 0.201988 0.000000 
0.685829 0.134805 0.000000 
0.686355 0.010889 0.000000 
0.686530 0.071642 0.000000 
0.624279 0.074861 0.000000 
0.990503 -0.074472 0.000000 
0.930179 -0.008354 0.000000 
0.928848 0.125089 0.000000 
0.930175 0.057872 0.000000 
0.990753 0.058161 0.000000 
0.869577 0.059243 0.000000 
0.808029 0.128138 0.000000 
0.917989 0.402265 0.000000 
0.920823 0.331762 0.000000 
0.980125 0.333856 0.000000 
0.801884 0.332217 0.000000 
0.861434 0.331423 0.000000 
0.799831 0.402597 0.000000 
0.986471 0.194841 0.000000 
0.923783 0.262065 0.000000 
0.926580 0.193171 0.000000 
0.621486 0.336449 0.000000 
0.560407 0.406722 0.000000 
0.745679 0.197392 0.000000 
0.683304 0.266741 0.000000 
0.680713 0.404975 0.000000 
0.681931 0.335135 0.000000 
0.742069 0.333606 0.000000 
0.866512 0.193401 0.000000 
0.804109 0.263014 0.000000 
0.806257 0.194996 0.000000 
0.974299 0.475081 0.000000 
0.915590 0.473599 0.000000 
0.913111 0.618977 0.000000 
0.913875 0.545817 0.000000 
0.971094 0.618911 0.000000 
0.856967 0.473481 0.000000 
0.798219 0.474132 0.000000 
0.928110 0.922637 0.000000 
0.920437 0.844997 0.000000 
0.984131 0.918120 0.000000 
0.798071 0.695223 0.000000 
0.858520 0.769993 0.000000 
0.800219 0.770783 0.000000 
0.972843 0.765954 0.000000 
0.915858 0.768461 0.000000 
0.913626 0.693156 0.000000 
0.620073 0.477000 0.000000 
0.560093 0.477550 0.000000 
0.739186 0.475119 0.000000 
0.679798 0.476144 0.000000 
0.679376 0.621971 0.000000 
0.679320 0.548520 0.000000 
0.738507 0.621300 0.000000 
0.855263 0.619670 0.000000 
0.797130 0.620509 0.000000 
0.797247 0.546785 0.000000 
0.937500 1.000000 0.000000 
0.868564 0.923319 0.000000 
0.746659 0.923436 0.000000 
0.807857 0.923429 0.000000 
0.812500 1.000000 0.000000 
0.803575 0.846953 0.000000 
0.741057 0.771216 0.000000 
0.500000 0.923433 0.000000 
0.561798 0.923428 0.000000 
0.562500 1.000000 0.000000 
0.560597 0.771797 0.000000 
0.561144 0.847338 0.000000 
0.500000 0.771849 0.000000 
0.687500 1.000000 0.000000 
0.623544 0.923426 0.000000 
0.685187 0.923430 0.000000 
0.559951 0.549633 0.000000 
0.500000 0.477724 0.000000 
0.680026 0.696350 0.000000 
0.619825 0.622482 0.000000 
0.500000 0.622929 0.000000 
0.559984 0.622806 0.000000 
0.560202 0.696910 0.000000 
0.683044 0.847231 0.000000 
0.621067 0.771679 0.000000 
0.681273 0.771491 0.000000 
0.437500 1.000000 0.000000 
0.438202 0.923428 0.000000 
0.314813 0.923430 0.000000 
0.376456 0.923426 0.000000 
0.312500 1.000000 0.000000 
0.438856 0.847338 0.000000 
0.439403 0.771797 0.000000 
0.071890 0.922637 0.000000 
0.131436 0.923319 0.000000 
0.062500 1.000000 0.000000 
0.258943 0.771216 0.000000 
0.196425 0.846953 0.000000 
0.199781 0.770783 0.000000 
0.187500 1.000000 0.000000 
0.192143 0.923429 0.000000 
0.253341 0.923436 0.000000 
0.440049 0.549633 0.000000 
0.439907 0.477550 0.000000 
0.439798 0.696910 0.000000 
0.440016 0.622806 0.000000 
0.320624 0.621971 0.000000 
0.380175 0.622482 0.000000 
0.319974 0.696350 0.000000 
0.316956 0.847231 0.000000 
0.318727 0.771491 0.000000 
0.378933 0.771679 0.000000 
0.015869 0.918120 0.000000 
0.079563 0.844997 0.000000 
0.086374 0.693156 0.000000 
0.084142 0.768461 0.000000 
0.027157 0.765954 0.000000 
0.141480 0.769993 0.000000 
0.201929 0.695223 0.000000 
0.082011 0.402265 0.000000 
0.084410 0.473599 0.000000 
0.025701 0.475081 0.000000 
0.201781 0.474132 0.000000 
0.143033 0.473481 0.000000 
0.200169 0.402597 0.000000 
0.028906 0.618911 0.000000 
0.086125 0.545817 0.000000 
0.086889 0.618977 0.000000 
0.379927 0.477000 0.000000 
0.439593 0.406722 0.000000 
0.261493 0.621300 0.000000 
0.320680 0.548520 0.000000 
0.319287 0.404975 0.000000 
0.320202 0.476144 0.000000 
0.260814 0.475119 0.000000 
0.144737 0.619670 0.000000 
0.202753 0.546785 0.000000 
0.202870 0.620509 0.000000 
0.019875 0.333856 0.000000 
0.079177 0.331762 0.000000 
0.073420 0.193171 0.000000 
0.076217 0.262065 0.000000 
0.013529 0.194841 0.000000 
0.138566 0.331423 0.000000 
0.198116 0.332217 0.000000 
0.069821 -0.008354 0.000000 
0.009497 -0.074472 0.000000 
0.191971 0.128138 0.000000 
0.130423 0.059243 0.000000 
0.009247 0.058161 0.000000 
0.069825 0.057872 0.000000 
0.071152 0.125089 0.000000 
0.378514 0.336449 0.000000 
0.257931 0.333606 0.000000 
0.318069 0.335135 0.000000 
0.316696 0.266741 0.000000 
0.254321 0.197392 0.000000 
0.133488 0.193401 0.000000 
0.193743 0.194996 0.000000 
0.195891 0.263014 0.000000 
0.042078 -0.137396 0.000000 
0.072302 -0.105217 0.000000 
0.041207 -0.105900 0.000000 
0.134546 -0.103038 0.000000 
0.103422 -0.104324 0.000000 
0.104781 -0.135722 0.000000 
0.101011 -0.040214 0.000000 
0.102084 -0.072466 0.000000 
0.131559 -0.038994 0.000000 
0.257632 -0.088155 0.000000 
0.227299 -0.094863 0.000000 
0.231183 -0.126539 0.000000 
0.222347 -0.031450 0.000000 
0.224127 -0.063195 0.000000 
0.252434 -0.026976 0.000000 
0.168035 -0.132466 0.000000 
0.196584 -0.098557 0.000000 
0.165624 -0.101182 0.000000 
0.221697 0.096962 0.000000 
0.221295 0.064514 0.000000 
0.252192 0.099007 0.000000 
0.161053 -0.004828 0.000000 
0.190903 0.029796 0.000000 
0.160655 0.027775 0.000000 
0.251611 0.035297 0.000000 
0.221182 0.032332 0.000000 
0.221472 0.000367 0.000000 
0.163503 -0.069384 0.000000 
0.192235 -0.034777 0.000000 
0.161975 -0.037229 0.000000 
0.500000 -0.071564 0.000000 
0.469543 -0.071573 0.000000 
0.469536 -0.100000 0.000000 
0.469285 -0.013356 0.000000 
0.469434 -0.042667 0.000000 
0.500000 -0.013279 0.000000 
0.408522 -0.100000 0.000000 
0.439077 -0.071669 0.000000 
0.408591 -0.071867 0.000000 
0.468971 0.107940 0.000000 
0.468981 0.076966 0.000000 
0.500000 0.108086 0.000000 
0.407276 0.015446 0.000000 
0.438042 0.046072 0.000000 
0.406982 0.045417 0.000000 
0.500000 0.046573 0.000000 
0.469039 0.046442 0.000000 
0.469144 0.016342 0.000000 
0.281995 -0.100000 0.000000 
0.316924 -0.074029 0.000000 
0.286681 -0.075728 0.000000 
0.378069 -0.072227 0.000000 
0.347501 -0.072872 0.000000 
0.346779 -0.100000 0.000000 
0.345671 -0.016117 0.000000 
0.346657 -0.044711 0.000000 
0.376777 -0.014846 0.000000 
0.438534 -0.013604 0.000000 
0.407712 -0.014069 0.000000 
0.408206 -0.043171 0.000000 
0.469682 0.372009 0.000000 
[...]
POINT_DATA 1089

SCALARS u_h float 2
LOOKUP_TABLE default
0.010911 -0.138159 
-0.010911 -0.138159 
0.000000 0.000000 
0.000000 0.000000 
0.000000 -0.100000 
-0.022958 -0.095761 
0.000000 0.000000 
0.022958 -0.095761 
-0.000000 -0.093144 
-0.002624 -0.097736 
-0.000000 -0.110483 
0.002781 -0.118570 
0.002624 -0.097736 
-0.002781 -0.118570 
-0.010941 -0.123834 
-0.009566 -0.096265 
-0.028841 -0.058019 
-0.010654 -0.054130 
0.000000 0.000000 
0.000000 -0.053004 
0.000000 0.000000 
0.010654 -0.054130 
0.028841 -0.058019 
0.009566 -0.096265 
0.010941 -0.123834 
0.011355 -0.134382 
0.001772 -0.121003 
0.005736 -0.131486 
0.000000 -0.108549 
0.001190 -0.110489 
0.002821 -0.100000 
0.002606 -0.106615 
0.001010 -0.112583 
-0.000000 -0.105173 
-0.002821 -0.100000 
-0.001190 -0.110489 
-0.005736 -0.131486 
-0.001772 -0.121003 
-0.011355 -0.134382 
-0.001010 -0.112583 
-0.002606 -0.106615 
-0.008763 -0.133881 
-0.006503 -0.124141 
-0.016028 -0.098058 
-0.010958 -0.113087 
-0.016625 -0.110927 
-0.006114 -0.110196 
-0.004320 -0.093965 
-0.027758 -0.078369 
-0.019357 -0.078946 
-0.012272 -0.028523 
-0.018884 -0.055669 
-0.023228 -0.033915 
-0.011507 -0.077326 
-0.005229 -0.075801 
0.000000 0.000000 
-0.006432 -0.027864 
0.000000 -0.027639 
-0.002807 -0.027705 
0.000000 0.000000 
-0.004740 -0.053306 
0.000000 -0.075210 
0.000000 0.000000 
0.002807 -0.027705 
0.012272 -0.028523 
0.006432 -0.027864 
0.000000 0.000000 
0.004740 -0.053306 
0.005229 -0.075801 
0.023228 -0.033915 
0.018884 -0.055669 
0.016028 -0.098058 
0.019357 -0.078946 
0.027758 -0.078369 
0.011507 -0.077326 
0.004320 -0.093965 
0.016625 -0.110927 
0.010958 -0.113087 
0.006503 -0.124141 
0.008763 -0.133881 
0.006114 -0.110196 
0.010852 -0.136666 
0.007857 -0.133707 
0.008734 -0.135825 
0.003981 -0.120207 
0.006454 -0.129311 
0.012237 -0.129804 
0.003458 -0.125153 
0.003780 -0.127570 
0.001782 -0.120536 
0.000000 -0.105126 
0.001343 -0.105338 
0.001563 -0.100000 
0.000437 -0.110931 
0.000748 -0.108975 
-0.000000 -0.110390 
0.002542 -0.100000 
0.002492 -0.106246 
0.003131 -0.108882 
0.001688 -0.100192 
0.001243 -0.105542 
-0.000000 -0.099919 
0.001671 -0.115195 
0.001717 -0.110512 
0.002832 -0.112586 
-0.000000 -0.108733 
0.000816 -0.109192 
0.000502 -0.111016 
0.001145 -0.114111 
0.000721 -0.112639 
0.000970 -0.115858 
-0.001563 -0.100000 
-0.001343 -0.105338 
-0.003131 -0.108882 
-0.002492 -0.106246 
-0.002542 -0.100000 
-0.000748 -0.108975 
-0.000437 -0.110931 
-0.008734 -0.135825 
-0.007857 -0.133707 
-0.010852 -0.136666 
-0.001782 -0.120536 
-0.003780 -0.127570 
-0.003458 -0.125153 
-0.012237 -0.129804 
-0.006454 -0.129311 
-0.003981 -0.120207 
-0.001243 -0.105542 
-0.001688 -0.100192 
-0.000502 -0.111016 
-0.000816 -0.109192 
-0.002832 -0.112586 
-0.001717 -0.110512 
-0.001671 -0.115195 
-0.001145 -0.114111 
-0.000970 -0.115858 
-0.000721 -0.112639 
-0.009497 -0.136972 
-0.007321 -0.133354 
-0.008652 -0.124911 
-0.007325 -0.129628 
-0.009247 -0.129339 
-0.005423 -0.128257 
-0.004471 -0.121862 
-0.019511 -0.097735 
-0.016677 -0.105738 
-0.019875 -0.103644 
-0.010616 -0.105283 
-0.013566 -0.106077 
-0.012669 -0.097403 
-0.013529 -0.117659 
-0.013717 -0.112935 
-0.010920 -0.119329 
-0.003514 -0.101051 
-0.002093 -0.093278 
-0.004321 -0.115108 
-0.004196 -0.108259 
-0.006787 -0.095025 
-0.005569 -0.102365 
-0.007931 -0.103894 
-0.008488 -0.119099 
-0.008391 -0.111986 
-0.006243 -0.117504 
-0.025701 -0.087419 
-0.021910 -0.088901 
-0.024389 -0.068523 
-0.023625 -0.079183 
-0.028906 -0.068589 
-0.018033 -0.089019 
-0.014281 -0.088368 
-0.009390 -0.014863 
-0.017063 -0.030003 
-0.015869 -0.019380 
-0.014429 -0.054777 
-0.016480 -0.042507 
-0.012281 -0.041717 
-0.027157 -0.046546 
-0.021642 -0.044039 
-0.023874 -0.056844 
-0.004927 -0.085500 
-0.002407 -0.084950 
-0.010814 -0.087381 
-0.007702 -0.086356 
-0.008124 -0.065529 
-0.008180 -0.076480 
-0.011493 -0.066200 
-0.019737 -0.067830 
-0.015370 -0.066991 
-0.015253 -0.078215 
0.000000 0.000000 
-0.006436 -0.014181 
-0.003341 -0.014064 
-0.004643 -0.014071 
0.000000 0.000000 
-0.008925 -0.028047 
-0.008943 -0.041284 
0.000000 -0.014067 
-0.000702 -0.014072 
0.000000 0.000000 
-0.001903 -0.040703 
-0.001356 -0.027662 
0.000000 -0.040651 
0.000000 0.000000 
-0.001456 -0.014074 
-0.002313 -0.014070 
-0.002549 -0.075367 
-0.000000 -0.084776 
-0.007474 -0.053650 
-0.005175 -0.065018 
0.000000 -0.064571 
-0.002516 -0.064694 
-0.002298 -0.053090 
-0.004456 -0.027769 
-0.003933 -0.040821 
-0.006227 -0.041009 
0.000000 0.000000 
0.000702 -0.014072 
0.002313 -0.014070 
0.001456 -0.014074 
0.000000 0.000000 
0.001356 -0.027662 
0.001903 -0.040703 
0.009390 -0.014863 
0.006436 -0.014181 
0.000000 0.000000 
0.008943 -0.041284 
0.008925 -0.028047 
0.012281 -0.041717 
0.000000 0.000000 
0.004643 -0.014071 
0.003341 -0.014064 
0.002549 -0.075367 
0.002407 -0.084950 
0.002298 -0.053090 
0.002516 -0.064694 
0.008124 -0.065529 
0.005175 -0.065018 
0.007474 -0.053650 
0.004456 -0.027769 
0.006227 -0.041009 
0.003933 -0.040821 
0.015869 -0.019380 
0.017063 -0.030003 
0.023874 -0.056844 
0.021642 -0.044039 
0.027157 -0.046546 
0.016480 -0.042507 
0.014429 -0.054777 
0.019511 -0.097735 
0.021910 -0.088901 
0.025701 -0.087419 
0.014281 -0.088368 
0.018033 -0.089019 
0.012669 -0.097403 
0.028906 -0.068589 
0.023625 -0.079183 
0.024389 -0.068523 
0.004927 -0.085500 
0.002093 -0.093278 
0.011493 -0.066200 
0.008180 -0.076480 
0.006787 -0.095025 
0.007702 -0.086356 
0.010814 -0.087381 
0.019737 -0.067830 
0.015253 -0.078215 
0.015370 -0.066991 
0.019875 -0.103644 
0.016677 -0.105738 
0.010920 -0.119329 
0.013717 -0.112935 
0.013529 -0.117659 
0.013566 -0.106077 
0.010616 -0.105283 
0.007321 -0.133354 
0.009497 -0.136972 
0.004471 -0.121862 
0.005423 -0.128257 
0.009247 -0.129339 
0.007325 -0.129628 
0.008652 -0.124911 
0.003514 -0.101051 
0.007931 -0.103894 
0.005569 -0.102365 
0.004196 -0.108259 
0.004321 -0.115108 
0.008488 -0.119099 
0.006243 -0.117504 
0.008391 -0.111986 
0.010828 -0.137396 
0.009802 -0.136467 
0.009957 -0.137150 
0.009546 -0.134288 
0.009672 -0.135574 
0.011031 -0.135722 
0.007261 -0.133964 
0.008334 -0.134966 
0.006559 -0.132744 
0.007632 -0.119405 
0.008549 -0.126113 
0.012433 -0.126539 
0.003597 -0.125200 
0.005377 -0.125695 
0.002434 -0.120726 
0.011785 -0.132466 
0.009084 -0.129807 
0.009374 -0.132432 
0.002947 -0.121788 
0.002545 -0.122986 
0.002192 -0.119743 
0.004803 -0.129828 
0.003403 -0.126454 
0.004405 -0.128475 
0.001611 -0.120953 
0.002432 -0.123918 
0.002722 -0.124633 
0.007253 -0.131884 
0.004735 -0.128527 
0.005725 -0.130979 
0.000000 -0.102814 
0.000793 -0.102823 
0.000786 -0.100000 
0.000535 -0.107106 
0.000684 -0.105167 
0.000000 -0.107029 
0.002272 -0.100000 
0.001577 -0.102919 
0.002341 -0.103117 
0.000221 -0.110810 
0.000231 -0.110534 
-0.000000 -0.110664 
0.001026 -0.109554 
0.000542 -0.110178 
0.000732 -0.110833 
-0.000000 -0.109677 
0.000289 -0.109808 
0.000394 -0.108658 
0.000745 -0.100000 
0.004424 -0.105279 
0.005431 -0.106978 
0.003069 -0.103477 
0.003751 -0.104122 
0.003029 -0.100000 
0.001921 -0.109867 
0.002907 -0.107211 
0.001777 -0.108596 
0.001034 -0.107354 
0.001462 -0.107819 
0.001956 -0.105671 
0.000932 -0.096741 
0.000831 -0.099979 
-0.000000 -0.096709 
0.001903 -0.105996 
0.001468 -0.103071 
0.002244 -0.103477 
-0.000000 -0.102749 
0.000724 -0.102826 
0.000613 -0.105266 
0.002152 -0.116824 
0.002213 -0.114116 
0.002795 -0.115531 
0.001328 -0.111786 
0.001733 -0.112853 
0.001304 -0.113766 
0.002790 -0.109636 
0.002238 -0.111468 
0.002150 -0.108782 
-0.000000 -0.109839 
0.000316 -0.109971 
0.000253 -0.110624 
0.000504 -0.107280 
0.000403 -0.108853 
-0.000000 -0.107173 
0.000751 -0.111666 
0.000637 -0.110339 
0.000970 -0.110945 
0.001566 -0.108092 
0.001249 -0.109748 
0.001022 -0.107588 
0.002769 -0.112651 
0.001212 -0.111943 
0.001809 -0.112035 
0.001687 -0.115521 
0.001199 -0.117120 
0.000429 -0.111214 
0.000794 -0.112876 
0.000617 -0.111894 
0.000601 -0.111618 
0.000838 -0.111848 
0.001625 -0.117677 
0.001090 -0.117901 
0.001255 -0.118054 
0.001243 -0.115791 
0.000986 -0.114176 
0.000873 -0.113320 
0.000823 -0.114045 
0.000909 -0.115332 
-0.000786 -0.100000 
-0.000793 -0.102823 
-0.002341 -0.103117 
-0.001577 -0.102919 
-0.002272 -0.100000 
-0.000684 -0.105167 
-0.000535 -0.107106 
-0.005431 -0.106978 
-0.004424 -0.105279 
-0.000745 -0.100000 
-0.001777 -0.108596 
-0.002907 -0.107211 
-0.001921 -0.109867 
-0.003029 -0.100000 
-0.003751 -0.104122 
-0.003069 -0.103477 
-0.000231 -0.110534 
-0.000221 -0.110810 
-0.000394 -0.108658 
-0.000289 -0.109808 
-0.000732 -0.110833 
-0.000542 -0.110178 
-0.001026 -0.109554 
-0.001956 -0.105671 
-0.001462 -0.107819 
-0.001034 -0.107354 
-0.009957 -0.137150 
-0.009802 -0.136467 
-0.010828 -0.137396 
-0.006559 -0.132744 
-0.008334 -0.134966 
-0.007261 -0.133964 
-0.011031 -0.135722 
-0.009672 -0.135574 
-0.009546 -0.134288 
-0.002192 -0.119743 
-0.002545 -0.122986 
-0.002947 -0.121788 
-0.002722 -0.124633 
-0.002432 -0.123918 
-0.001611 -0.120953 
-0.004405 -0.128475 
-0.003403 -0.126454 
-0.004803 -0.129828 
-0.012433 -0.126539 
-0.008549 -0.126113 
-0.007632 -0.119405 
-0.009374 -0.132432 
-0.009084 -0.129807 
-0.011785 -0.132466 
-0.002434 -0.120726 
-0.005377 -0.125695 
-0.003597 -0.125200 
-0.005725 -0.130979 
-0.004735 -0.128527 
-0.007253 -0.131884 
-0.000831 -0.099979 
-0.000932 -0.096741 
-0.000613 -0.105266 
-0.000724 -0.102826 
-0.002244 -0.103477 
-0.001468 -0.103071 
-0.001903 -0.105996 
-0.000253 -0.110624 
-0.000316 -0.109971 
-0.000970 -0.110945 
-0.000637 -0.110339 
-0.000751 -0.111666 
-0.000403 -0.108853 
-0.000504 -0.107280 
-0.002795 -0.115531 
-0.002213 -0.114116 
-0.002152 -0.116824 
-0.002150 -0.108782 
-0.002238 -0.111468 
-0.002790 -0.109636 
-0.001304 -0.113766 
-0.001733 -0.112853 
-0.001328 -0.111786 
-0.001022 -0.107588 
-0.001249 -0.109748 
-0.001566 -0.108092 
-0.002769 -0.112651 
-0.001199 -0.117120 
-0.001687 -0.115521 
-0.001809 -0.112035 
-0.001212 -0.111943 
-0.001625 -0.117677 
-0.000986 -0.114176 
-0.001243 -0.115791 
-0.001255 -0.118054 
-0.001090 -0.117901 
-0.000429 -0.111214 
-0.000838 -0.111848 
-0.000601 -0.111618 
-0.000617 -0.111894 
-0.000794 -0.112876 
-0.000909 -0.115332 
-0.000823 -0.114045 
-0.000873 -0.113320 
-0.010163 -0.137817 
-0.009104 -0.136440 
-0.008031 -0.133742 
-0.008426 -0.135287 
-0.008999 -0.135643 
-0.007868 -0.134770 
-0.006569 -0.132631 
-0.009766 -0.124628 
-0.008873 -0.127267 
-0.009959 -0.126683 
-0.006833 -0.127058 
-0.007844 -0.127383 
-0.007568 -0.124735 
-0.008842 -0.131757 
-0.008262 -0.129688 
-0.007974 -0.131860 
-0.003840 -0.123631 
-0.003564 -0.120295 
-0.005374 -0.129983 
-0.004437 -0.126922 
-0.005463 -0.123167 
-0.004814 -0.125159 
-0.005821 -0.126311 
-0.007141 -0.131628 
-0.006387 -0.129155 
-0.006284 -0.131018 
-0.021249 -0.097010 
-0.019789 -0.101067 
-0.021460 -0.099781 
-0.016468 -0.102186 
-0.018125 -0.101838 
-0.017764 -0.098055 
-0.018250 -0.107357 
-0.018267 -0.104952 
-0.016709 -0.108664 
-0.010194 -0.100905 
-0.011679 -0.101489 
-0.011080 -0.096868 
-0.012263 -0.109707 
-0.012064 -0.105786 
-0.010858 -0.109359 
-0.014324 -0.097819 
-0.013229 -0.101940 
-0.014831 -0.102195 
-0.012148 -0.120820 
-0.012197 -0.118769 
-0.010891 -0.121790 
-0.015151 -0.112204 
-0.013633 -0.115572 
-0.015036 -0.114360 
-0.010961 -0.116423 
-0.012277 -0.116233 
-0.012318 -0.113203 
-0.015107 -0.106086 
-0.013713 -0.109758 
-0.015196 -0.109437 
-0.001898 -0.096921 
-0.001038 -0.093123 
-0.003066 -0.104032 
-0.002579 -0.100554 
-0.003183 -0.093565 
-0.002895 -0.097243 
-0.003937 -0.097689 
-0.003503 -0.117023 
-0.003522 -0.113820 
-0.005110 -0.109215 
-0.004302 -0.111710 
-0.005201 -0.112830 
-0.003502 -0.110627 
-0.003366 -0.107380 
-0.008135 -0.095638 
-0.007454 -0.099549 
-0.008783 -0.100242 
-0.005037 -0.098239 
-0.006207 -0.098869 
-0.005518 -0.094459 
-0.007033 -0.107215 
-0.006709 -0.103123 
-0.005920 -0.106349 
-0.003944 -0.104716 
-0.004892 -0.105501 
-0.004507 -0.101664 
-0.009695 -0.122224 
-0.009686 -0.116217 
-0.009685 -0.119417 
-0.008537 -0.122188 
-0.007411 -0.121739 
-0.009235 -0.104633 
-0.007210 -0.111143 
-0.008232 -0.108047 
-0.009510 -0.108783 
-0.009645 -0.112657 
-0.004341 -0.118491 
-0.006322 -0.120932 
-0.005289 -0.119824 
-0.005232 -0.116365 
-0.006200 -0.113916 
-0.008457 -0.115684 
-0.007290 -0.114893 
-0.007336 -0.118440 
-0.024407 -0.091680 
-0.022612 -0.092787 
-0.024878 -0.083765 
-0.023830 -0.088374 
-0.026827 -0.082983 
-0.020780 -0.093426 
-0.018936 -0.093691 
-0.026734 -0.063202 
-0.026695 -0.068681 
-0.029048 -0.063408 
-0.021488 -0.079156 
-0.024145 -0.073975 
-0.021907 -0.073814 
-0.028463 -0.073574 
-0.026346 -0.073927 
-0.025728 -0.078952 
-0.013541 -0.093028 
-0.011855 -0.092529 
-0.017099 -0.093667 
-0.015295 -0.093425 
-0.016798 -0.083822 
-0.016129 -0.088759 
-0.018796 -0.084112 
-0.022869 -0.084156 
-0.020831 -0.084245 
-0.019969 -0.089089 
-0.006038 -0.007830 
-0.012069 -0.016210 
-0.009957 -0.010704 
-0.014447 -0.029059 
-0.013642 -0.022533 
-0.011308 -0.021735 
-0.020097 -0.026977 
-0.016652 -0.024134 
-0.020083 -0.031567 
-0.012459 -0.054428 
-0.013511 -0.048341 
-0.011620 -0.048038 
-0.017895 -0.049207 
-0.015600 -0.048721 
-0.016573 -0.055187 
-0.012540 -0.035198 
-0.014259 -0.042047 
-0.014608 -0.035597 
-0.028234 -0.052406 
-0.025672 -0.051477 
-0.026412 -0.057473 
-0.022619 -0.038564 
-0.024439 -0.045186 
-0.025527 -0.040402 
-0.021336 -0.056226 
-0.023007 -0.050589 
-0.020382 -0.049825 
-0.016992 -0.036221 
-0.018954 -0.043153 
-0.019695 -0.037179 
-0.002272 -0.089281 
-0.001137 -0.089140 
-0.004658 -0.089895 
-0.003440 -0.089537 
-0.003785 -0.080511 
-0.003642 -0.085180 
-0.005120 -0.080796 
-0.010249 -0.091975 
-0.008728 -0.091404 
-0.009573 -0.082016 
-0.009213 -0.086858 
-0.011240 -0.082494 
-0.007292 -0.090849 
-0.005938 -0.090339 
-0.009465 -0.059966 
-0.009749 -0.065846 
-0.011182 -0.060273 
-0.006663 -0.076114 
-0.008224 -0.071130 
-0.006693 -0.070808 
-0.011597 -0.071890 
-0.009855 -0.071494 
-0.009792 -0.076889 
-0.006276 -0.085897 
-0.008003 -0.081561 
-0.006522 -0.081150 
-0.024315 -0.062817 
-0.019484 -0.061879 
-0.021875 -0.062355 
-0.022050 -0.068216 
-0.019683 -0.073519 
-0.013038 -0.060618 
-0.013456 -0.072307 
-0.013366 -0.066583 
-0.015043 -0.061001 
-0.017196 -0.061423 
-0.012505 -0.087895 
-0.017269 -0.078617 
-0.014860 -0.083429 
-0.013004 -0.082974 
-0.013329 -0.077775 
-0.017500 -0.067412 
-0.015432 -0.072732 
-0.017514 -0.073146 
0.000000 0.000000 
-0.004641 -0.007290 
-0.003203 -0.007058 
-0.003806 -0.007117 
0.000000 0.000000 
-0.007680 -0.014377 
-0.009513 -0.021357 
-0.001679 -0.007062 
-0.001982 -0.007052 
0.000000 0.000000 
-0.005840 -0.021030 
-0.003949 -0.014063 
-0.004940 -0.021002 
0.000000 0.000000 
-0.002326 -0.007043 
-0.002725 -0.007042 
-0.010520 -0.041472 
-0.009906 -0.047792 
-0.010460 -0.028222 
-0.010744 -0.034939 
-0.007777 -0.034633 
-0.009171 -0.034762 
-0.007598 -0.027938 
-0.005456 -0.014101 
-0.006869 -0.021079 
-0.008071 -0.021173 
0.000000 -0.007093 
-0.000175 -0.007094 
0.000000 0.000000 
-0.000515 -0.020924 
-0.000348 -0.014070 
0.000000 -0.020918 
0.000000 0.000000 
-0.000353 -0.007094 
-0.000538 -0.007092 
-0.001052 -0.046939 
-0.000943 -0.040669 
0.000000 -0.046917 
-0.002063 -0.027681 
-0.001646 -0.034257 
-0.002504 -0.034290 
0.000000 -0.034221 
-0.000816 -0.034234 
-0.000672 -0.027648 
0.000000 0.000000 
-0.001164 -0.007079 
-0.001409 -0.007071 
-0.000733 -0.007089 
-0.000940 -0.007085 
0.000000 0.000000 
-0.002761 -0.020958 
-0.001868 -0.014073 
-0.002153 -0.020948 
-0.001039 -0.020931 
-0.001582 -0.020939 
-0.001070 -0.014073 
-0.001201 -0.084816 
-0.000000 -0.089115 
-0.003864 -0.075550 
-0.002499 -0.080305 
0.000000 -0.080136 
-0.001244 -0.080180 
-0.001267 -0.075253 
-0.008998 -0.053872 
-0.007875 -0.059695 
-0.005006 -0.059268 
-0.006394 -0.059462 
-0.006061 -0.053462 
-0.006605 -0.065251 
-0.005249 -0.070535 
0.000000 -0.058894 
-0.001206 -0.058926 
-0.001140 -0.053031 
-0.001269 -0.070056 
-0.001249 -0.064607 
0.000000 -0.070016 
-0.003492 -0.053182 
-0.002430 -0.058999 
-0.003690 -0.059113 
-0.003876 -0.070317 
-0.003818 -0.064831 
-0.002555 -0.070156 
-0.002800 -0.014067 
-0.003600 -0.027734 
-0.003419 -0.020970 
-0.004140 -0.020984 
-0.005394 -0.027811 
-0.002121 -0.046986 
-0.004380 -0.047150 
-0.003225 -0.047056 
-0.002894 -0.040753 
-0.003405 -0.034334 
-0.008348 -0.047587 
-0.006529 -0.034534 
-0.007521 -0.041133 
-0.006922 -0.047414 
-0.005606 -0.047270 
-0.004364 -0.034388 
-0.005038 -0.040905 
-0.005399 -0.034454 
0.000000 0.000000 
0.000175 -0.007094 
0.000538 -0.007092 
0.000353 -0.007094 
0.000000 0.000000 
0.000348 -0.014070 
0.000515 -0.020924 
0.001409 -0.007071 
0.001164 -0.007079 
0.000000 0.000000 
0.002153 -0.020948 
0.001868 -0.014073 
0.002761 -0.020958 
0.000000 0.000000 
0.000940 -0.007085 
0.000733 -0.007089 
0.000943 -0.040669 
0.001052 -0.046939 
0.000672 -0.027648 
0.000816 -0.034234 
0.002504 -0.034290 
0.001646 -0.034257 
0.002063 -0.027681 
0.001070 -0.014073 
0.001582 -0.020939 
0.001039 -0.020931 
0.006038 -0.007830 
0.004641 -0.007290 
0.000000 0.000000 
0.009513 -0.021357 
0.007680 -0.014377 
0.011308 -0.021735 
0.000000 0.000000 
0.003806 -0.007117 
0.003203 -0.007058 
0.009906 -0.047792 
0.010520 -0.041472 
0.011620 -0.048038 
0.007598 -0.027938 
0.009171 -0.034762 
0.007777 -0.034633 
0.012540 -0.035198 
0.010744 -0.034939 
0.010460 -0.028222 
0.000000 0.000000 
0.001982 -0.007052 
0.001679 -0.007062 
0.002725 -0.007042 
0.002326 -0.007043 
0.000000 0.000000 
0.004940 -0.021002 
0.003949 -0.014063 
0.005840 -0.021030 
0.008071 -0.021173 
0.006869 -0.021079 
0.005456 -0.014101 
0.001201 -0.084816 
0.001137 -0.089140 
0.001267 -0.075253 
0.001244 -0.080180 
0.003785 -0.080511 
0.002499 -0.080305 
0.003864 -0.075550 
0.001140 -0.053031 
0.001206 -0.058926 
0.003690 -0.059113 
0.002430 -0.058999 
0.003492 -0.053182 
0.001249 -0.064607 
0.001269 -0.070056 
0.009465 -0.059966 
0.007875 -0.059695 
0.008998 -0.053872 
0.005249 -0.070535 
0.006605 -0.065251 
0.006693 -0.070808 
0.006061 -0.053462 
0.006394 -0.059462 
0.005006 -0.059268 
0.002555 -0.070156 
0.003818 -0.064831 
0.003876 -0.070317 
0.002800 -0.014067 
0.005394 -0.027811 
0.004140 -0.020984 
0.003419 -0.020970 
0.003600 -0.027734 
0.008348 -0.047587 
0.005606 -0.047270 
0.006922 -0.047414 
0.007521 -0.041133 
0.006529 -0.034534 
0.002121 -0.046986 
0.003405 -0.034334 
0.002894 -0.040753 
0.003225 -0.047056 
0.004380 -0.047150 
0.005399 -0.034454 
0.005038 -0.040905 
0.004364 -0.034388 
0.009957 -0.010704 
0.012069 -0.016210 
0.020083 -0.031567 
0.016652 -0.024134 
0.020097 -0.026977 
0.013642 -0.022533 
0.014447 -0.029059 
0.026412 -0.057473 
0.025672 -0.051477 
0.028234 -0.052406 
0.020382 -0.049825 
0.023007 -0.050589 
0.021336 -0.056226 
0.025527 -0.040402 
0.024439 -0.045186 
0.022619 -0.038564 
0.013511 -0.048341 
0.012459 -0.054428 
0.014608 -0.035597 
0.014259 -0.042047 
0.016573 -0.055187 
0.015600 -0.048721 
0.017895 -0.049207 
0.019695 -0.037179 
0.018954 -0.043153 
0.016992 -0.036221 
0.021249 -0.097010 
0.022612 -0.092787 
0.024407 -0.091680 
0.018936 -0.093691 
0.020780 -0.093426 
0.017764 -0.098055 
0.026827 -0.082983 
0.023830 -0.088374 
0.024878 -0.083765 
0.011855 -0.092529 
0.013541 -0.093028 
0.011080 -0.096868 
0.018796 -0.084112 
0.016129 -0.088759 
0.016798 -0.083822 
0.014324 -0.097819 
0.015295 -0.093425 
0.017099 -0.093667 
0.029048 -0.063408 
0.026695 -0.068681 
0.026734 -0.063202 
0.025728 -0.078952 
0.026346 -0.073927 
0.028463 -0.073574 
0.021907 -0.073814 
0.024145 -0.073975 
0.021488 -0.079156 
0.019969 -0.089089 
0.020831 -0.084245 
0.022869 -0.084156 
0.002272 -0.089281 
0.001038 -0.093123 
0.005120 -0.080796 
0.003642 -0.085180 
0.003183 -0.093565 
0.003440 -0.089537 
0.004658 -0.089895 
0.011182 -0.060273 
0.009749 -0.065846 
0.009792 -0.076889 
0.009855 -0.071494 
0.011597 -0.071890 
0.008224 -0.071130 
0.006663 -0.076114 
0.008135 -0.095638 
0.008728 -0.091404 
0.010249 -0.091975 
0.005938 -0.090339 
0.007292 -0.090849 