# vtk DataFile Version 2.0
Unstructured Grid Example
ASCII
DATASET UNSTRUCTURED_GRID

POINTS 16 float
0.000000 0.000000 0.000000 
0.125000 0.000000 0.000000 
0.125000 3.383559 0.000000 
0.250000 -6.767117 0.000000 
0.250000 2.307789 0.000000 
0.375000 -14.766255 0.000000 
0.375000 -7.535122 0.000000 
0.500000 -12.154475 0.000000 
0.500000 -12.154475 0.000000 
0.625000 -7.535122 0.000000 
0.625000 -14.766255 0.000000 
0.750000 2.307789 0.000000 
0.750000 -6.767117 0.000000 
0.875000 3.383559 0.000000 
0.875000 0.000000 0.000000 
1.000000 0.000000 0.000000 

CELLS 8 24
2  0 1 
2  2 3 
2  4 5 
2  6 7 
2  8 9 
2  10 11 
2  12 13 
2  14 15 

CELL_TYPES 8
3
3
3
3
3
3
3
3

POINT_DATA 16

SCALARS lambda_h float 1
LOOKUP_TABLE default
0.000000 
0.000000 
3.383559 
-6.767117 
2.307789 
-14.766255 
-7.535122 
-12.154475 
-12.154475 
-7.535122 
-14.766255 
2.307789 
-6.767117 
3.383559 
0.000000 
0.000000 

