# vtk DataFile Version 2.0
Unstructured Grid Example
ASCII
DATASET UNSTRUCTURED_GRID

POINTS 32 float
0.000000 0.000000 0.000000 
0.062500 0.000000 0.000000 
0.062500 0.000000 0.000000 
0.125000 0.000000 0.000000 
0.125000 0.000000 0.000000 
0.187500 0.000000 0.000000 
0.187500 3.982563 0.000000 
0.250000 -7.965126 0.000000 
0.375000 -7.471560 0.000000 
0.437500 -11.651321 0.000000 
0.437500 -9.754749 0.000000 
0.500000 -11.264703 0.000000 
0.250000 -1.242387 0.000000 
0.312500 -9.462915 0.000000 
0.312500 -4.580664 0.000000 
0.375000 -11.006888 0.000000 
0.500000 -11.264703 0.000000 
0.562500 -9.754749 0.000000 
0.562500 -11.651321 0.000000 
0.625000 -7.471560 0.000000 
0.625000 -11.006888 0.000000 
0.687500 -4.580664 0.000000 
0.687500 -9.462915 0.000000 
0.750000 -1.242387 0.000000 
0.875000 0.000000 0.000000 
0.937500 0.000000 0.000000 
0.937500 0.000000 0.000000 
1.000000 0.000000 0.000000 
0.750000 -7.965126 0.000000 
0.812500 3.982563 0.000000 
0.812500 0.000000 0.000000 
0.875000 0.000000 0.000000 

CELLS 16 48
2  0 1 
2  2 3 
2  4 5 
2  6 7 
2  8 9 
2  10 11 
2  12 13 
2  14 15 
2  16 17 
2  18 19 
2  20 21 
2  22 23 
2  24 25 
2  26 27 
2  28 29 
2  30 31 

CELL_TYPES 16
3
3
3
3
3
3
3
3
3
3
3
3
3
3
3
3

POINT_DATA 32

SCALARS lambda_h float 1
LOOKUP_TABLE default
0.000000 
0.000000 
0.000000 
0.000000 
0.000000 
0.000000 
3.982563 
-7.965126 
-7.471560 
-11.651321 
-9.754749 
-11.264703 
-1.242387 
-9.462915 
-4.580664 
-11.006888 
-11.264703 
-9.754749 
-11.651321 
-7.471560 
-11.006888 
-4.580664 
-9.462915 
-1.242387 
0.000000 
0.000000 
0.000000 
0.000000 
-7.965126 
3.982563 
0.000000 
0.000000 

