# vtk DataFile Version 2.0
Unstructured Grid Example
ASCII
DATASET UNSTRUCTURED_GRID

POINTS 64 float
0.000000 0.000000 0.000000 
0.031250 0.000000 0.000000 
0.031250 0.000000 0.000000 
0.062500 0.000000 0.000000 
0.062500 0.000000 0.000000 
0.093750 0.000000 0.000000 
0.093750 0.000000 0.000000 
0.125000 0.000000 0.000000 
0.187500 2.126621 0.000000 
0.218750 -4.253241 0.000000 
0.218750 -0.440725 0.000000 
0.250000 -5.498412 0.000000 
0.125000 0.000000 0.000000 
0.156250 0.000000 0.000000 
0.156250 0.000000 0.000000 
0.187500 0.000000 0.000000 
0.437500 -9.946906 0.000000 
0.468750 -11.167002 0.000000 
0.468750 -10.610008 0.000000 
0.500000 -11.060894 0.000000 
0.375000 -7.878018 0.000000 
0.406250 -10.575797 0.000000 
0.406250 -8.999471 0.000000 
0.437500 -11.030672 0.000000 
0.250000 -2.418570 0.000000 
0.281250 -6.600409 0.000000 
0.281250 -3.908757 0.000000 
0.312500 -7.801873 0.000000 
0.312500 -5.303298 0.000000 
0.343750 -8.905908 0.000000 
0.343750 -6.632798 0.000000 
0.375000 -9.849518 0.000000 
0.500000 -11.060894 0.000000 
0.531250 -10.610008 0.000000 
0.531250 -11.167002 0.000000 
0.562500 -9.946906 0.000000 
0.562500 -11.030672 0.000000 
0.593750 -8.999471 0.000000 
0.593750 -10.575797 0.000000 
0.625000 -7.878018 0.000000 
0.687500 -7.801873 0.000000 
0.718750 -3.908757 0.000000 
0.718750 -6.600409 0.000000 
0.750000 -2.418570 0.000000 
0.625000 -9.849518 0.000000 
0.656250 -6.632798 0.000000 
0.656250 -8.905908 0.000000 
0.687500 -5.303298 0.000000 
0.937500 0.000000 0.000000 
0.968750 0.000000 0.000000 
0.968750 0.000000 0.000000 
1.000000 0.000000 0.000000 
0.875000 0.000000 0.000000 
0.906250 0.000000 0.000000 
0.906250 0.000000 0.000000 
0.937500 0.000000 0.000000 
0.750000 -5.498412 0.000000 
0.781250 -0.440725 0.000000 
0.781250 -4.253241 0.000000 
0.812500 2.126621 0.000000 
0.812500 0.000000 0.000000 
0.843750 0.000000 0.000000 
0.843750 0.000000 0.000000 
0.875000 0.000000 0.000000 

CELLS 32 96
2  0 1 
2  2 3 
2  4 5 
2  6 7 
2  8 9 
2  10 11 
2  12 13 
2  14 15 
2  16 17 
2  18 19 
2  20 21 
2  22 23 
2  24 25 
2  26 27 
2  28 29 
2  30 31 
2  32 33 
2  34 35 
2  36 37 
2  38 39 
2  40 41 
2  42 43 
2  44 45 
2  46 47 
2  48 49 
2  50 51 
2  52 53 
2  54 55 
2  56 57 
2  58 59 
2  60 61 
2  62 63 

CELL_TYPES 32
3
3
3
3
3
3
3
3
3
3
3
3
3
3
3
3
3
3
3
3
3
3
3
3
3
3
3
3
3
3
3
3

POINT_DATA 64

SCALARS lambda_h float 1
LOOKUP_TABLE default
0.000000 
0.000000 
0.000000 
0.000000 
0.000000 
0.000000 
0.000000 
0.000000 
2.126621 
-4.253241 
-0.440725 
-5.498412 
0.000000 
0.000000 
0.000000 
0.000000 
-9.946906 
-11.167002 
-10.610008 
-11.060894 
-7.878018 
-10.575797 
-8.999471 
-11.030672 
-2.418570 
-6.600409 
-3.908757 
-7.801873 
-5.303298 
-8.905908 
-6.632798 
-9.849518 
-11.060894 
-10.610008 
-11.167002 
-9.946906 
-11.030672 
-8.999471 
-10.575797 
-7.878018 
-7.801873 
-3.908757 
-6.600409 
-2.418570 
-9.849518 
-6.632798 
-8.905908 
-5.303298 
0.000000 
0.000000 
0.000000 
0.000000 
0.000000 
0.000000 
0.000000 
0.000000 
-5.498412 
-0.440725 
-4.253241 
2.126621 
0.000000 
0.000000 
0.000000 
0.000000 

