# vtk DataFile Version 2.0
Unstructured Grid Example
ASCII
DATASET UNSTRUCTURED_GRID

POINTS 256 float
0.000000 0.000000 0.000000 
0.007812 0.000000 0.000000 
0.007812 0.000000 0.000000 
0.015625 0.000000 0.000000 
0.015625 0.000000 0.000000 
0.023438 0.000000 0.000000 
0.023438 0.000000 0.000000 
0.031250 0.000000 0.000000 
0.046875 0.000000 0.000000 
0.054688 0.000000 0.000000 
0.054688 0.000000 0.000000 
0.062500 0.000000 0.000000 
0.031250 0.000000 0.000000 
0.039062 0.000000 0.000000 
0.039062 0.000000 0.000000 
0.046875 0.000000 0.000000 
0.109375 0.000000 0.000000 
0.117188 0.000000 0.000000 
0.117188 0.000000 0.000000 
0.125000 0.000000 0.000000 
0.093750 0.000000 0.000000 
0.101562 0.000000 0.000000 
0.101562 0.000000 0.000000 
0.109375 0.000000 0.000000 
0.062500 0.000000 0.000000 
0.070312 0.000000 0.000000 
0.070312 0.000000 0.000000 
0.078125 0.000000 0.000000 
0.078125 0.000000 0.000000 
0.085938 0.000000 0.000000 
0.085938 0.000000 0.000000 
0.093750 0.000000 0.000000 
0.234375 -2.557759 0.000000 
0.242188 -3.717479 0.000000 
0.242188 -2.955822 0.000000 
0.250000 -4.081072 0.000000 
0.218750 -1.701577 0.000000 
0.226562 -2.963909 0.000000 
0.226562 -2.141932 0.000000 
0.234375 -3.345532 0.000000 
0.187500 0.393035 0.000000 
0.195312 -0.786070 0.000000 
0.195312 0.377947 0.000000 
0.203125 -1.934998 0.000000 
0.203125 -0.655566 0.000000 
0.210938 -2.180917 0.000000 
0.210938 -1.222579 0.000000 
0.218750 -2.572242 0.000000 
0.125000 0.000000 0.000000 
0.132812 0.000000 0.000000 
0.132812 0.000000 0.000000 
0.140625 0.000000 0.000000 
0.140625 0.000000 0.000000 
0.148438 0.000000 0.000000 
0.148438 0.000000 0.000000 
0.156250 0.000000 0.000000 
0.171875 0.000000 0.000000 
0.179688 0.000000 0.000000 
0.179688 0.000000 0.000000 
0.187500 0.000000 0.000000 
0.156250 0.000000 0.000000 
0.164062 0.000000 0.000000 
0.164062 0.000000 0.000000 
0.171875 0.000000 0.000000 
0.484375 -10.918969 0.000000 
0.492188 -11.001610 0.000000 
0.492188 -10.962647 0.000000 
0.500000 -10.996894 0.000000 
0.468750 -10.767770 0.000000 
0.476562 -10.965470 0.000000 
0.476562 -10.852624 0.000000 
0.484375 -10.993462 0.000000 
0.437500 -10.251875 0.000000 
0.445312 -10.663702 0.000000 
0.445312 -10.406220 0.000000 
0.453125 -10.766839 0.000000 
0.453125 -10.544053 0.000000 
0.460938 -10.851792 0.000000 
0.460938 -10.664755 0.000000 
0.468750 -10.918128 0.000000 
0.375000 -8.509433 0.000000 
0.382812 -9.255653 0.000000 
0.382812 -8.769465 0.000000 
0.390625 -9.481809 0.000000 
0.390625 -9.018969 0.000000 
0.398438 -9.695144 0.000000 
0.398438 -9.257189 0.000000 
0.406250 -9.894879 0.000000 
0.421875 -9.896371 0.000000 
0.429688 -10.404943 0.000000 
0.429688 -10.081688 0.000000 
0.437500 -10.542882 0.000000 
0.406250 -9.483349 0.000000 
0.414062 -10.080249 0.000000 
0.414062 -9.696669 0.000000 
0.421875 -10.250508 0.000000 
0.250000 -3.340279 0.000000 
0.257812 -4.437409 0.000000 
0.257812 -3.713914 0.000000 
0.265625 -4.787267 0.000000 
0.265625 -4.078646 0.000000 
0.273438 -5.131156 0.000000 
0.273438 -4.435794 0.000000 
0.281250 -5.469371 0.000000 
0.296875 -5.469181 0.000000 
0.304688 -6.450450 0.000000 
0.304688 -5.802133 0.000000 
0.312500 -6.765815 0.000000 
0.281250 -4.786253 0.000000 
0.289062 -5.802028 0.000000 
0.289062 -5.130603 0.000000 
0.296875 -6.129104 0.000000 
0.359375 -7.960691 0.000000 
0.367188 -8.767990 0.000000 
0.367188 -8.239608 0.000000 
0.375000 -9.017455 0.000000 
0.343750 -7.378178 0.000000 
0.351562 -8.238262 0.000000 
0.351562 -7.673344 0.000000 
0.359375 -8.508015 0.000000 
0.312500 -6.129454 0.000000 
0.320312 -7.074854 0.000000 
0.320312 -6.451009 0.000000 
0.328125 -7.377144 0.000000 
0.328125 -6.766554 0.000000 
0.335938 -7.672190 0.000000 
0.335938 -7.075750 0.000000 
0.343750 -7.959434 0.000000 
0.500000 -10.996894 0.000000 
0.507812 -10.962647 0.000000 
0.507812 -11.001610 0.000000 
0.515625 -10.918969 0.000000 
0.515625 -10.993462 0.000000 
0.523438 -10.852624 0.000000 
0.523438 -10.965470 0.000000 
0.531250 -10.767770 0.000000 
0.546875 -10.766839 0.000000 
0.554688 -10.406220 0.000000 
0.554688 -10.663702 0.000000 
0.562500 -10.251875 0.000000 
0.531250 -10.918128 0.000000 
0.539062 -10.664755 0.000000 
0.539062 -10.851792 0.000000 
0.546875 -10.544053 0.000000 
0.609375 -9.481809 0.000000 
0.617188 -8.769465 0.000000 
0.617188 -9.255653 0.000000 
0.625000 -8.509433 0.000000 
0.593750 -9.894879 0.000000 
0.601562 -9.257189 0.000000 
0.601562 -9.695144 0.000000 
0.609375 -9.018969 0.000000 
0.562500 -10.542882 0.000000 
0.570312 -10.081688 0.000000 
0.570312 -10.404943 0.000000 
0.578125 -9.896371 0.000000 
0.578125 -10.250508 0.000000 
0.585938 -9.696669 0.000000 
0.585938 -10.080249 0.000000 
0.593750 -9.483349 0.000000 
0.734375 -4.787267 0.000000 
0.742188 -3.713914 0.000000 
0.742188 -4.437409 0.000000 
0.750000 -3.340279 0.000000 
0.718750 -5.469371 0.000000 
0.726562 -4.435794 0.000000 
0.726562 -5.131156 0.000000 
0.734375 -4.078646 0.000000 
0.687500 -6.765815 0.000000 
0.695312 -5.802133 0.000000 
0.695312 -6.450450 0.000000 
0.703125 -5.469181 0.000000 
0.703125 -6.129104 0.000000 
0.710938 -5.130603 0.000000 
0.710938 -5.802028 0.000000 
0.718750 -4.786253 0.000000 
0.625000 -9.017455 0.000000 
0.632812 -8.239608 0.000000 
0.632812 -8.767990 0.000000 
0.640625 -7.960691 0.000000 
0.640625 -8.508015 0.000000 
0.648438 -7.673344 0.000000 
0.648438 -8.238262 0.000000 
0.656250 -7.378178 0.000000 
0.671875 -7.377144 0.000000 
0.679688 -6.451009 0.000000 
0.679688 -7.074854 0.000000 
0.687500 -6.129454 0.000000 
0.656250 -7.959434 0.000000 
0.664062 -7.075750 0.000000 
0.664062 -7.672190 0.000000 
0.671875 -6.766554 0.000000 
0.984375 0.000000 0.000000 
0.992188 0.000000 0.000000 
0.992188 0.000000 0.000000 
1.000000 0.000000 0.000000 
0.968750 0.000000 0.000000 
0.976562 0.000000 0.000000 
0.976562 0.000000 0.000000 
0.984375 0.000000 0.000000 
0.937500 0.000000 0.000000 
0.945312 0.000000 0.000000 
0.945312 0.000000 0.000000 
0.953125 0.000000 0.000000 
0.953125 0.000000 0.000000 
0.960938 0.000000 0.000000 
0.960938 0.000000 0.000000 
0.968750 0.000000 0.000000 
0.875000 0.000000 0.000000 
0.882812 0.000000 0.000000 
0.882812 0.000000 0.000000 
0.890625 0.000000 0.000000 
0.890625 0.000000 0.000000 
0.898438 0.000000 0.000000 
0.898438 0.000000 0.000000 
0.906250 0.000000 0.000000 
0.921875 0.000000 0.000000 
0.929688 0.000000 0.000000 
0.929688 0.000000 0.000000 
0.937500 0.000000 0.000000 
0.906250 0.000000 0.000000 
0.914062 0.000000 0.000000 
0.914062 0.000000 0.000000 
0.921875 0.000000 0.000000 
0.750000 -4.081072 0.000000 
0.757812 -2.955822 0.000000 
0.757812 -3.717479 0.000000 
0.765625 -2.557759 0.000000 
0.765625 -3.345532 0.000000 
0.773438 -2.141932 0.000000 
0.773438 -2.963909 0.000000 
0.781250 -1.701577 0.000000 
0.796875 -1.934998 0.000000 
0.804688 0.377947 0.000000 
0.804688 -0.786070 0.000000 
0.812500 0.393035 0.000000 
0.781250 -2.572242 0.000000 
0.789062 -1.222579 0.000000 
0.789062 -2.180917 0.000000 
0.796875 -0.655566 0.000000 
0.859375 0.000000 0.000000 
0.867188 0.000000 0.000000 
0.867188 0.000000 0.000000 
0.875000 0.000000 0.000000 
0.843750 0.000000 0.000000 
0.851562 0.000000 0.000000 
0.851562 0.000000 0.000000 
0.859375 0.000000 0.000000 
0.812500 0.000000 0.000000 
0.820312 0.000000 0.000000 
0.820312 0.000000 0.000000 
0.828125 0.000000 0.000000 
0.828125 0.000000 0.000000 
0.835938 0.000000 0.000000 
0.835938 0.000000 0.000000 
0.843750 0.000000 0.000000 

CELLS 128 384
2  0 1 
2  2 3 
2  4 5 
2  6 7 
2  8 9 
2  10 11 
2  12 13 
2  14 15 
2  16 17 
2  18 19 
2  20 21 
2  22 23 
2  24 25 
2  26 27 
2  28 29 
2  30 31 
2  32 33 
2  34 35 
2  36 37 
2  38 39 
2  40 41 
2  42 43 
2  44 45 
2  46 47 
2  48 49 
2  50 51 
2  52 53 
2  54 55 
2  56 57 
2  58 59 
2  60 61 
2  62 63 
2  64 65 
2  66 67 
2  68 69 
2  70 71 
2  72 73 
2  74 75 
2  76 77 
2  78 79 
2  80 81 
2  82 83 
2  84 85 
2  86 87 
2  88 89 
2  90 91 
2  92 93 
2  94 95 
2  96 97 
2  98 99 
2  100 101 
2  102 103 
2  104 105 
2  106 107 
2  108 109 
2  110 111 
2  112 113 
2  114 115 
2  116 117 
2  118 119 
2  120 121 
2  122 123 
2  124 125 
2  126 127 
2  128 129 
2  130 131 
2  132 133 
2  134 135 
2  136 137 
2  138 139 
2  140 141 
2  142 143 
2  144 145 
2  146 147 
2  148 149 
2  150 151 
2  152 153 
2  154 155 
2  156 157 
2  158 159 
2  160 161 
2  162 163 
2  164 165 
2  166 167 
2  168 169 
2  170 171 
2  172 173 
2  174 175 
2  176 177 
2  178 179 
2  180 181 
2  182 183 
2  184 185 
2  186 187 
2  188 189 
2  190 191 
2  192 193 
2  194 195 
2  196 197 
2  198 199 
2  200 201 
2  202 203 
2  204 205 
2  206 207 
2  208 209 
2  210 211 
2  212 213 
2  214 215 
2  216 217 
2  218 219 
2  220 221 
2  222 223 
2  224 225 
2  226 227 
2  228 229 
2  230 231 
2  232 233 
2  234 235 
2  236 237 
2  238 239 
2  240 241 
2  242 243 
2  244 245 
2  246 247 
2  248 249 
2  250 251 
2  252 253 
2  254 255 

CELL_TYPES 128
3
3
3
3
3
3
3
3
3
3
3
3
3
3
3
3
3
3
3
3
3
3
3
3
3
3
3
3
3
3
3
3
3
3
3
3
3
3
3
3
3
3
3
3
3
3
3
3
3
3
3
3
3
3
3
3
3
3
3
3
3
3
3
3
3
3
3
3
3
3
3
3
3
3
3
3
3
3
3
3
3
3
3
3
3
3
3
3
3
3
3
3
3
3
3
3
3
3
3
3
3
3
3
3
3
3
3
3
3
3
3
3
3
3
3
3
3
3
3
3
3
3
3
3
3
3
3
3

POINT_DATA 256

SCALARS lambda_h float 1
LOOKUP_TABLE default
0.000000 
0.000000 
0.000000 
0.000000 
0.000000 
0.000000 
0.000000 
0.000000 
0.000000 
0.000000 
0.000000 
0.000000 
0.000000 
0.000000 
0.000000 
0.000000 
0.000000 
0.000000 
0.000000 
0.000000 
0.000000 
0.000000 
0.000000 
0.000000 
0.000000 
0.000000 
0.000000 
0.000000 
0.000000 
0.000000 
0.000000 
0.000000 
-2.557759 
-3.717479 
-2.955822 
-4.081072 
-1.701577 
-2.963909 
-2.141932 
-3.345532 
0.393035 
-0.786070 
0.377947 
-1.934998 
-0.655566 
-2.180917 
-1.222579 
-2.572242 
0.000000 
0.000000 
0.000000 
0.000000 
0.000000 
0.000000 
0.000000 
0.000000 
0.000000 
0.000000 
0.000000 
0.000000 
0.000000 
0.000000 
0.000000 
0.000000 
-10.918969 
-11.001610 
-10.962647 
-10.996894 
-10.767770 
-10.965470 
-10.852624 
-10.993462 
-10.251875 
-10.663702 
-10.406220 
-10.766839 
-10.544053 
-10.851792 
-10.664755 
-10.918128 
-8.509433 
-9.255653 
-8.769465 
-9.481809 
-9.018969 
-9.695144 
-9.257189 
-9.894879 
-9.896371 
-10.404943 
-10.081688 
-10.542882 
-9.483349 
-10.080249 
-9.696669 
-10.250508 
-3.340279 
-4.437409 
-3.713914 
-4.787267 
-4.078646 
-5.131156 
-4.435794 
-5.469371 
-5.469181 
-6.450450 
-5.802133 
-6.765815 
-4.786253 
-5.802028 
-5.130603 
-6.129104 
-7.960691 
-8.767990 
-8.239608 
-9.017455 
-7.378178 
-8.238262 
-7.673344 
-8.508015 
-6.129454 
-7.074854 
-6.451009 
-7.377144 
-6.766554 
-7.672190 
-7.075750 
-7.959434 
-10.996894 
-10.962647 
-11.001610 
-10.918969 
-10.993462 
-10.852624 
-10.965470 
-10.767770 
-10.766839 
-10.406220 
-10.663702 
-10.251875 
-10.918128 
-10.664755 
-10.851792 
-10.544053 
-9.481809 
-8.769465 
-9.255653 
-8.509433 
-9.894879 
-9.257189 
-9.695144 
-9.018969 
-10.542882 
-10.081688 
-10.404943 
-9.896371 
-10.250508 
-9.696669 
-10.080249 
-9.483349 
-4.787267 
-3.713914 
-4.437409 
-3.340279 
-5.469371 
-4.435794 
-5.131156 
-4.078646 
-6.765815 
-5.802133 
-6.450450 
-5.469181 
-6.129104 
-5.130603 
-5.802028 
-4.786253 
-9.017455 
-8.239608 
-8.767990 
-7.960691 
-8.508015 
-7.673344 
-8.238262 
-7.378178 
-7.377144 
-6.451009 
-7.074854 
-6.129454 
-7.959434 
-7.075750 
-7.672190 
-6.766554 
0.000000 
0.000000 
0.000000 
0.000000 
0.000000 
0.000000 
0.000000 
0.000000 
0.000000 
0.000000 
0.000000 
0.000000 
0.000000 
0.000000 
0.000000 
0.000000 
0.000000 
0.000000 
0.000000 
0.000000 
0.000000 
0.000000 
0.000000 
0.000000 
0.000000 
0.000000 
0.000000 
0.000000 
0.000000 
0.000000 
0.000000 
0.000000 
-4.081072 
-2.955822 
-3.717479 
-2.557759 
-3.345532 
-2.141932 
-2.963909 
-1.701577 
-1.934998 
0.377947 
-0.786070 
0.393035 
-2.572242 
-1.222579 
-2.180917 
-0.655566 
0.000000 
0.000000 
0.000000 
0.000000 
0.000000 
0.000000 
0.000000 
0.000000 
0.000000 
0.000000 
0.000000 
0.000000 
0.000000 
0.000000 
0.000000 
0.000000 

