# vtk DataFile Version 2.0
Unstructured Grid Example
ASCII
DATASET UNSTRUCTURED_GRID

POINTS 128 float
0.000000 0.000000 0.000000 
0.015625 0.000000 0.000000 
0.015625 0.000000 0.000000 
0.031250 0.000000 0.000000 
0.031250 0.000000 0.000000 
0.046875 0.000000 0.000000 
0.046875 0.000000 0.000000 
0.062500 0.000000 0.000000 
0.093750 0.000000 0.000000 
0.109375 0.000000 0.000000 
0.109375 0.000000 0.000000 
0.125000 0.000000 0.000000 
0.062500 0.000000 0.000000 
0.078125 0.000000 0.000000 
0.078125 0.000000 0.000000 
0.093750 0.000000 0.000000 
0.218750 -1.337823 0.000000 
0.234375 -3.787637 0.000000 
0.234375 -2.218007 0.000000 
0.250000 -4.477084 0.000000 
0.187500 1.072619 0.000000 
0.203125 -2.145238 0.000000 
0.203125 0.009189 0.000000 
0.218750 -3.236236 0.000000 
0.125000 0.000000 0.000000 
0.140625 0.000000 0.000000 
0.140625 0.000000 0.000000 
0.156250 0.000000 0.000000 
0.156250 0.000000 0.000000 
0.171875 0.000000 0.000000 
0.171875 0.000000 0.000000 
0.187500 0.000000 0.000000 
0.468750 -10.711087 0.000000 
0.484375 -11.034011 0.000000 
0.484375 -10.884684 0.000000 
0.500000 -11.009740 0.000000 
0.437500 -10.127239 0.000000 
0.453125 -10.889768 0.000000 
0.453125 -10.452455 0.000000 
0.468750 -11.001865 0.000000 
0.375000 -8.276443 0.000000 
0.390625 -9.728696 0.000000 
0.390625 -8.809040 0.000000 
0.406250 -10.115756 0.000000 
0.406250 -9.299262 0.000000 
0.421875 -10.442027 0.000000 
0.421875 -9.740795 0.000000 
0.437500 -10.701726 0.000000 
0.250000 -3.005361 0.000000 
0.265625 -5.161451 0.000000 
0.265625 -3.749868 0.000000 
0.281250 -5.828527 0.000000 
0.281250 -4.465684 0.000000 
0.296875 -6.475554 0.000000 
0.296875 -5.158425 0.000000 
0.312500 -7.099944 0.000000 
0.343750 -7.107228 0.000000 
0.359375 -8.797337 0.000000 
0.359375 -7.707407 0.000000 
0.375000 -9.287088 0.000000 
0.312500 -5.830074 0.000000 
0.328125 -7.698164 0.000000 
0.328125 -6.480338 0.000000 
0.343750 -8.265727 0.000000 
0.500000 -11.009740 0.000000 
0.515625 -10.884684 0.000000 
0.515625 -11.034011 0.000000 
0.531250 -10.711087 0.000000 
0.531250 -11.001865 0.000000 
0.546875 -10.452455 0.000000 
0.546875 -10.889768 0.000000 
0.562500 -10.127239 0.000000 
0.593750 -10.115756 0.000000 
0.609375 -8.809040 0.000000 
0.609375 -9.728696 0.000000 
0.625000 -8.276443 0.000000 
0.562500 -10.701726 0.000000 
0.578125 -9.740795 0.000000 
0.578125 -10.442027 0.000000 
0.593750 -9.299262 0.000000 
0.718750 -5.828527 0.000000 
0.734375 -3.749868 0.000000 
0.734375 -5.161451 0.000000 
0.750000 -3.005361 0.000000 
0.687500 -7.099944 0.000000 
0.703125 -5.158425 0.000000 
0.703125 -6.475554 0.000000 
0.718750 -4.465684 0.000000 
0.625000 -9.287088 0.000000 
0.640625 -7.707407 0.000000 
0.640625 -8.797337 0.000000 
0.656250 -7.107228 0.000000 
0.656250 -8.265727 0.000000 
0.671875 -6.480338 0.000000 
0.671875 -7.698164 0.000000 
0.687500 -5.830074 0.000000 
0.968750 0.000000 0.000000 
0.984375 0.000000 0.000000 
0.984375 0.000000 0.000000 
1.000000 0.000000 0.000000 
0.937500 0.000000 0.000000 
0.953125 0.000000 0.000000 
0.953125 0.000000 0.000000 
0.968750 0.000000 0.000000 
0.875000 0.000000 0.000000 
0.890625 0.000000 0.000000 
0.890625 0.000000 0.000000 
0.906250 0.000000 0.000000 
0.906250 0.000000 0.000000 
0.921875 0.000000 0.000000 
0.921875 0.000000 0.000000 
0.937500 0.000000 0.000000 
0.750000 -4.477084 0.000000 
0.765625 -2.218007 0.000000 
0.765625 -3.787637 0.000000 
0.781250 -1.337823 0.000000 
0.781250 -3.236236 0.000000 
0.796875 0.009189 0.000000 
0.796875 -2.145238 0.000000 
0.812500 1.072619 0.000000 
0.843750 0.000000 0.000000 
0.859375 0.000000 0.000000 
0.859375 0.000000 0.000000 
0.875000 0.000000 0.000000 
0.812500 0.000000 0.000000 
0.828125 0.000000 0.000000 
0.828125 0.000000 0.000000 
0.843750 0.000000 0.000000 

CELLS 64 192
2  0 1 
2  2 3 
2  4 5 
2  6 7 
2  8 9 
2  10 11 
2  12 13 
2  14 15 
2  16 17 
2  18 19 
2  20 21 
2  22 23 
2  24 25 
2  26 27 
2  28 29 
2  30 31 
2  32 33 
2  34 35 
2  36 37 
2  38 39 
2  40 41 
2  42 43 
2  44 45 
2  46 47 
2  48 49 
2  50 51 
2  52 53 
2  54 55 
2  56 57 
2  58 59 
2  60 61 
2  62 63 
2  64 65 
2  66 67 
2  68 69 
2  70 71 
2  72 73 
2  74 75 
2  76 77 
2  78 79 
2  80 81 
2  82 83 
2  84 85 
2  86 87 
2  88 89 
2  90 91 
2  92 93 
2  94 95 
2  96 97 
2  98 99 
2  100 101 
2  102 103 
2  104 105 
2  106 107 
2  108 109 
2  110 111 
2  112 113 
2  114 115 
2  116 117 
2  118 119 
2  120 121 
2  122 123 
2  124 125 
2  126 127 

CELL_TYPES 64
3
3
3
3
3
3
3
3
3
3
3
3
3
3
3
3
3
3
3
3
3
3
3
3
3
3
3
3
3
3
3
3
3
3
3
3
3
3
3
3
3
3
3
3
3
3
3
3
3
3
3
3
3
3
3
3
3
3
3
3
3
3
3
3

POINT_DATA 128

SCALARS lambda_h float 1
LOOKUP_TABLE default
0.000000 
0.000000 
0.000000 
0.000000 
0.000000 
0.000000 
0.000000 
0.000000 
0.000000 
0.000000 
0.000000 
0.000000 
0.000000 
0.000000 
0.000000 
0.000000 
-1.337823 
-3.787637 
-2.218007 
-4.477084 
1.072619 
-2.145238 
0.009189 
-3.236236 
0.000000 
0.000000 
0.000000 
0.000000 
0.000000 
0.000000 
0.000000 
0.000000 
-10.711087 
-11.034011 
-10.884684 
-11.009740 
-10.127239 
-10.889768 
-10.452455 
-11.001865 
-8.276443 
-9.728696 
-8.809040 
-10.115756 
-9.299262 
-10.442027 
-9.740795 
-10.701726 
-3.005361 
-5.161451 
-3.749868 
-5.828527 
-4.465684 
-6.475554 
-5.158425 
-7.099944 
-7.107228 
-8.797337 
-7.707407 
-9.287088 
-5.830074 
-7.698164 
-6.480338 
-8.265727 
-11.009740 
-10.884684 
-11.034011 
-10.711087 
-11.001865 
-10.452455 
-10.889768 
-10.127239 
-10.115756 
-8.809040 
-9.728696 
-8.276443 
-10.701726 
-9.740795 
-10.442027 
-9.299262 
-5.828527 
-3.749868 
-5.161451 
-3.005361 
-7.099944 
-5.158425 
-6.475554 
-4.465684 
-9.287088 
-7.707407 
-8.797337 
-7.107228 
-8.265727 
-6.480338 
-7.698164 
-5.830074 
0.000000 
0.000000 
0.000000 
0.000000 
0.000000 
0.000000 
0.000000 
0.000000 
0.000000 
0.000000 
0.000000 
0.000000 
0.000000 
0.000000 
0.000000 
0.000000 
-4.477084 
-2.218007 
-3.787637 
-1.337823 
-3.236236 
0.009189 
-2.145238 
1.072619 
0.000000 
0.000000 
0.000000 
0.000000 
0.000000 
0.000000 
0.000000 
0.000000 

