# vtk DataFile Version 2.0
Unstructured Grid Example
ASCII
DATASET UNSTRUCTURED_GRID

POINTS 8 float
0.000000 3.545912 0.000000 
0.250000 -7.091824 0.000000 
0.250000 3.886427 0.000000 
0.500000 -18.410591 0.000000 
0.500000 -18.410591 0.000000 
0.750000 3.886427 0.000000 
0.750000 -7.091824 0.000000 
1.000000 3.545912 0.000000 

CELLS 4 12
2  0 1 
2  2 3 
2  4 5 
2  6 7 

CELL_TYPES 4
3
3
3
3

POINT_DATA 8

SCALARS lambda_h float 1
LOOKUP_TABLE default
3.545912 
-7.091824 
3.886427 
-18.410591 
-18.410591 
3.886427 
-7.091824 
3.545912 

