# vtk DataFile Version 2.0
Unstructured Grid Example
ASCII
DATASET UNSTRUCTURED_GRID

POINTS 9 float
0.017998 -0.211445 0.000000 
0.982002 -0.211445 0.000000 
1.000000 1.000000 0.000000 
0.000000 1.000000 0.000000 
0.500000 -0.061279 0.000000 
0.966002 0.343415 0.000000 
0.500000 1.000000 0.000000 
0.033998 0.343415 0.000000 
0.500000 0.368493 0.000000 

CELLS 8 32
3  0 4 8 
3  4 1 8 
3  1 5 8 
3  5 2 8 
3  2 6 8 
3  6 3 8 
3  3 7 8 
3  7 0 8 

CELL_TYPES 8
5
5
5
5
5
5
5
5

POINT_DATA 9

SCALARS u_h float 2
LOOKUP_TABLE default
0.017998 -0.211445 
-0.017998 -0.211445 
0.000000 0.000000 
0.000000 0.000000 
-0.000000 -0.061279 
-0.033998 -0.156585 
0.000000 0.000000 
0.033998 -0.156585 
-0.000000 -0.131507 

CELL_DATA 8

SCALARS epsilon float 4
LOOKUP_TABLE default
-0.036644 -0.084370 0.000000 0.174461
-0.036644 -0.084370 0.000000 -0.174461
-0.071360 0.103402 0.000000 -0.039476
-0.065992 0.270379 0.000000 0.015363
0.000000 0.229926 0.000000 0.000000
0.000000 0.229926 0.000000 0.000000
-0.065992 0.270379 0.000000 -0.015363
-0.071360 0.103402 0.000000 0.039476

SCALARS sigma float 4
LOOKUP_TABLE default
-2.449452 -5.041851 -1.757034 2.972146
-2.449452 -5.041851 -1.757034 -2.972146
-1.133008 1.645756 0.141679 -0.644507
0.631819 4.929530 1.682287 -0.022746
2.299262 5.023865 2.299262 0.000000
2.299262 5.023865 2.299262 0.000000
0.631819 4.929530 1.682287 0.022746
-1.133008 1.645756 0.141679 0.644507

