# vtk DataFile Version 2.0
Unstructured Grid Example
ASCII
DATASET UNSTRUCTURED_GRID

POINTS 1089 float
0.013562 -0.236458 0.000000 
0.986438 -0.236458 0.000000 
1.000000 1.000000 0.000000 
0.000000 1.000000 0.000000 
0.500000 -0.099818 0.000000 
0.979643 0.330623 0.000000 
0.500000 1.000000 0.000000 
0.020357 0.330623 0.000000 
0.500000 0.332383 0.000000 
0.252575 -0.161092 0.000000 
0.500000 0.089161 0.000000 
0.235052 0.062320 0.000000 
0.747425 -0.161092 0.000000 
0.764948 0.062320 0.000000 
1.009257 0.037507 0.000000 
0.745171 0.324251 0.000000 
0.946976 0.639071 0.000000 
0.726541 0.638198 0.000000 
0.750000 1.000000 0.000000 
0.500000 0.641528 0.000000 
0.250000 1.000000 0.000000 
0.273459 0.638198 0.000000 
0.053024 0.639071 0.000000 
0.254829 0.324251 0.000000 
-0.009257 0.037507 0.000000 
0.137561 -0.211446 0.000000 
0.235422 -0.053961 0.000000 
0.114027 -0.086931 0.000000 
0.500000 -0.011393 0.000000 
0.364701 -0.023212 0.000000 
0.370024 -0.116731 0.000000 
0.370124 0.198688 0.000000 
0.365478 0.081434 0.000000 
0.500000 0.203295 0.000000 
0.629976 -0.116731 0.000000 
0.635299 -0.023212 0.000000 
0.885973 -0.086931 0.000000 
0.764578 -0.053961 0.000000 
0.862439 -0.211446 0.000000 
0.634522 0.081434 0.000000 
0.629876 0.198688 0.000000 
1.005879 -0.105050 0.000000 
0.889433 0.043159 0.000000 
0.863954 0.321154 0.000000 
0.879768 0.178632 0.000000 
0.997925 0.183093 0.000000 
0.756973 0.187719 0.000000 
0.623507 0.330188 0.000000 
0.960924 0.481616 0.000000 
0.847790 0.472807 0.000000 
0.840589 0.814034 0.000000 
0.836822 0.636208 0.000000 
0.946502 0.805291 0.000000 
0.733526 0.473910 0.000000 
0.617415 0.477350 0.000000 
0.875000 1.000000 0.000000 
0.730284 0.816132 0.000000 
0.500000 0.817318 0.000000 
0.616058 0.816890 0.000000 
0.625000 1.000000 0.000000 
0.614072 0.640469 0.000000 
0.500000 0.478951 0.000000 
0.375000 1.000000 0.000000 
0.383942 0.816890 0.000000 
0.159411 0.814034 0.000000 
0.269716 0.816132 0.000000 
0.125000 1.000000 0.000000 
0.385928 0.640469 0.000000 
0.382585 0.477350 0.000000 
0.053498 0.805291 0.000000 
0.163178 0.636208 0.000000 
0.136046 0.321154 0.000000 
0.152210 0.472807 0.000000 
0.039076 0.481616 0.000000 
0.266474 0.473910 0.000000 
0.376493 0.330188 0.000000 
0.002075 0.183093 0.000000 
0.120232 0.178632 0.000000 
0.110567 0.043159 0.000000 
-0.005879 -0.105050 0.000000 
0.243027 0.187719 0.000000 
0.075237 -0.225387 0.000000 
0.122984 -0.150192 0.000000 
0.063032 -0.162831 0.000000 
0.240887 -0.108900 0.000000 
0.181771 -0.131908 0.000000 
0.197682 -0.190339 0.000000 
0.171299 -0.010709 0.000000 
0.174070 -0.071874 0.000000 
0.233851 0.003136 0.000000 
0.500000 -0.057063 0.000000 
0.432663 -0.060720 0.000000 
0.434058 -0.104171 0.000000 
0.431887 0.034777 0.000000 
0.431924 -0.014449 0.000000 
0.500000 0.037289 0.000000 
0.309390 -0.136189 0.000000 
0.366532 -0.071248 0.000000 
0.302481 -0.087747 0.000000 
0.436421 0.265104 0.000000 
0.434859 0.202098 0.000000 
0.500000 0.265931 0.000000 
0.299553 0.072750 0.000000 
0.367464 0.138388 0.000000 
0.302301 0.131676 0.000000 
0.500000 0.144428 0.000000 
0.433496 0.142848 0.000000 
0.432458 0.087143 0.000000 
0.299029 -0.036873 0.000000 
0.364451 0.027625 0.000000 
0.298286 0.016611 0.000000 
0.565942 -0.104171 0.000000 
0.567337 -0.060720 0.000000 
0.697519 -0.087747 0.000000 
0.633468 -0.071248 0.000000 
0.690610 -0.136189 0.000000 
0.568076 -0.014449 0.000000 
0.568113 0.034777 0.000000 
0.936968 -0.162831 0.000000 
0.877016 -0.150192 0.000000 
0.924763 -0.225387 0.000000 
0.766149 0.003136 0.000000 
0.825930 -0.071874 0.000000 
0.828701 -0.010709 0.000000 
0.802318 -0.190339 0.000000 
0.818229 -0.131908 0.000000 
0.759113 -0.108900 0.000000 
0.565141 0.202098 0.000000 
0.563579 0.265104 0.000000 
0.567542 0.087143 0.000000 
0.566504 0.142848 0.000000 
0.697699 0.131676 0.000000 
0.632536 0.138388 0.000000 
0.700447 0.072750 0.000000 
0.700971 -0.036873 0.000000 
0.701714 0.016611 0.000000 
0.635549 0.027625 0.000000 
0.997445 -0.172721 0.000000 
0.945952 -0.097694 0.000000 
0.949890 0.037939 0.000000 
0.950183 -0.030599 0.000000 
1.009850 -0.034508 0.000000 
0.889819 -0.022478 0.000000 
0.827885 0.051827 0.000000 
0.922173 0.323577 0.000000 
0.931244 0.250278 0.000000 
0.989224 0.256488 0.000000 
0.812265 0.250755 0.000000 
0.872254 0.248887 0.000000 
0.804953 0.321814 0.000000 
1.004929 0.110134 0.000000 
0.939436 0.178361 0.000000 
0.945965 0.107616 0.000000 
0.626790 0.262552 0.000000 
0.561886 0.332086 0.000000 
0.761695 0.123764 0.000000 
0.693900 0.193594 0.000000 
0.684656 0.327345 0.000000 
0.689431 0.258739 0.000000 
0.751301 0.254458 0.000000 
0.885772 0.110131 0.000000 
0.818946 0.182262 0.000000 
0.824379 0.116049 0.000000 
0.970066 0.405416 0.000000 
0.913049 0.398491 0.000000 
0.896994 0.554556 0.000000 
0.904424 0.475362 0.000000 
0.952942 0.559422 0.000000 
0.855600 0.395688 0.000000 
0.797623 0.395692 0.000000 
0.907899 0.905121 0.000000 
0.893634 0.810856 0.000000 
0.957592 0.894163 0.000000 
0.781905 0.637007 0.000000 
0.835925 0.723219 0.000000 
0.781677 0.724618 0.000000 
0.944202 0.720848 0.000000 
0.889777 0.721650 0.000000 
0.891665 0.636476 0.000000 
0.620256 0.401745 0.000000 
0.560199 0.403196 0.000000 
0.739065 0.397323 0.000000 
0.679922 0.399598 0.000000 
0.672420 0.555649 0.000000 
0.675701 0.475675 0.000000 
0.729121 0.554187 0.000000 
0.841224 0.552857 0.000000 
0.785348 0.553042 0.000000 
0.790868 0.472677 0.000000 
0.937500 1.000000 0.000000 
0.853391 0.907559 0.000000 
0.738121 0.908112 0.000000 
0.796362 0.908034 0.000000 
0.812500 1.000000 0.000000 
0.786086 0.815440 0.000000 
0.726629 0.725735 0.000000 
0.500000 0.908265 0.000000 
0.559929 0.908167 0.000000 
0.562500 1.000000 0.000000 
0.557237 0.727835 0.000000 
0.558144 0.817129 0.000000 
0.500000 0.728103 0.000000 
0.687500 1.000000 0.000000 
0.619692 0.908132 0.000000 
0.679147 0.908120 0.000000 
0.558787 0.478515 0.000000 
0.500000 0.403653 0.000000 
0.670585 0.639423 0.000000 
0.615248 0.556992 0.000000 
0.500000 0.558319 0.000000 
0.557716 0.557933 0.000000 
0.557142 0.641196 0.000000 
0.673517 0.816570 0.000000 
0.614237 0.727344 0.000000 
0.670768 0.726638 0.000000 
0.437500 1.000000 0.000000 
0.440071 0.908167 0.000000 
0.320853 0.908120 0.000000 
0.380308 0.908132 0.000000 
0.312500 1.000000 0.000000 
0.441856 0.817129 0.000000 
0.442763 0.727835 0.000000 
0.092101 0.905121 0.000000 
0.146609 0.907559 0.000000 
0.062500 1.000000 0.000000 
0.273371 0.725735 0.000000 
0.213914 0.815440 0.000000 
0.218323 0.724618 0.000000 
0.187500 1.000000 0.000000 
0.203638 0.908034 0.000000 
0.261879 0.908112 0.000000 
0.441213 0.478515 0.000000 
0.439801 0.403196 0.000000 
0.442858 0.641196 0.000000 
0.442284 0.557933 0.000000 
0.327580 0.555649 0.000000 
0.384752 0.556992 0.000000 
0.329415 0.639423 0.000000 
0.326483 0.816570 0.000000 
0.329232 0.726638 0.000000 
0.385763 0.727344 0.000000 
0.042408 0.894163 0.000000 
0.106366 0.810856 0.000000 
0.108335 0.636476 0.000000 
0.110223 0.721650 0.000000 
0.055798 0.720848 0.000000 
0.164075 0.723219 0.000000 
0.218095 0.637007 0.000000 
0.077827 0.323577 0.000000 
0.086951 0.398491 0.000000 
0.029934 0.405416 0.000000 
0.202377 0.395692 0.000000 
0.144400 0.395688 0.000000 
0.195047 0.321814 0.000000 
0.047058 0.559422 0.000000 
0.095576 0.475362 0.000000 
0.103006 0.554556 0.000000 
0.379744 0.401745 0.000000 
0.438114 0.332086 0.000000 
0.270879 0.554187 0.000000 
0.324299 0.475675 0.000000 
0.315344 0.327345 0.000000 
0.320078 0.399598 0.000000 
0.260935 0.397323 0.000000 
0.158776 0.552857 0.000000 
0.209132 0.472677 0.000000 
0.214652 0.553042 0.000000 
0.010776 0.256488 0.000000 
0.068756 0.250278 0.000000 
0.054035 0.107616 0.000000 
0.060564 0.178361 0.000000 
-0.004929 0.110134 0.000000 
0.127746 0.248887 0.000000 
0.187735 0.250755 0.000000 
0.054048 -0.097694 0.000000 
0.002555 -0.172721 0.000000 
0.172115 0.051827 0.000000 
0.110181 -0.022478 0.000000 
-0.009850 -0.034508 0.000000 
0.049817 -0.030599 0.000000 
0.050110 0.037939 0.000000 
0.373210 0.262552 0.000000 
0.248699 0.254458 0.000000 
0.310569 0.258739 0.000000 
0.306100 0.193594 0.000000 
0.238305 0.123764 0.000000 
0.114228 0.110131 0.000000 
0.175621 0.116049 0.000000 
0.181054 0.182262 0.000000 
0.044258 -0.230942 0.000000 
0.068950 -0.194465 0.000000 
0.038405 -0.199815 0.000000 
0.129580 -0.181196 0.000000 
0.099402 -0.188432 0.000000 
0.106429 -0.219067 0.000000 
0.087983 -0.125166 0.000000 
0.093139 -0.157072 0.000000 
0.117819 -0.118728 0.000000 
0.245727 -0.135385 0.000000 
0.216804 -0.148436 0.000000 
0.225243 -0.175366 0.000000 
0.207097 -0.092001 0.000000 
0.211055 -0.120514 0.000000 
0.237565 -0.081723 0.000000 
0.168190 -0.202046 0.000000 
0.188301 -0.161446 0.000000 
0.159268 -0.172323 0.000000 
0.202530 0.026306 0.000000 
0.202351 -0.003895 0.000000 
0.234155 0.032460 0.000000 
0.143985 -0.079931 0.000000 
0.172170 -0.041444 0.000000 
0.141738 -0.048590 0.000000 
0.234235 -0.025669 0.000000 
0.202960 -0.033670 0.000000 
0.204485 -0.063038 0.000000 
0.152508 -0.141864 0.000000 
0.177181 -0.102028 0.000000 
0.147508 -0.111028 0.000000 
0.500000 -0.078803 0.000000 
0.466549 -0.079819 0.000000 
0.466921 -0.100913 0.000000 
0.466036 -0.035454 0.000000 
0.466252 -0.057998 0.000000 
0.500000 -0.034596 0.000000 
0.401686 -0.109495 0.000000 
0.433290 -0.082795 0.000000 
0.400415 -0.087658 0.000000 
0.466012 0.062229 0.000000 
0.465899 0.036640 0.000000 
0.500000 0.062814 0.000000 
0.398158 -0.018154 0.000000 
0.431822 0.009784 0.000000 
0.397971 0.006423 0.000000 
0.500000 0.012562 0.000000 
0.465862 0.011845 0.000000 
0.465906 -0.012179 0.000000 
0.280531 -0.148032 0.000000 
0.305471 -0.112239 0.000000 
0.275258 -0.123238 0.000000 
0.368085 -0.094288 0.000000 
0.336416 -0.102536 0.000000 
0.339228 -0.125694 0.000000 
0.332630 -0.054492 0.000000 
0.334212 -0.078823 0.000000 
0.365404 -0.047567 0.000000 
0.432204 -0.037943 0.000000 
0.398624 -0.042011 0.000000 
0.399381 -0.065170 0.000000 
[...]
POINT_DATA 1089

SCALARS u_h float 2
LOOKUP_TABLE default
0.013562 -0.236458 
-0.013562 -0.236458 
0.000000 0.000000 
0.000000 0.000000 
0.000000 -0.099818 
-0.020357 -0.169377 
0.000000 0.000000 
0.020357 -0.169377 
0.000000 -0.167617 
0.002575 -0.161092 
0.000000 -0.160839 
-0.014948 -0.187680 
-0.002575 -0.161092 
0.014948 -0.187680 
0.009257 -0.212493 
-0.004829 -0.175749 
-0.053024 -0.110929 
-0.023459 -0.111802 
0.000000 0.000000 
0.000000 -0.108472 
0.000000 0.000000 
0.023459 -0.111802 
0.053024 -0.110929 
0.004829 -0.175749 
-0.009257 -0.212493 
0.012561 -0.211446 
-0.014578 -0.178961 
-0.010973 -0.211931 
0.000000 -0.136393 
-0.010299 -0.148212 
-0.004976 -0.116731 
-0.004876 -0.176312 
-0.009522 -0.168566 
0.000000 -0.171705 
0.004976 -0.116731 
0.010299 -0.148212 
0.010973 -0.211931 
0.014578 -0.178961 
-0.012561 -0.211446 
0.009522 -0.168566 
0.004876 -0.176312 
0.005879 -0.230050 
0.014433 -0.206841 
-0.011046 -0.178846 
0.004768 -0.196368 
-0.002075 -0.191907 
0.006973 -0.187281 
-0.001493 -0.169812 
-0.039076 -0.143384 
-0.027210 -0.152193 
-0.034411 -0.060966 
-0.038178 -0.113792 
-0.053498 -0.069709 
-0.016474 -0.151090 
-0.007585 -0.147650 
0.000000 0.000000 
-0.019716 -0.058868 
0.000000 -0.057682 
-0.008942 -0.058110 
0.000000 0.000000 
-0.010928 -0.109531 
0.000000 -0.146049 
0.000000 0.000000 
0.008942 -0.058110 
0.034411 -0.060966 
0.019716 -0.058868 
0.000000 0.000000 
0.010928 -0.109531 
0.007585 -0.147650 
0.053498 -0.069709 
0.038178 -0.113792 
0.011046 -0.178846 
0.027210 -0.152193 
0.039076 -0.143384 
0.016474 -0.151090 
0.001493 -0.169812 
0.002075 -0.191907 
-0.004768 -0.196368 
-0.014433 -0.206841 
-0.005879 -0.230050 
-0.006973 -0.187281 
0.012737 -0.225387 
-0.002016 -0.212692 
0.000532 -0.225331 
-0.009113 -0.171400 
-0.005729 -0.194408 
0.010182 -0.190339 
-0.016201 -0.198209 
-0.013430 -0.196874 
-0.016149 -0.184364 
0.000000 -0.119563 
-0.004837 -0.123220 
-0.003442 -0.104171 
-0.005613 -0.152723 
-0.005576 -0.139449 
0.000000 -0.150211 
-0.003110 -0.136189 
-0.008468 -0.133748 
-0.010019 -0.150247 
-0.001079 -0.172396 
-0.002641 -0.172902 
0.000000 -0.171569 
-0.012947 -0.177250 
-0.007536 -0.174112 
-0.010199 -0.180824 
0.000000 -0.168072 
-0.004004 -0.169652 
-0.005042 -0.162857 
-0.013471 -0.161873 
-0.010549 -0.159875 
-0.014214 -0.170889 
0.003442 -0.104171 
0.004837 -0.123220 
0.010019 -0.150247 
0.008468 -0.133748 
0.003110 -0.136189 
0.005576 -0.139449 
0.005613 -0.152723 
-0.000532 -0.225331 
0.002016 -0.212692 
-0.012737 -0.225387 
0.016149 -0.184364 
0.013430 -0.196874 
0.016201 -0.198209 
-0.010182 -0.190339 
0.005729 -0.194408 
0.009113 -0.171400 
0.002641 -0.172902 
0.001079 -0.172396 
0.005042 -0.162857 
0.004004 -0.169652 
0.010199 -0.180824 
0.007536 -0.174112 
0.012947 -0.177250 
0.013471 -0.161873 
0.014214 -0.170889 
0.010549 -0.159875 
-0.002555 -0.235221 
0.008452 -0.222694 
0.012390 -0.212061 
0.012683 -0.218099 
0.009850 -0.222008 
0.014819 -0.209978 
0.015385 -0.198173 
-0.015327 -0.176423 
-0.006256 -0.187222 
-0.010776 -0.181012 
-0.000235 -0.186745 
-0.002746 -0.188613 
-0.007547 -0.178186 
0.004929 -0.202366 
0.001936 -0.196639 
0.008465 -0.204884 
0.001790 -0.174948 
-0.000614 -0.167914 
0.011695 -0.188736 
0.006400 -0.181406 
-0.002844 -0.172655 
0.001931 -0.178761 
0.001301 -0.183042 
0.010772 -0.202369 
0.006446 -0.192738 
0.011879 -0.196451 
-0.029934 -0.157084 
-0.024451 -0.164009 
-0.040506 -0.132944 
-0.033076 -0.149638 
-0.047058 -0.128078 
-0.019400 -0.166812 
-0.014877 -0.166808 
-0.029601 -0.032379 
-0.043866 -0.064144 
-0.042408 -0.043337 
-0.030595 -0.112993 
-0.039075 -0.089281 
-0.030823 -0.087882 
-0.055798 -0.091652 
-0.047723 -0.090850 
-0.045835 -0.113524 
-0.004744 -0.160755 
-0.002301 -0.159304 
-0.010935 -0.165177 
-0.007578 -0.162902 
-0.015080 -0.131851 
-0.011799 -0.149325 
-0.020879 -0.133313 
-0.033776 -0.134643 
-0.027152 -0.134458 
-0.021632 -0.152323 
0.000000 0.000000 
-0.021609 -0.029941 
-0.011879 -0.029388 
-0.016138 -0.029466 
0.000000 0.000000 
-0.026414 -0.059560 
-0.023371 -0.086765 
0.000000 -0.029235 
-0.002571 -0.029333 
0.000000 0.000000 
-0.005263 -0.084665 
-0.004356 -0.057871 
0.000000 -0.084397 
0.000000 0.000000 
-0.005308 -0.029368 
-0.008353 -0.029380 
-0.003713 -0.146485 
0.000000 -0.158847 
-0.016915 -0.110577 
-0.009752 -0.130508 
0.000000 -0.129181 
-0.004784 -0.129567 
-0.005358 -0.108804 
-0.013983 -0.058430 
-0.010763 -0.085156 
-0.016732 -0.085862 
0.000000 0.000000 
0.002571 -0.029333 
0.008353 -0.029380 
0.005308 -0.029368 
0.000000 0.000000 
0.004356 -0.057871 
0.005263 -0.084665 
0.029601 -0.032379 
0.021609 -0.029941 
0.000000 0.000000 
0.023371 -0.086765 
0.026414 -0.059560 
0.030823 -0.087882 
0.000000 0.000000 
0.016138 -0.029466 
0.011879 -0.029388 
0.003713 -0.146485 
0.002301 -0.159304 
0.005358 -0.108804 
0.004784 -0.129567 
0.015080 -0.131851 
0.009752 -0.130508 
0.016915 -0.110577 
0.013983 -0.058430 
0.016732 -0.085862 
0.010763 -0.085156 
0.042408 -0.043337 
0.043866 -0.064144 
0.045835 -0.113524 
0.047723 -0.090850 
0.055798 -0.091652 
0.039075 -0.089281 
0.030595 -0.112993 
0.015327 -0.176423 
0.024451 -0.164009 
0.029934 -0.157084 
0.014877 -0.166808 
0.019400 -0.166812 
0.007547 -0.178186 
0.047058 -0.128078 
0.033076 -0.149638 
0.040506 -0.132944 
0.004744 -0.160755 
0.000614 -0.167914 
0.020879 -0.133313 
0.011799 -0.149325 
0.002844 -0.172655 
0.007578 -0.162902 
0.010935 -0.165177 
0.033776 -0.134643 
0.021632 -0.152323 
0.027152 -0.134458 
0.010776 -0.181012 
0.006256 -0.187222 
-0.008465 -0.204884 
-0.001936 -0.196639 
-0.004929 -0.202366 
0.002746 -0.188613 
0.000235 -0.186745 
-0.008452 -0.222694 
0.002555 -0.235221 
-0.015385 -0.198173 
-0.014819 -0.209978 
-0.009850 -0.222008 
-0.012683 -0.218099 
-0.012390 -0.212061 
-0.001790 -0.174948 
-0.001301 -0.183042 
-0.001931 -0.178761 
-0.006400 -0.181406 
-0.011695 -0.188736 
-0.010772 -0.202369 
-0.011879 -0.196451 
-0.006446 -0.192738 
0.013008 -0.230942 
0.006450 -0.225715 
0.007155 -0.231065 
0.004580 -0.212446 
0.005652 -0.219682 
0.012679 -0.219067 
-0.005767 -0.218916 
-0.000611 -0.219572 
-0.007181 -0.212478 
-0.004273 -0.166635 
-0.001946 -0.179686 
0.006493 -0.175366 
-0.011653 -0.185751 
-0.007695 -0.183014 
-0.012435 -0.175473 
0.011940 -0.202046 
0.000801 -0.192696 
0.003018 -0.203573 
-0.016220 -0.192444 
-0.016399 -0.191395 
-0.015845 -0.186290 
-0.012265 -0.204931 
-0.015330 -0.197694 
-0.014512 -0.204840 
-0.015765 -0.181919 
-0.015790 -0.189920 
-0.014265 -0.188038 
-0.003742 -0.204364 
-0.010319 -0.195778 
-0.008742 -0.204778 
0.000000 -0.110053 
-0.002201 -0.111069 
-0.001829 -0.100913 
-0.002714 -0.129204 
-0.002498 -0.120498 
0.000000 -0.128346 
-0.004564 -0.109495 
-0.004210 -0.114045 
-0.005835 -0.118908 
-0.002738 -0.156521 
-0.002851 -0.150860 
0.000000 -0.155936 
-0.008092 -0.143154 
-0.005678 -0.146466 
-0.008279 -0.149827 
0.000000 -0.143688 
-0.002888 -0.144405 
-0.002844 -0.137179 
-0.000719 -0.148032 
-0.007029 -0.143489 
-0.005992 -0.154488 
-0.006915 -0.125538 
-0.007334 -0.133786 
-0.004522 -0.125694 
-0.011120 -0.148242 
-0.009538 -0.141323 
-0.009596 -0.141317 
-0.005296 -0.131693 
-0.007626 -0.135761 
-0.006869 -0.127670 
-0.000172 -0.170150 
-0.000575 -0.171755 
0.000000 -0.170062 
-0.003829 -0.174354 
-0.001878 -0.173132 
-0.002689 -0.174389 
0.000000 -0.172116 
-0.000969 -0.172366 
-0.001350 -0.172009 
-0.014141 -0.182343 
-0.011730 -0.179397 
-0.012810 -0.183857 
-0.008630 -0.171744 
-0.010324 -0.175307 
-0.011393 -0.172601 
-0.007458 -0.178382 
-0.008998 -0.177243 
-0.006274 -0.175644 
0.000000 -0.164893 
-0.002321 -0.165357 
-0.002558 -0.161361 
-0.001707 -0.170706 
-0.002034 -0.168480 
0.000000 -0.170351 
-0.007385 -0.165283 
-0.004573 -0.166685 
-0.006695 -0.168837 
-0.004893 -0.173399 
-0.005856 -0.171551 
-0.003355 -0.171733 
-0.009882 -0.160347 
-0.012115 -0.154503 
-0.012134 -0.156384 
-0.012587 -0.165550 
-0.014307 -0.170117 
-0.005395 -0.158195 
-0.010174 -0.164603 
-0.007898 -0.160914 
-0.008205 -0.155754 
-0.010604 -0.154405 
-0.015034 -0.180195 
-0.015209 -0.174074 
-0.015418 -0.177434 
-0.013795 -0.174408 
-0.012160 -0.169149 
-0.012579 -0.160085 
-0.012573 -0.164971 
-0.014133 -0.166709 
0.001829 -0.100913 
0.002201 -0.111069 
0.005835 -0.118908 
0.004210 -0.114045 
0.004564 -0.109495 
0.002498 -0.120498 
0.002714 -0.129204 
0.005992 -0.154488 
0.007029 -0.143489 
0.000719 -0.148032 
0.009596 -0.141317 
0.009538 -0.141323 
0.011120 -0.148242 
0.004522 -0.125694 
0.007334 -0.133786 
0.006915 -0.125538 
0.002851 -0.150860 
0.002738 -0.156521 
0.002844 -0.137179 
0.002888 -0.144405 
0.008279 -0.149827 
0.005678 -0.146466 
0.008092 -0.143154 
0.006869 -0.127670 
0.007626 -0.135761 
0.005296 -0.131693 
-0.007155 -0.231065 
-0.006450 -0.225715 
-0.013008 -0.230942 
0.007181 -0.212478 
0.000611 -0.219572 
0.005767 -0.218916 
-0.012679 -0.219067 
-0.005652 -0.219682 
-0.004580 -0.212446 
0.015845 -0.186290 
0.016399 -0.191395 
0.016220 -0.192444 
0.014265 -0.188038 
0.015790 -0.189920 
0.015765 -0.181919 
0.014512 -0.204840 
0.015330 -0.197694 
0.012265 -0.204931 
-0.006493 -0.175366 
0.001946 -0.179686 
0.004273 -0.166635 
-0.003018 -0.203573 
-0.000801 -0.192696 
-0.011940 -0.202046 
0.012435 -0.175473 
0.007695 -0.183014 
0.011653 -0.185751 
0.008742 -0.204778 
0.010319 -0.195778 
0.003742 -0.204364 
0.000575 -0.171755 
0.000172 -0.170150 
0.001350 -0.172009 
0.000969 -0.172366 
0.002689 -0.174389 
0.001878 -0.173132 
0.003829 -0.174354 
0.002558 -0.161361 
0.002321 -0.165357 
0.006695 -0.168837 
0.004573 -0.166685 
0.007385 -0.165283 
0.002034 -0.168480 
0.001707 -0.170706 
0.012810 -0.183857 
0.011730 -0.179397 
0.014141 -0.182343 
0.006274 -0.175644 
0.008998 -0.177243 
0.007458 -0.178382 
0.011393 -0.172601 
0.010324 -0.175307 
0.008630 -0.171744 
0.003355 -0.171733 
0.005856 -0.171551 
0.004893 -0.173399 
0.009882 -0.160347 
0.014307 -0.170117 
0.012587 -0.165550 
0.012134 -0.156384 
0.012115 -0.154503 
0.015034 -0.180195 
0.012160 -0.169149 
0.013795 -0.174408 
0.015418 -0.177434 
0.015209 -0.174074 
0.005395 -0.158195 
0.010604 -0.154405 
0.008205 -0.155754 
0.007898 -0.160914 
0.010174 -0.164603 
0.014133 -0.166709 
0.012573 -0.164971 
0.012579 -0.160085 
-0.007928 -0.236339 
-0.001530 -0.230388 
0.007227 -0.226709 
0.003365 -0.228909 
0.002151 -0.233087 
0.004519 -0.224296 
0.009686 -0.217822 
0.010980 -0.212965 
0.011711 -0.216933 
0.010084 -0.217366 
0.014176 -0.212409 
0.013054 -0.215236 
0.013536 -0.209967 
0.008462 -0.226293 
0.011388 -0.220607 
0.009910 -0.223902 
0.016181 -0.198382 
0.015358 -0.193037 
0.013483 -0.211096 
0.015640 -0.204485 
0.015061 -0.202848 
0.015783 -0.203833 
0.015095 -0.208566 
0.011172 -0.220605 
0.013820 -0.214541 
0.012353 -0.216352 
-0.017752 -0.173593 
-0.013001 -0.179351 
-0.015503 -0.175310 
-0.008670 -0.183494 
-0.010724 -0.182011 
-0.013089 -0.178108 
-0.006269 -0.186530 
-0.008390 -0.184820 
-0.003998 -0.190029 
-0.002685 -0.181447 
-0.003849 -0.182804 
-0.006092 -0.177115 
0.001152 -0.192725 
-0.001366 -0.187994 
0.002322 -0.191704 
-0.009198 -0.178815 
-0.005232 -0.183710 
-0.006839 -0.183999 
0.007494 -0.207477 
0.006859 -0.204365 
0.009318 -0.208765 
0.000080 -0.195008 
0.003738 -0.199781 
0.001696 -0.197178 
0.006885 -0.200759 
0.005464 -0.200899 
0.003497 -0.197023 
-0.004375 -0.188420 
-0.000290 -0.192919 
-0.002005 -0.192089 
0.000248 -0.170663 
-0.000288 -0.167500 
0.003372 -0.176090 
0.001491 -0.173476 
-0.001007 -0.168709 
0.000253 -0.171588 
0.000158 -0.172862 
0.013540 -0.188505 
0.011106 -0.184711 
0.006817 -0.184315 
0.009090 -0.184874 
0.009484 -0.188340 
0.008406 -0.181503 
0.005744 -0.178697 
-0.003750 -0.174222 
-0.000993 -0.177986 
-0.001736 -0.179794 
-0.000065 -0.174413 
-0.000441 -0.176154 
-0.002098 -0.171154 
0.004225 -0.185527 
0.001723 -0.180903 
0.004344 -0.183002 
0.003894 -0.178159 
0.004227 -0.180502 
0.001945 -0.176740 
0.010817 -0.208606 
0.008008 -0.199573 
0.009766 -0.204150 
0.012024 -0.207215 
0.012952 -0.204783 
0.000652 -0.185040 
0.006852 -0.190146 
0.003854 -0.187928 
0.003222 -0.190045 
0.005751 -0.194875 
0.013908 -0.193139 
0.013591 -0.201494 
0.013918 -0.197542 
0.011954 -0.192716 
0.009576 -0.191730 
0.008835 -0.197541 
0.009359 -0.194862 
0.011481 -0.199736 
-0.025154 -0.163396 
-0.022471 -0.167550 
-0.031706 -0.154328 
-0.027146 -0.161144 
-0.034603 -0.150421 
-0.019914 -0.170438 
-0.017504 -0.172239 
-0.046994 -0.122128 
-0.043820 -0.131002 
-0.050356 -0.119749 
-0.030117 -0.151294 
-0.036990 -0.141605 
-0.033835 -0.143052 
-0.043260 -0.135946 
-0.040139 -0.139297 
-0.036067 -0.147059 
-0.011246 -0.172868 
-0.009499 -0.172022 
-0.015252 -0.173131 
-0.013165 -0.173287 
-0.020832 -0.160163 
-0.017068 -0.167083 
-0.023414 -0.159847 
-0.028866 -0.157091 
-0.026096 -0.158875 
-0.021865 -0.165842 
-0.020986 -0.017432 
-0.035641 -0.036355 
-0.030876 -0.026351 
-0.038983 -0.062256 
-0.038497 -0.048946 
-0.033487 -0.046799 
-0.049434 -0.057317 
-0.044002 -0.052417 
-0.048832 -0.066678 
-0.026957 -0.112419 
-0.031195 -0.100883 
-0.027415 -0.100283 
-0.039172 -0.102013 
-0.035128 -0.101472 
-0.034348 -0.113473 
-0.033313 -0.074723 
-0.034862 -0.088543 
-0.037601 -0.075583 
-0.054904 -0.101580 
-0.051236 -0.102431 
-0.049523 -0.112626 
-0.051251 -0.079602 
-0.051911 -0.091462 
-0.055447 -0.081071 
-0.042029 -0.113853 
-0.047321 -0.102635 
-0.043265 -0.102438 
-0.042108 -0.076694 
-0.043397 -0.090073 
-0.046721 -0.078064 
-0.001493 -0.164134 
-0.000761 -0.163766 
-0.003155 -0.165784 
-0.002281 -0.164825 
-0.004603 -0.153969 
-0.003486 -0.159916 
-0.006231 -0.154712 
-0.007920 -0.170889 
-0.006507 -0.169593 
-0.011728 -0.157619 
-0.009186 -0.164067 
-0.013809 -0.158586 
-0.005250 -0.168247 
-0.004138 -0.166949 
-0.019262 -0.122345 
-0.017917 -0.132590 
-0.022446 -0.123019 
-0.009640 -0.148446 
-0.013587 -0.141074 
-0.011127 -0.140287 
-0.018857 -0.142669 
-0.016162 -0.141888 
-0.014075 -0.150230 
-0.006102 -0.161772 
-0.009778 -0.156599 
-0.007950 -0.155607 
-0.043502 -0.123604 
-0.036318 -0.124654 
-0.039927 -0.124387 
-0.037145 -0.134101 
-0.030699 -0.143807 
-0.025762 -0.123651 
-0.021671 -0.143345 
-0.023961 -0.133959 
-0.029196 -0.124184 
-0.032726 -0.124548 
-0.012832 -0.166130 
-0.024376 -0.152490 
-0.018365 -0.159972 
-0.016021 -0.159406 
-0.018995 -0.151820 
-0.030433 -0.134720 
-0.024594 -0.143829 
-0.027610 -0.144022 
0.000000 0.000000 
-0.016617 -0.015358 
-0.011806 -0.014526 
-0.013859 -0.014729 
0.000000 0.000000 
-0.025132 -0.030683 
-0.029157 -0.045617 
-0.006397 -0.014578 
-0.007500 -0.014534 
0.000000 0.000000 
-0.019055 -0.044373 
-0.013895 -0.029408 
-0.016334 -0.044224 
0.000000 0.000000 
-0.008734 -0.014496 
-0.010145 -0.014480 
-0.026991 -0.087293 
-0.023806 -0.099696 
-0.030228 -0.060123 
-0.029291 -0.074062 
-0.022040 -0.073108 
-0.025538 -0.073538 
-0.022925 -0.059165 
-0.018673 -0.029610 
-0.022050 -0.044597 
-0.025387 -0.044967 
0.000000 -0.014664 
-0.000674 -0.014699 
0.000000 0.000000 
-0.001772 -0.043694 
-0.001273 -0.029298 
0.000000 -0.043614 
0.000000 0.000000 
-0.001369 -0.014711 
-0.002087 -0.014709 
-0.002688 -0.096926 
-0.002617 -0.084504 
0.000000 -0.096815 
-0.006606 -0.057982 
-0.004918 -0.071546 
-0.007451 -0.071710 
0.000000 -0.071316 
-0.002444 -0.071416 
-0.002163 -0.057774 
0.000000 0.000000 
-0.004482 -0.014653 
-0.005398 -0.014618 
-0.002839 -0.014698 
-0.003634 -0.014679 
0.000000 0.000000 
-0.009379 -0.043952 
-0.006782 -0.029376 
-0.007352 -0.043884 
-0.003572 -0.043759 
-0.005424 -0.043821 
-0.003910 -0.029355 
-0.001152 -0.158946 
0.000000 -0.163719 
-0.005616 -0.146985 
-0.003041 -0.153416 
0.000000 -0.152961 
-0.001516 -0.153077 
-0.001849 -0.146169 
-0.020112 -0.111178 
-0.016213 -0.121674 
-0.010485 -0.120478 
-0.013291 -0.121042 
-0.013859 -0.110021 
-0.012362 -0.131144 
-0.008771 -0.139576 
0.000000 -0.119283 
-0.002560 -0.119400 
-0.002666 -0.108586 
-0.002141 -0.138236 
-0.002382 -0.129300 
0.000000 -0.138115 
-0.008103 -0.109121 
-0.005144 -0.119643 
-0.007777 -0.120006 
-0.006502 -0.138980 
-0.007233 -0.129975 
-0.004300 -0.138527 
-0.010043 -0.029383 
-0.011392 -0.058259 
-0.011532 -0.044028 
-0.013840 -0.044116 
-0.016748 -0.058630 
-0.005404 -0.097117 
-0.011035 -0.097730 
-0.008177 -0.097386 
-0.007968 -0.084883 
-0.010075 -0.071911 
-0.020374 -0.099135 
-0.018772 -0.072742 
-0.019957 -0.086289 
-0.017112 -0.098613 
-0.014006 -0.098142 
-0.012817 -0.072149 
-0.013675 -0.085484 
-0.015706 -0.072425 
0.000000 0.000000 
0.000674 -0.014699 
0.002087 -0.014709 
0.001369 -0.014711 
0.000000 0.000000 
0.001273 -0.029298 
0.001772 -0.043694 
0.005398 -0.014618 
0.004482 -0.014653 
0.000000 0.000000 
0.007352 -0.043884 
0.006782 -0.029376 
0.009379 -0.043952 
0.000000 0.000000 
0.003634 -0.014679 
0.002839 -0.014698 
0.002617 -0.084504 
0.002688 -0.096926 
0.002163 -0.057774 
0.002444 -0.071416 
0.007451 -0.071710 
0.004918 -0.071546 
0.006606 -0.057982 
0.003910 -0.029355 
0.005424 -0.043821 
0.003572 -0.043759 
0.020986 -0.017432 
0.016617 -0.015358 
0.000000 0.000000 
0.029157 -0.045617 
0.025132 -0.030683 
0.033487 -0.046799 
0.000000 0.000000 
0.013859 -0.014729 
0.011806 -0.014526 
0.023806 -0.099696 
0.026991 -0.087293 
0.027415 -0.100283 
0.022925 -0.059165 
0.025538 -0.073538 
0.022040 -0.073108 
0.033313 -0.074723 
0.029291 -0.074062 
0.030228 -0.060123 
0.000000 0.000000 
0.007500 -0.014534 
0.006397 -0.014578 
0.010145 -0.014480 
0.008734 -0.014496 
0.000000 0.000000 
0.016334 -0.044224 
0.013895 -0.029408 
0.019055 -0.044373 
0.025387 -0.044967 
0.022050 -0.044597 
0.018673 -0.029610 
0.001152 -0.158946 
0.000761 -0.163766 
0.001849 -0.146169 
0.001516 -0.153077 
0.004603 -0.153969 
0.003041 -0.153416 
0.005616 -0.146985 
0.002666 -0.108586 
0.002560 -0.119400 
0.007777 -0.120006 
0.005144 -0.119643 
0.008103 -0.109121 
0.002382 -0.129300 
0.002141 -0.138236 
0.019262 -0.122345 
0.016213 -0.121674 
0.020112 -0.111178 
0.008771 -0.139576 
0.012362 -0.131144 
0.011127 -0.140287 
0.013859 -0.110021 
0.013291 -0.121042 
0.010485 -0.120478 
0.004300 -0.138527 
0.007233 -0.129975 
0.006502 -0.138980 
0.010043 -0.029383 
0.016748 -0.058630 
0.013840 -0.044116 
0.011532 -0.044028 
0.011392 -0.058259 
0.020374 -0.099135 
0.014006 -0.098142 
0.017112 -0.098613 
0.019957 -0.086289 
0.018772 -0.072742 
0.005404 -0.097117 
0.010075 -0.071911 
0.007968 -0.084883 
0.008177 -0.097386 
0.011035 -0.097730 
0.015706 -0.072425 
0.013675 -0.085484 
0.012817 -0.072149 
0.030876 -0.026351 
0.035641 -0.036355 
0.048832 -0.066678 
0.044002 -0.052417 
0.049434 -0.057317 
0.038497 -0.048946 
0.038983 -0.062256 
0.049523 -0.112626 
0.051236 -0.102431 
0.054904 -0.101580 
0.043265 -0.102438 
0.047321 -0.102635 
0.042029 -0.113853 
0.055447 -0.081071 
0.051911 -0.091462 
0.051251 -0.079602 
0.031195 -0.100883 
0.026957 -0.112419 
0.037601 -0.075583 
0.034862 -0.088543 
0.034348 -0.113473 
0.035128 -0.101472 
0.039172 -0.102013 
0.046721 -0.078064 
0.043397 -0.090073 
0.042108 -0.076694 
0.017752 -0.173593 
0.022471 -0.167550 
0.025154 -0.163396 
0.017504 -0.172239 
0.019914 -0.170438 
0.013089 -0.178108 
0.034603 -0.150421 
0.027146 -0.161144 
0.031706 -0.154328 
0.009499 -0.172022 
0.011246 -0.172868 
0.006092 -0.177115 
0.023414 -0.159847 
0.017068 -0.167083 
0.020832 -0.160163 
0.009198 -0.178815 
0.013165 -0.173287 
0.015252 -0.173131 
0.050356 -0.119749 
0.043820 -0.131002 
0.046994 -0.122128 
0.036067 -0.147059 
0.040139 -0.139297 
0.043260 -0.135946 
0.033835 -0.143052 
0.036990 -0.141605 
0.030117 -0.151294 
0.021865 -0.165842 
0.026096 -0.158875 
0.028866 -0.157091 
0.001493 -0.164134 
0.000288 -0.167500 
0.006231 -0.154712 
0.003486 -0.159916 
0.001007 -0.168709 
0.002281 -0.164825 
0.003155 -0.165784 
0.022446 -0.123019 
0.017917 -0.132590 
0.014075 -0.150230 
0.016162 -0.141888 
0.018857 -0.142669 
0.013587 -0.141074 
0.009640 -0.148446 
0.003750 -0.174222 
0.006507 -0.169593 
0.007920 -0.170889 
0.004138 -0.166949 
0.005250 -0.168247 
0.002098 -0.171154 
0.013809 -0.158586 
0.009186 -0.164067 
0.011728 -0.157619 