# vtk DataFile Version 2.0
Unstructured Grid Example
ASCII
DATASET UNSTRUCTURED_GRID

POINTS 25 float
-0.011013 -0.203510 0.000000 
1.011013 -0.203510 0.000000 
1.000000 1.000000 0.000000 
0.000000 1.000000 0.000000 
0.500000 -0.088596 0.000000 
0.975689 0.341570 0.000000 
0.500000 1.000000 0.000000 
0.024311 0.341570 0.000000 
0.500000 0.339530 0.000000 
0.238415 -0.157540 0.000000 
0.500000 0.102146 0.000000 
0.239122 0.070452 0.000000 
0.761585 -0.157540 0.000000 
0.760878 0.070452 0.000000 
1.005918 0.056414 0.000000 
0.740687 0.336099 0.000000 
0.954219 0.641437 0.000000 
0.730659 0.648357 0.000000 
0.750000 1.000000 0.000000 
0.500000 0.653888 0.000000 
0.250000 1.000000 0.000000 
0.269341 0.648357 0.000000 
0.045781 0.641437 0.000000 
0.259313 0.336099 0.000000 
-0.005918 0.056414 0.000000 

CELLS 32 128
3  0 9 11 
3  4 10 9 
3  8 11 10 
3  9 10 11 
3  4 12 10 
3  1 13 12 
3  8 10 13 
3  12 13 10 
3  1 14 13 
3  5 15 14 
3  8 13 15 
3  14 15 13 
3  5 16 15 
3  2 17 16 
3  8 15 17 
3  16 17 15 
3  2 18 17 
3  6 19 18 
3  8 17 19 
3  18 19 17 
3  6 20 19 
3  3 21 20 
3  8 19 21 
3  20 21 19 
3  3 22 21 
3  7 23 22 
3  8 21 23 
3  22 23 21 
3  7 24 23 
3  0 11 24 
3  8 23 11 
3  24 11 23 

CELL_TYPES 32
5
5
5
5
5
5
5
5
5
5
5
5
5
5
5
5
5
5
5
5
5
5
5
5
5
5
5
5
5
5
5
5

POINT_DATA 25

SCALARS u_h float 2
LOOKUP_TABLE default
-0.011013 -0.203510 
0.011013 -0.203510 
0.000000 0.000000 
0.000000 0.000000 
0.000000 -0.088596 
-0.024311 -0.158430 
0.000000 0.000000 
0.024311 -0.158430 
0.000000 -0.160470 
-0.011585 -0.157540 
0.000000 -0.147854 
-0.010878 -0.179548 
0.011585 -0.157540 
0.010878 -0.179548 
0.005918 -0.193586 
-0.009313 -0.163901 
-0.045781 -0.108563 
-0.019341 -0.101643 
0.000000 0.000000 
0.000000 -0.096112 
0.000000 0.000000 
0.019341 -0.101643 
0.045781 -0.108563 
0.009313 -0.163901 
-0.005918 -0.193586 

CELL_DATA 32

SCALARS epsilon float 4
LOOKUP_TABLE default
-0.002858 -0.071992 0.000000 0.102218
0.045270 -0.202749 0.000000 0.180374
0.042566 -0.043548 0.000000 0.066640
0.042194 -0.083362 0.000000 0.070730
0.045270 -0.202749 0.000000 -0.180374
-0.002858 -0.071992 0.000000 -0.102218
0.042566 -0.043548 0.000000 -0.066640
0.042194 -0.083362 0.000000 -0.070730
-0.020959 0.039309 0.000000 -0.037374
-0.053002 0.133522 0.000000 -0.053746
-0.035904 0.059643 0.000000 -0.048252
-0.021365 0.057750 0.000000 -0.067481
-0.057236 0.181929 0.000000 -0.035306
-0.097268 0.352419 0.000000 0.083308
-0.037845 0.218882 0.000000 -0.025493
-0.111606 0.218609 0.000000 -0.032466
0.001513 0.330828 0.000000 0.035450
0.000000 0.316246 0.000000 -0.000000
-0.080336 0.225868 0.000000 -0.008736
-0.077254 0.332181 0.000000 0.030588
0.000000 0.316246 0.000000 -0.000000
0.001513 0.330828 0.000000 -0.035450
-0.080336 0.225868 0.000000 0.008736
-0.077254 0.332181 0.000000 -0.030588
-0.097268 0.352419 0.000000 -0.083308
-0.057236 0.181929 0.000000 0.035306
-0.037845 0.218882 0.000000 0.025493
-0.111606 0.218609 0.000000 0.032466
-0.053002 0.133522 0.000000 0.053746
-0.020959 0.039309 0.000000 0.037374
-0.035904 0.059643 0.000000 0.048252
-0.021365 0.057750 0.000000 0.067481

SCALARS sigma float 4
LOOKUP_TABLE default
-1.009615 -2.742112 -0.953358 1.689750
-1.595937 -9.738032 -2.409048 2.832670
0.539865 -1.039375 -0.135712 1.049146
0.101911 -2.323838 -0.582086 1.120573
-1.595937 -9.738032 -2.409048 -2.832670
-1.009615 -2.742112 -0.953358 -1.689750
0.539865 -1.039375 -0.135712 -1.049146
0.101911 -2.323838 -0.582086 -1.120573
-0.221441 0.723185 0.139087 -0.611533
-0.373565 2.495602 0.605881 -0.639850
-0.521220 1.055169 0.147999 -0.737295
-0.189431 1.079291 0.248101 -1.048533
0.039791 3.428975 1.013744 -0.339334
-0.019031 5.760220 1.727122 0.617353
1.040497 4.352011 1.631702 -0.283975
-1.460806 3.449623 0.560982 -0.463806
3.308282 6.775414 3.308282 0.208722
3.162458 6.534363 3.162458 -0.000000
-0.247359 3.977774 1.090889 -0.156392
0.791820 5.789182 2.017303 0.171083
3.162458 6.534363 3.162458 -0.000000
3.308282 6.775414 3.308282 -0.208722
-0.247359 3.977774 1.090889 0.156392
0.791820 5.789182 2.017303 -0.171083
-0.019031 5.760220 1.727122 -0.617353
0.039791 3.428975 1.013744 0.339334
1.040497 4.352011 1.631702 0.283975
-1.460806 3.449623 0.560982 0.463806
-0.373565 2.495602 0.605881 0.639850
-0.221441 0.723185 0.139087 0.611533
-0.521220 1.055169 0.147999 0.737295
-0.189431 1.079291 0.248101 1.048533

