# vtk DataFile Version 2.0
Unstructured Grid Example
ASCII
DATASET UNSTRUCTURED_GRID

POINTS 4225 float
0.013959 -0.237108 0.000000 
0.986041 -0.237108 0.000000 
1.000000 1.000000 0.000000 
0.000000 1.000000 0.000000 
0.500000 -0.099954 0.000000 
0.979782 0.330340 0.000000 
0.500000 1.000000 0.000000 
0.020218 0.330340 0.000000 
0.500000 0.332406 0.000000 
0.252587 -0.161182 0.000000 
0.500000 0.088834 0.000000 
0.234942 0.062111 0.000000 
0.747413 -0.161182 0.000000 
0.765058 0.062111 0.000000 
1.009463 0.037063 0.000000 
0.745227 0.323891 0.000000 
0.946725 0.639039 0.000000 
0.726397 0.637890 0.000000 
0.750000 1.000000 0.000000 
0.500000 0.641155 0.000000 
0.250000 1.000000 0.000000 
0.273603 0.637890 0.000000 
0.053275 0.639039 0.000000 
0.254773 0.323891 0.000000 
-0.009463 0.037063 0.000000 
0.138400 -0.212022 0.000000 
0.235355 -0.054050 0.000000 
0.114022 -0.087271 0.000000 
0.500000 -0.011703 0.000000 
0.364676 -0.023422 0.000000 
0.369729 -0.116930 0.000000 
0.370122 0.198391 0.000000 
0.365466 0.081173 0.000000 
0.500000 0.203023 0.000000 
0.630271 -0.116930 0.000000 
0.635324 -0.023422 0.000000 
0.885978 -0.087271 0.000000 
0.764645 -0.054050 0.000000 
0.861600 -0.212022 0.000000 
0.634534 0.081173 0.000000 
0.629878 0.198391 0.000000 
1.005600 -0.105988 0.000000 
0.889659 0.042886 0.000000 
0.864074 0.320831 0.000000 
0.879956 0.178339 0.000000 
0.998134 0.182893 0.000000 
0.757065 0.187420 0.000000 
0.623509 0.329860 0.000000 
0.960832 0.481523 0.000000 
0.847767 0.472504 0.000000 
0.840155 0.813737 0.000000 
0.836626 0.635925 0.000000 
0.946042 0.805119 0.000000 
0.733524 0.473560 0.000000 
0.617437 0.477025 0.000000 
0.875000 1.000000 0.000000 
0.730059 0.815941 0.000000 
0.500000 0.817051 0.000000 
0.615968 0.816735 0.000000 
0.625000 1.000000 0.000000 
0.614008 0.640180 0.000000 
0.500000 0.478640 0.000000 
0.375000 1.000000 0.000000 
0.384032 0.816735 0.000000 
0.159845 0.813737 0.000000 
0.269941 0.815941 0.000000 
0.125000 1.000000 0.000000 
0.385992 0.640180 0.000000 
0.382563 0.477025 0.000000 
0.053958 0.805119 0.000000 
0.163374 0.635925 0.000000 
0.135926 0.320831 0.000000 
0.152233 0.472504 0.000000 
0.039168 0.481523 0.000000 
0.266476 0.473560 0.000000 
0.376491 0.329860 0.000000 
0.001866 0.182893 0.000000 
0.120044 0.178339 0.000000 
0.110341 0.042886 0.000000 
-0.005600 -0.105988 0.000000 
0.242935 0.187420 0.000000 
0.075756 -0.226098 0.000000 
0.123324 -0.150693 0.000000 
0.063552 -0.163543 0.000000 
0.240872 -0.108918 0.000000 
0.181776 -0.131930 0.000000 
0.198646 -0.190216 0.000000 
0.171139 -0.010863 0.000000 
0.173957 -0.071966 0.000000 
0.233755 0.002984 0.000000 
0.500000 -0.057324 0.000000 
0.432600 -0.060947 0.000000 
0.433841 -0.104332 0.000000 
0.431888 0.034497 0.000000 
0.431911 -0.014710 0.000000 
0.500000 0.036962 0.000000 
0.309135 -0.136394 0.000000 
0.366444 -0.071443 0.000000 
0.302416 -0.087879 0.000000 
0.436452 0.264843 0.000000 
0.434876 0.201817 0.000000 
0.500000 0.265748 0.000000 
0.299502 0.072519 0.000000 
0.367454 0.138107 0.000000 
0.302251 0.131407 0.000000 
0.500000 0.144117 0.000000 
0.433503 0.142556 0.000000 
0.432461 0.086852 0.000000 
0.298993 -0.037020 0.000000 
0.364439 0.027390 0.000000 
0.298243 0.016422 0.000000 
0.566159 -0.104332 0.000000 
0.567400 -0.060947 0.000000 
0.697584 -0.087879 0.000000 
0.633556 -0.071443 0.000000 
0.690865 -0.136394 0.000000 
0.568089 -0.014710 0.000000 
0.568112 0.034497 0.000000 
0.936448 -0.163543 0.000000 
0.876676 -0.150693 0.000000 
0.924244 -0.226098 0.000000 
0.766245 0.002984 0.000000 
0.826043 -0.071966 0.000000 
0.828861 -0.010863 0.000000 
0.801354 -0.190216 0.000000 
0.818224 -0.131930 0.000000 
0.759128 -0.108918 0.000000 
0.565124 0.201817 0.000000 
0.563548 0.264843 0.000000 
0.567539 0.086852 0.000000 
0.566497 0.142556 0.000000 
0.697749 0.131407 0.000000 
0.632546 0.138107 0.000000 
0.700498 0.072519 0.000000 
0.701007 -0.037020 0.000000 
0.701757 0.016422 0.000000 
0.635561 0.027390 0.000000 
0.996855 -0.173632 0.000000 
0.945789 -0.098293 0.000000 
0.950124 0.037553 0.000000 
0.950297 -0.031081 0.000000 
1.009897 -0.035213 0.000000 
0.889986 -0.022758 0.000000 
0.828063 0.051618 0.000000 
0.922311 0.323293 0.000000 
0.931407 0.250000 0.000000 
0.989395 0.256279 0.000000 
0.812379 0.250432 0.000000 
0.872401 0.248580 0.000000 
0.805043 0.321466 0.000000 
1.005165 0.109861 0.000000 
0.939645 0.178075 0.000000 
0.946211 0.107296 0.000000 
0.626784 0.262239 0.000000 
0.561879 0.331832 0.000000 
0.761803 0.123506 0.000000 
0.693942 0.193291 0.000000 
0.684680 0.326990 0.000000 
0.689463 0.258408 0.000000 
0.751374 0.254126 0.000000 
0.885995 0.109850 0.000000 
0.819090 0.181969 0.000000 
0.824549 0.115794 0.000000 
0.970069 0.405259 0.000000 
0.913092 0.398232 0.000000 
0.896867 0.554346 0.000000 
0.904379 0.475133 0.000000 
0.952772 0.559368 0.000000 
0.855653 0.395370 0.000000 
0.797672 0.395341 0.000000 
0.907185 0.904667 0.000000 
0.893164 0.810563 0.000000 
0.957030 0.893344 0.000000 
0.781731 0.636699 0.000000 
0.835619 0.722932 0.000000 
0.781406 0.724327 0.000000 
0.943858 0.720804 0.000000 
0.889454 0.721410 0.000000 
0.891450 0.636265 0.000000 
0.620294 0.401418 0.000000 
0.560243 0.402929 0.000000 
0.739106 0.396961 0.000000 
0.679958 0.399243 0.000000 
0.672377 0.555323 0.000000 
0.675710 0.475331 0.000000 
0.729055 0.553855 0.000000 
0.841120 0.552568 0.000000 
0.785262 0.552719 0.000000 
0.790857 0.472338 0.000000 
0.937500 1.000000 0.000000 
0.852996 0.907359 0.000000 
0.737992 0.908026 0.000000 
0.796145 0.907918 0.000000 
0.812500 1.000000 0.000000 
0.785758 0.815199 0.000000 
0.726416 0.725468 0.000000 
0.500000 0.908110 0.000000 
0.559899 0.908079 0.000000 
0.562500 1.000000 0.000000 
0.557194 0.727576 0.000000 
0.558100 0.816949 0.000000 
0.500000 0.727762 0.000000 
0.687500 1.000000 0.000000 
0.619641 0.908060 0.000000 
0.679067 0.908046 0.000000 
0.558811 0.478211 0.000000 
0.500000 0.403456 0.000000 
0.670480 0.639128 0.000000 
0.615228 0.556675 0.000000 
0.500000 0.557954 0.000000 
0.557713 0.557609 0.000000 
0.557115 0.640887 0.000000 
0.673369 0.816408 0.000000 
0.614144 0.727110 0.000000 
0.670618 0.726396 0.000000 
0.437500 1.000000 0.000000 
0.440101 0.908079 0.000000 
0.320933 0.908046 0.000000 
0.380359 0.908060 0.000000 
0.312500 1.000000 0.000000 
0.441900 0.816949 0.000000 
0.442806 0.727576 0.000000 
0.092815 0.904667 0.000000 
0.147004 0.907359 0.000000 
0.062500 1.000000 0.000000 
0.273584 0.725468 0.000000 
0.214242 0.815199 0.000000 
0.218594 0.724327 0.000000 
0.187500 1.000000 0.000000 
0.203855 0.907918 0.000000 
0.262008 0.908026 0.000000 
0.441189 0.478211 0.000000 
0.439757 0.402929 0.000000 
0.442885 0.640887 0.000000 
0.442287 0.557609 0.000000 
0.327623 0.555323 0.000000 
0.384772 0.556675 0.000000 
0.329520 0.639128 0.000000 
0.326631 0.816408 0.000000 
0.329382 0.726396 0.000000 
0.385856 0.727110 0.000000 
0.042970 0.893344 0.000000 
0.106836 0.810563 0.000000 
0.108550 0.636265 0.000000 
0.110546 0.721410 0.000000 
0.056142 0.720804 0.000000 
0.164381 0.722932 0.000000 
0.218269 0.636699 0.000000 
0.077689 0.323293 0.000000 
0.086908 0.398232 0.000000 
0.029931 0.405259 0.000000 
0.202328 0.395341 0.000000 
0.144347 0.395370 0.000000 
0.194957 0.321466 0.000000 
0.047228 0.559368 0.000000 
0.095621 0.475133 0.000000 
0.103133 0.554346 0.000000 
0.379706 0.401418 0.000000 
0.438121 0.331832 0.000000 
0.270945 0.553855 0.000000 
0.324290 0.475331 0.000000 
0.315320 0.326990 0.000000 
0.320042 0.399243 0.000000 
0.260894 0.396961 0.000000 
0.158880 0.552568 0.000000 
0.209143 0.472338 0.000000 
0.214738 0.552719 0.000000 
0.010605 0.256279 0.000000 
0.068593 0.250000 0.000000 
0.053789 0.107296 0.000000 
0.060355 0.178075 0.000000 
-0.005165 0.109861 0.000000 
0.127599 0.248580 0.000000 
0.187621 0.250432 0.000000 
0.054211 -0.098293 0.000000 
0.003145 -0.173632 0.000000 
0.171937 0.051618 0.000000 
0.110014 -0.022758 0.000000 
-0.009897 -0.035213 0.000000 
0.049703 -0.031081 0.000000 
0.049876 0.037553 0.000000 
0.373216 0.262239 0.000000 
0.248626 0.254126 0.000000 
0.310537 0.258408 0.000000 
0.306058 0.193291 0.000000 
0.238197 0.123506 0.000000 
0.114005 0.109850 0.000000 
0.175451 0.115794 0.000000 
0.180910 0.181969 0.000000 
0.044707 -0.231679 0.000000 
0.069562 -0.195201 0.000000 
0.039001 -0.200581 0.000000 
0.130192 -0.181779 0.000000 
0.100033 -0.189116 0.000000 
0.107076 -0.219734 0.000000 
0.088239 -0.125717 0.000000 
0.093593 -0.157703 0.000000 
0.117955 -0.119136 0.000000 
0.245747 -0.135389 0.000000 
0.216905 -0.148346 0.000000 
0.225650 -0.175238 0.000000 
0.207033 -0.092034 0.000000 
0.211042 -0.120495 0.000000 
0.237521 -0.081776 0.000000 
0.169233 -0.202404 0.000000 
0.188516 -0.161429 0.000000 
0.159755 -0.172692 0.000000 
0.202391 0.026131 0.000000 
0.202222 -0.004040 0.000000 
0.234050 0.032278 0.000000 
0.143903 -0.080128 0.000000 
0.172030 -0.041568 0.000000 
0.141600 -0.048782 0.000000 
0.234152 -0.025790 0.000000 
0.202846 -0.033781 0.000000 
0.204391 -0.063113 0.000000 
0.152679 -0.142149 0.000000 
0.177108 -0.102085 0.000000 
0.147517 -0.111253 0.000000 
0.500000 -0.079016 0.000000 
0.466481 -0.080020 0.000000 
0.466790 -0.101057 0.000000 
0.466020 -0.035721 0.000000 
0.466218 -0.058239 0.000000 
0.500000 -0.034886 0.000000 
0.401416 -0.109676 0.000000 
0.433170 -0.082994 0.000000 
0.400262 -0.087856 0.000000 
0.466015 0.061923 0.000000 
0.465901 0.036337 0.000000 
0.500000 0.062485 0.000000 
0.398139 -0.018392 0.000000 
0.431818 0.009512 0.000000 
0.397963 0.006175 0.000000 
0.500000 0.012240 0.000000 
0.465861 0.011550 0.000000 
0.465900 -0.012463 0.000000 
0.280362 -0.148207 0.000000 
0.305349 -0.112392 0.000000 
0.275196 -0.123337 0.000000 
0.367920 -0.094482 0.000000 
0.336261 -0.102717 0.000000 
0.338937 -0.125903 0.000000 
0.332583 -0.054663 0.000000 
0.334129 -0.078993 0.000000 
0.365358 -0.047768 0.000000 
0.432174 -0.038190 0.000000 
0.398584 -0.042236 0.000000 
0.399299 -0.065383 0.000000 
[...]
POINT_DATA 4225

SCALARS u_h float 2
LOOKUP_TABLE default
0.013959 -0.237108 
-0.013959 -0.237108 
0.000000 0.000000 
0.000000 0.000000 
0.000000 -0.099954 
-0.020218 -0.169660 
0.000000 0.000000 
0.020218 -0.169660 
0.000000 -0.167594 
0.002587 -0.161182 
0.000000 -0.161166 
-0.015058 -0.187889 
-0.002587 -0.161182 
0.015058 -0.187889 
0.009463 -0.212937 
-0.004773 -0.176109 
-0.053275 -0.110961 
-0.023603 -0.112110 
0.000000 0.000000 
0.000000 -0.108845 
0.000000 0.000000 
0.023603 -0.112110 
0.053275 -0.110961 
0.004773 -0.176109 
-0.009463 -0.212937 
0.013400 -0.212022 
-0.014645 -0.179050 
-0.010978 -0.212271 
0.000000 -0.136703 
-0.010324 -0.148422 
-0.005271 -0.116930 
-0.004878 -0.176609 
-0.009534 -0.168827 
0.000000 -0.171977 
0.005271 -0.116930 
0.010324 -0.148422 
0.010978 -0.212271 
0.014645 -0.179050 
-0.013400 -0.212022 
0.009534 -0.168827 
0.004878 -0.176609 
0.005600 -0.230988 
0.014659 -0.207114 
-0.010926 -0.179169 
0.004956 -0.196661 
-0.001866 -0.192107 
0.007065 -0.187580 
-0.001491 -0.170140 
-0.039168 -0.143477 
-0.027233 -0.152496 
-0.034845 -0.061263 
-0.038374 -0.114075 
-0.053958 -0.069881 
-0.016476 -0.151440 
-0.007563 -0.147975 
0.000000 0.000000 
-0.019941 -0.059059 
0.000000 -0.057949 
-0.009032 -0.058265 
0.000000 0.000000 
-0.010992 -0.109820 
0.000000 -0.146360 
0.000000 0.000000 
0.009032 -0.058265 
0.034845 -0.061263 
0.019941 -0.059059 
0.000000 0.000000 
0.010992 -0.109820 
0.007563 -0.147975 
0.053958 -0.069881 
0.038374 -0.114075 
0.010926 -0.179169 
0.027233 -0.152496 
0.039168 -0.143477 
0.016476 -0.151440 
0.001491 -0.170140 
0.001866 -0.192107 
-0.004956 -0.196661 
-0.014659 -0.207114 
-0.005600 -0.230988 
-0.007065 -0.187580 
0.013256 -0.226098 
-0.001676 -0.213193 
0.001052 -0.226043 
-0.009128 -0.171418 
-0.005724 -0.194430 
0.011146 -0.190216 
-0.016361 -0.198363 
-0.013543 -0.196966 
-0.016245 -0.184516 
0.000000 -0.119824 
-0.004900 -0.123447 
-0.003659 -0.104332 
-0.005612 -0.153003 
-0.005589 -0.139710 
0.000000 -0.150538 
-0.003365 -0.136394 
-0.008556 -0.133943 
-0.010084 -0.150379 
-0.001048 -0.172657 
-0.002624 -0.173183 
0.000000 -0.171752 
-0.012998 -0.177481 
-0.007546 -0.174393 
-0.010249 -0.181093 
0.000000 -0.168383 
-0.003997 -0.169944 
-0.005039 -0.163148 
-0.013507 -0.162020 
-0.010561 -0.160110 
-0.014257 -0.171078 
0.003659 -0.104332 
0.004900 -0.123447 
0.010084 -0.150379 
0.008556 -0.133943 
0.003365 -0.136394 
0.005589 -0.139710 
0.005612 -0.153003 
-0.001052 -0.226043 
0.001676 -0.213193 
-0.013256 -0.226098 
0.016245 -0.184516 
0.013543 -0.196966 
0.016361 -0.198363 
-0.011146 -0.190216 
0.005724 -0.194430 
0.009128 -0.171418 
0.002624 -0.173183 
0.001048 -0.172657 
0.005039 -0.163148 
0.003997 -0.169944 
0.010249 -0.181093 
0.007546 -0.174393 
0.012998 -0.177481 
0.013507 -0.162020 
0.014257 -0.171078 
0.010561 -0.160110 
-0.003145 -0.236132 
0.008289 -0.223293 
0.012624 -0.212447 
0.012797 -0.218581 
0.009897 -0.222713 
0.014986 -0.210258 
0.015563 -0.198382 
-0.015189 -0.176707 
-0.006093 -0.187500 
-0.010605 -0.181221 
-0.000121 -0.187068 
-0.002599 -0.188920 
-0.007457 -0.178534 
0.005165 -0.202639 
0.002145 -0.196925 
0.008711 -0.205204 
0.001784 -0.175261 
-0.000621 -0.168168 
0.011803 -0.188994 
0.006442 -0.181709 
-0.002820 -0.173010 
0.001963 -0.179092 
0.001374 -0.183374 
0.010995 -0.202650 
0.006590 -0.193031 
0.012049 -0.196706 
-0.029931 -0.157241 
-0.024408 -0.164268 
-0.040633 -0.133154 
-0.033121 -0.149867 
-0.047228 -0.128132 
-0.019347 -0.167130 
-0.014828 -0.167159 
-0.030315 -0.032833 
-0.044336 -0.064437 
-0.042970 -0.044156 
-0.030769 -0.113301 
-0.039381 -0.089568 
-0.031094 -0.088173 
-0.056142 -0.091696 
-0.048046 -0.091090 
-0.046050 -0.113735 
-0.004706 -0.161082 
-0.002257 -0.159571 
-0.010894 -0.165539 
-0.007542 -0.163257 
-0.015123 -0.132177 
-0.011790 -0.149669 
-0.020945 -0.133645 
-0.033880 -0.134932 
-0.027238 -0.134781 
-0.021643 -0.152662 
0.000000 0.000000 
-0.022004 -0.030141 
-0.012008 -0.029474 
-0.016355 -0.029582 
0.000000 0.000000 
-0.026742 -0.059801 
-0.023584 -0.087032 
0.000000 -0.029390 
-0.002601 -0.029421 
0.000000 0.000000 
-0.005306 -0.084924 
-0.004400 -0.058051 
0.000000 -0.084738 
0.000000 0.000000 
-0.005359 -0.029440 
-0.008433 -0.029454 
-0.003689 -0.146789 
0.000000 -0.159044 
-0.017020 -0.110872 
-0.009772 -0.130825 
0.000000 -0.129546 
-0.004787 -0.129891 
-0.005385 -0.109113 
-0.014131 -0.058592 
-0.010856 -0.085390 
-0.016882 -0.086104 
0.000000 0.000000 
0.002601 -0.029421 
0.008433 -0.029454 
0.005359 -0.029440 
0.000000 0.000000 
0.004400 -0.058051 
0.005306 -0.084924 
0.030315 -0.032833 
0.022004 -0.030141 
0.000000 0.000000 
0.023584 -0.087032 
0.026742 -0.059801 
0.031094 -0.088173 
0.000000 0.000000 
0.016355 -0.029582 
0.012008 -0.029474 
0.003689 -0.146789 
0.002257 -0.159571 
0.005385 -0.109113 
0.004787 -0.129891 
0.015123 -0.132177 
0.009772 -0.130825 
0.017020 -0.110872 
0.014131 -0.058592 
0.016882 -0.086104 
0.010856 -0.085390 
0.042970 -0.044156 
0.044336 -0.064437 
0.046050 -0.113735 
0.048046 -0.091090 
0.056142 -0.091696 
0.039381 -0.089568 
0.030769 -0.113301 
0.015189 -0.176707 
0.024408 -0.164268 
0.029931 -0.157241 
0.014828 -0.167159 
0.019347 -0.167130 
0.007457 -0.178534 
0.047228 -0.128132 
0.033121 -0.149867 
0.040633 -0.133154 
0.004706 -0.161082 
0.000621 -0.168168 
0.020945 -0.133645 
0.011790 -0.149669 
0.002820 -0.173010 
0.007542 -0.163257 
0.010894 -0.165539 
0.033880 -0.134932 
0.021643 -0.152662 
0.027238 -0.134781 
0.010605 -0.181221 
0.006093 -0.187500 
-0.008711 -0.205204 
-0.002145 -0.196925 
-0.005165 -0.202639 
0.002599 -0.188920 
0.000121 -0.187068 
-0.008289 -0.223293 
0.003145 -0.236132 
-0.015563 -0.198382 
-0.014986 -0.210258 
-0.009897 -0.222713 
-0.012797 -0.218581 
-0.012624 -0.212447 
-0.001784 -0.175261 
-0.001374 -0.183374 
-0.001963 -0.179092 
-0.006442 -0.181709 
-0.011803 -0.188994 
-0.010995 -0.202650 
-0.012049 -0.196706 
-0.006590 -0.193031 
0.013457 -0.231679 
0.007062 -0.226451 
0.007751 -0.231831 
0.005192 -0.213029 
0.006283 -0.220366 
0.013326 -0.219734 
-0.005511 -0.219467 
-0.000157 -0.220203 
-0.007045 -0.212886 
-0.004253 -0.166639 
-0.001845 -0.179596 
0.006900 -0.175238 
-0.011717 -0.185784 
-0.007708 -0.182995 
-0.012479 -0.175526 
0.012983 -0.202404 
0.001016 -0.192679 
0.003505 -0.203942 
-0.016359 -0.192619 
-0.016528 -0.191540 
-0.015950 -0.186472 
-0.012347 -0.205128 
-0.015470 -0.197818 
-0.014650 -0.205032 
-0.015848 -0.182040 
-0.015904 -0.190031 
-0.014359 -0.188113 
-0.003571 -0.204649 
-0.010392 -0.195835 
-0.008733 -0.205003 
0.000000 -0.110266 
-0.002269 -0.111270 
-0.001960 -0.101057 
-0.002730 -0.129471 
-0.002532 -0.120739 
0.000000 -0.128636 
-0.004834 -0.109676 
-0.004330 -0.114244 
-0.005988 -0.119106 
-0.002735 -0.156827 
-0.002849 -0.151163 
0.000000 -0.156265 
-0.008111 -0.143392 
-0.005682 -0.146738 
-0.008287 -0.150075 
0.000000 -0.144010 
-0.002889 -0.144700 
-0.002850 -0.137463 
-0.000888 -0.148207 
-0.007151 -0.143642 
-0.006054 -0.154587 
-0.007080 -0.125732 
-0.007489 -0.133967 
-0.004813 -0.125903 
-0.011167 -0.148413 
-0.009621 -0.141493 
-0.009642 -0.141518 
-0.005326 -0.131940 
-0.007666 -0.135986 
-0.006951 -0.127883 
-0.000134 -0.170337 
-0.000547 -0.171978 
0.000000 -0.170161 
-0.003818 -0.174644 
-0.001854 -0.173403 
-0.002672 -0.174679 
0.000000 -0.172353 
-0.000950 -0.172618 
-0.001336 -0.172283 
-0.014220 -0.182562 
-0.011782 -0.179648 
-0.012890 -0.184099 
-0.008642 -0.172015 
-0.010353 -0.175568 
-0.011422 -0.172847 
-0.007482 -0.178671 
-0.009025 -0.177518 
-0.006281 -0.175933 
0.000000 -0.165214 
-0.002316 -0.165662 
-0.002554 -0.161669 
-0.001698 -0.170995 
-0.002027 -0.168779 
0.000000 -0.170646 
-0.007387 -0.165558 
-0.004568 -0.166977 
-0.006696 -0.169119 
-0.004887 -0.173688 
-0.005854 -0.171837 
-0.003344 -0.172021 
-0.009920 -0.160427 
-0.012145 -0.154683 
-0.012177 -0.156517 
-0.012626 -0.165641 
-0.014355 -0.170231 
-0.005392 -0.158481 
-0.010186 -0.164851 
-0.007900 -0.161181 
-0.008209 -0.156012 
-0.010620 -0.154627 
-0.015109 -0.180389 
-0.015267 -0.174215 
-0.015485 -0.177602 
-0.013843 -0.174618 
-0.012187 -0.169378 
-0.012603 -0.160279 
-0.012598 -0.165183 
-0.014171 -0.166875 
0.001960 -0.101057 
0.002269 -0.111270 
0.005988 -0.119106 
0.004330 -0.114244 
0.004834 -0.109676 
0.002532 -0.120739 
0.002730 -0.129471 
0.006054 -0.154587 
0.007151 -0.143642 
0.000888 -0.148207 
0.009642 -0.141518 
0.009621 -0.141493 
0.011167 -0.148413 
0.004813 -0.125903 
0.007489 -0.133967 
0.007080 -0.125732 
0.002849 -0.151163 
0.002735 -0.156827 
0.002850 -0.137463 
0.002889 -0.144700 
0.008287 -0.150075 
0.005682 -0.146738 
0.008111 -0.143392 
0.006951 -0.127883 
0.007666 -0.135986 
0.005326 -0.131940 
-0.007751 -0.231831 
-0.007062 -0.226451 
-0.013457 -0.231679 
0.007045 -0.212886 
0.000157 -0.220203 
0.005511 -0.219467 
-0.013326 -0.219734 
-0.006283 -0.220366 
-0.005192 -0.213029 
0.015950 -0.186472 
0.016528 -0.191540 
0.016359 -0.192619 
0.014359 -0.188113 
0.015904 -0.190031 
0.015848 -0.182040 
0.014650 -0.205032 
0.015470 -0.197818 
0.012347 -0.205128 
-0.006900 -0.175238 
0.001845 -0.179596 
0.004253 -0.166639 
-0.003505 -0.203942 
-0.001016 -0.192679 
-0.012983 -0.202404 
0.012479 -0.175526 
0.007708 -0.182995 
0.011717 -0.185784 
0.008733 -0.205003 
0.010392 -0.195835 
0.003571 -0.204649 
0.000547 -0.171978 
0.000134 -0.170337 
0.001336 -0.172283 
0.000950 -0.172618 
0.002672 -0.174679 
0.001854 -0.173403 
0.003818 -0.174644 
0.002554 -0.161669 
0.002316 -0.165662 
0.006696 -0.169119 
0.004568 -0.166977 
0.007387 -0.165558 
0.002027 -0.168779 
0.001698 -0.170995 
0.012890 -0.184099 
0.011782 -0.179648 
0.014220 -0.182562 
0.006281 -0.175933 
0.009025 -0.177518 
0.007482 -0.178671 
0.011422 -0.172847 
0.010353 -0.175568 
0.008642 -0.172015 
0.003344 -0.172021 
0.005854 -0.171837 
0.004887 -0.173688 
0.009920 -0.160427 
0.014355 -0.170231 
0.012626 -0.165641 
0.012177 -0.156517 
0.012145 -0.154683 
0.015109 -0.180389 
0.012187 -0.169378 
0.013843 -0.174618 
0.015485 -0.177602 
0.015267 -0.174215 
0.005392 -0.158481 
0.010620 -0.154627 
0.008209 -0.156012 
0.007900 -0.161181 
0.010186 -0.164851 
0.014171 -0.166875 
0.012598 -0.165183 
0.012603 -0.160279 
-0.008500 -0.237110 
-0.002093 -0.231171 
0.007002 -0.227444 
0.002952 -0.229683 
0.001686 -0.234058 
0.004171 -0.224956 
0.009602 -0.218299 
0.011204 -0.213398 
0.011885 -0.217442 
0.010231 -0.217932 
0.014380 -0.212757 
0.013245 -0.215666 
0.013771 -0.210294 
0.008363 -0.227131 
0.011472 -0.221198 
0.009860 -0.224572 
0.016353 -0.198564 
0.015503 -0.193241 
0.013585 -0.211396 
0.015815 -0.204685 
0.015268 -0.203078 
0.015979 -0.204047 
0.015302 -0.208838 
0.011168 -0.221143 
0.013964 -0.214918 
0.012403 -0.216771 
-0.017611 -0.173862 
-0.012852 -0.179611 
-0.015347 -0.175550 
-0.008530 -0.183794 
-0.010579 -0.182292 
-0.012959 -0.178413 
-0.006079 -0.186725 
-0.008223 -0.185072 
-0.003809 -0.190280 
-0.002603 -0.181790 
-0.003748 -0.183140 
-0.006019 -0.177471 
0.001319 -0.193025 
-0.001234 -0.188310 
0.002472 -0.192008 
-0.009092 -0.179153 
-0.005115 -0.184036 
-0.006709 -0.184313 
0.007726 -0.207822 
0.007104 -0.204682 
0.009563 -0.209132 
0.000291 -0.195268 
0.003970 -0.200062 
0.001923 -0.197403 
0.007108 -0.201055 
0.005695 -0.201197 
0.003699 -0.197316 
-0.004218 -0.188715 
-0.000111 -0.193212 
-0.001819 -0.192368 
0.000219 -0.170919 
-0.000294 -0.167667 
0.003369 -0.176394 
0.001471 -0.173768 
-0.001011 -0.169010 
0.000235 -0.171885 
0.000154 -0.173184 
0.013651 -0.188740 
0.011184 -0.184974 
0.006883 -0.184616 
0.009162 -0.185157 
0.009585 -0.188619 
0.008453 -0.181790 
0.005764 -0.178999 
-0.003710 -0.174582 
-0.000947 -0.178334 
-0.001672 -0.180140 
-0.000054 -0.174749 
-0.000414 -0.176499 
-0.002086 -0.171499 
0.004307 -0.185843 
0.001775 -0.181236 
0.004403 -0.183320 
0.003910 -0.178473 
0.004263 -0.180819 
0.001958 -0.177065 
0.011066 -0.208955 
0.008216 -0.199860 
0.010004 -0.204453 
0.012268 -0.207528 
0.013182 -0.205059 
0.000746 -0.185368 
0.006971 -0.190442 
0.003960 -0.188241 
0.003351 -0.190353 
0.005920 -0.195167 
0.014052 -0.193369 
0.013798 -0.201741 
0.014096 -0.197775 
0.012092 -0.192970 
0.009706 -0.192006 
0.009020 -0.197820 
0.009518 -0.195137 
0.011680 -0.200000 
-0.025093 -0.163608 
-0.022388 -0.167794 
-0.031727 -0.154519 
-0.027118 -0.161361 
-0.034651 -0.150541 
-0.019822 -0.170712 
-0.017412 -0.172540 
-0.047180 -0.122267 
-0.043966 -0.131145 
-0.050566 -0.119790 
-0.030149 -0.151566 
-0.037077 -0.141822 
-0.033907 -0.143315 
-0.043392 -0.136018 
-0.040245 -0.139452 
-0.036132 -0.147229 
-0.011175 -0.173219 
-0.009437 -0.172382 
-0.015164 -0.173454 
-0.013084 -0.173627 
-0.020813 -0.160495 
-0.017016 -0.167420 
-0.023398 -0.160158 
-0.028868 -0.157334 
-0.026087 -0.159157 
-0.021814 -0.166134 
-0.022052 -0.018400 
-0.036260 -0.036820 
-0.031150 -0.027879 
-0.039444 -0.062557 
-0.039059 -0.049281 
-0.034034 -0.047128 
-0.049957 -0.057693 
-0.044558 -0.052778 
-0.049303 -0.066958 
-0.027118 -0.112730 
-0.031418 -0.101184 
-0.027618 -0.100582 
-0.039421 -0.102297 
-0.035365 -0.101769 
-0.034534 -0.113773 
-0.033658 -0.075012 
-0.035153 -0.088838 
-0.037971 -0.075876 
-0.055200 -0.101611 
-0.051511 -0.102584 
-0.049752 -0.112767 
-0.051645 -0.079821 
-0.052240 -0.091639 
-0.055846 -0.081153 
-0.042234 -0.114109 
-0.047586 -0.102857 
-0.043523 -0.102699 
-0.042492 -0.076977 
-0.043713 -0.090344 
-0.047112 -0.078327 
-0.001459 -0.164391 
-0.000723 -0.163951 
-0.003126 -0.166113 
-0.002251 -0.165126 
-0.004565 -0.154275 
-0.003444 -0.160217 
-0.006196 -0.155038 
-0.007869 -0.171252 
-0.006464 -0.169956 
-0.011704 -0.157975 
-0.009148 -0.164428 
-0.013786 -0.158943 
-0.005214 -0.168604 
-0.004107 -0.167295 
-0.019352 -0.122663 
-0.017973 -0.132921 
-0.022551 -0.123341 
-0.009624 -0.148781 
-0.013602 -0.141410 
-0.011133 -0.140616 
-0.018889 -0.143011 
-0.016186 -0.142229 
-0.014072 -0.150579 
-0.006066 -0.162116 
-0.009751 -0.156950 
-0.007919 -0.155948 
-0.043673 -0.123811 
-0.036466 -0.124938 
-0.040085 -0.124640 
-0.037260 -0.134357 
-0.030761 -0.144102 
-0.025879 -0.123972 
-0.021711 -0.143684 
-0.024038 -0.134290 
-0.029325 -0.124500 
-0.032865 -0.124853 
-0.012787 -0.166488 
-0.024392 -0.152814 
-0.018344 -0.160318 
-0.016000 -0.159760 
-0.019001 -0.152167 
-0.030528 -0.135030 
-0.024640 -0.144160 
-0.027664 -0.144339 
0.000000 0.000000 
-0.017095 -0.015724 
-0.011967 -0.014625 
-0.014114 -0.014902 
0.000000 0.000000 
-0.025678 -0.030982 
-0.029625 -0.045893 
-0.006452 -0.014617 
-0.007568 -0.014578 
0.000000 0.000000 
-0.019295 -0.044532 
-0.014061 -0.029506 
-0.016525 -0.044364 
0.000000 0.000000 
-0.008822 -0.014548 
-0.010260 -0.014547 
-0.027234 -0.087574 
-0.023988 -0.099987 
-0.030613 -0.060394 
-0.029601 -0.074336 
-0.022270 -0.073343 
-0.025809 -0.073793 
-0.023199 -0.059379 
-0.018963 -0.029756 
-0.022352 -0.044783 
-0.025766 -0.045192 
0.000000 -0.014745 
-0.000687 -0.014755 
0.000000 0.000000 
-0.001792 -0.043858 
-0.001290 -0.029409 
0.000000 -0.043830 
0.000000 0.000000 
-0.001387 -0.014754 
-0.002109 -0.014746 
-0.002706 -0.097244 
-0.002638 -0.084795 
0.000000 -0.097178 
-0.006673 -0.058144 
-0.004964 -0.071769 
-0.007522 -0.071914 
0.000000 -0.071625 
-0.002467 -0.071672 
-0.002186 -0.057987 
0.000000 0.000000 
-0.004518 -0.014687 
-0.005442 -0.014655 
-0.002865 -0.014733 
-0.003664 -0.014713 
0.000000 0.000000 
-0.009474 -0.044064 
-0.006846 -0.029447 
-0.007426 -0.043996 
-0.003611 -0.043894 
-0.005480 -0.043940 
-0.003951 -0.029431 
-0.001119 -0.159175 
0.000000 -0.163822 
-0.005591 -0.147299 
-0.003005 -0.153702 
0.000000 -0.153225 
-0.001492 -0.153347 
-0.001833 -0.146472 
-0.020237 -0.111480 
-0.016287 -0.121987 
-0.010528 -0.120784 
-0.013350 -0.121350 
-0.013943 -0.110311 
-0.012393 -0.131465 
-0.008769 -0.139899 
0.000000 -0.119657 
-0.002567 -0.119741 
-0.002679 -0.108921 
-0.002133 -0.138561 
-0.002381 -0.129638 
0.000000 -0.138459 
-0.008148 -0.109416 
-0.005160 -0.119963 
-0.007806 -0.120316 
-0.006494 -0.139298 
-0.007243 -0.130292 
-0.004290 -0.138845 
-0.010144 -0.029461 
-0.011508 -0.058414 
-0.011653 -0.044145 
-0.013991 -0.044241 
-0.016931 -0.058804 
-0.005441 -0.097405 
-0.011117 -0.097995 
-0.008235 -0.097658 
-0.008036 -0.085124 
-0.010171 -0.072107 
-0.020531 -0.099416 
-0.018964 -0.072960 
-0.020138 -0.086543 
-0.017244 -0.098886 
-0.014112 -0.098408 
-0.012942 -0.072346 
-0.013796 -0.085718 
-0.015863 -0.072630 
0.000000 0.000000 
0.000687 -0.014755 
0.002109 -0.014746 
0.001387 -0.014754 
0.000000 0.000000 
0.001290 -0.029409 
0.001792 -0.043858 
0.005442 -0.014655 
0.004518 -0.014687 
0.000000 0.000000 
0.007426 -0.043996 
0.006846 -0.029447 
0.009474 -0.044064 
0.000000 0.000000 
0.003664 -0.014713 
0.002865 -0.014733 
0.002638 -0.084795 
0.002706 -0.097244 
0.002186 -0.057987 
0.002467 -0.071672 
0.007522 -0.071914 
0.004964 -0.071769 
0.006673 -0.058144 
0.003951 -0.029431 
0.005480 -0.043940 
0.003611 -0.043894 
0.022052 -0.018400 
0.017095 -0.015724 
0.000000 0.000000 
0.029625 -0.045893 
0.025678 -0.030982 
0.034034 -0.047128 
0.000000 0.000000 
0.014114 -0.014902 
0.011967 -0.014625 
0.023988 -0.099987 
0.027234 -0.087574 
0.027618 -0.100582 
0.023199 -0.059379 
0.025809 -0.073793 
0.022270 -0.073343 
0.033658 -0.075012 
0.029601 -0.074336 
0.030613 -0.060394 
0.000000 0.000000 
0.007568 -0.014578 
0.006452 -0.014617 
0.010260 -0.014547 
0.008822 -0.014548 
0.000000 0.000000 
0.016525 -0.044364 
0.014061 -0.029506 
0.019295 -0.044532 
0.025766 -0.045192 
0.022352 -0.044783 
0.018963 -0.029756 
0.001119 -0.159175 
0.000723 -0.163951 
0.001833 -0.146472 
0.001492 -0.153347 
0.004565 -0.154275 
0.003005 -0.153702 
0.005591 -0.147299 
0.002679 -0.108921 
0.002567 -0.119741 
0.007806 -0.120316 
0.005160 -0.119963 
0.008148 -0.109416 
0.002381 -0.129638 
0.002133 -0.138561 
0.019352 -0.122663 
0.016287 -0.121987 
0.020237 -0.111480 
0.008769 -0.139899 
0.012393 -0.131465 
0.011133 -0.140616 
0.013943 -0.110311 
0.013350 -0.121350 
0.010528 -0.120784 
0.004290 -0.138845 
0.007243 -0.130292 
0.006494 -0.139298 
0.010144 -0.029461 
0.016931 -0.058804 
0.013991 -0.044241 
0.011653 -0.044145 
0.011508 -0.058414 
0.020531 -0.099416 
0.014112 -0.098408 
0.017244 -0.098886 
0.020138 -0.086543 
0.018964 -0.072960 
0.005441 -0.097405 
0.010171 -0.072107 
0.008036 -0.085124 
0.008235 -0.097658 
0.011117 -0.097995 
0.015863 -0.072630 
0.013796 -0.085718 
0.012942 -0.072346 
0.031150 -0.027879 
0.036260 -0.036820 
0.049303 -0.066958 
0.044558 -0.052778 
0.049957 -0.057693 
0.039059 -0.049281 
0.039444 -0.062557 
0.049752 -0.112767 
0.051511 -0.102584 
0.055200 -0.101611 
0.043523 -0.102699 
0.047586 -0.102857 
0.042234 -0.114109 
0.055846 -0.081153 
0.052240 -0.091639 
0.051645 -0.079821 
0.031418 -0.101184 
0.027118 -0.112730 
0.037971 -0.075876 
0.035153 -0.088838 
0.034534 -0.113773 
0.035365 -0.101769 
0.039421 -0.102297 
0.047112 -0.078327 
0.043713 -0.090344 
0.042492 -0.076977 
0.017611 -0.173862 
0.022388 -0.167794 
0.025093 -0.163608 
0.017412 -0.172540 
0.019822 -0.170712 
0.012959 -0.178413 
0.034651 -0.150541 
0.027118 -0.161361 
0.031727 -0.154519 
0.009437 -0.172382 
0.011175 -0.173219 
0.006019 -0.177471 
0.023398 -0.160158 
0.017016 -0.167420 
0.020813 -0.160495 
0.009092 -0.179153 
0.013084 -0.173627 
0.015164 -0.173454 
0.050566 -0.119790 
0.043966 -0.131145 
0.047180 -0.122267 
0.036132 -0.147229 
0.040245 -0.139452 
0.043392 -0.136018 
0.033907 -0.143315 
0.037077 -0.141822 
0.030149 -0.151566 
0.021814 -0.166134 
0.026087 -0.159157 
0.028868 -0.157334 
0.001459 -0.164391 
0.000294 -0.167667 
0.006196 -0.155038 
0.003444 -0.160217 
0.001011 -0.169010 
0.002251 -0.165126 
0.003126 -0.166113 
0.022551 -0.123341 
0.017973 -0.132921 
0.014072 -0.150579 
0.016186 -0.142229 
0.018889 -0.143011 
0.013602 -0.141410 
0.009624 -0.148781 
0.003710 -0.174582 
0.006464 -0.169956 
0.007869 -0.171252 
0.004107 -0.167295 
0.005214 -0.168604 
0.002086 -0.171499 
0.013786 -0.158943 
0.009148 -0.164428 
0.011704 -0.157975 