# vtk DataFile Version 2.0
Unstructured Grid Example
ASCII
DATASET UNSTRUCTURED_GRID

POINTS 81 float
0.002429 -0.222491 0.000000 
0.997571 -0.222491 0.000000 
1.000000 1.000000 0.000000 
0.000000 1.000000 0.000000 
0.500000 -0.097250 0.000000 
0.977889 0.334285 0.000000 
0.500000 1.000000 0.000000 
0.022111 0.334285 0.000000 
0.500000 0.333784 0.000000 
0.247982 -0.161017 0.000000 
0.500000 0.093721 0.000000 
0.236622 0.065266 0.000000 
0.752018 -0.161017 0.000000 
0.763378 0.065266 0.000000 
1.007587 0.045049 0.000000 
0.743901 0.329091 0.000000 
0.950019 0.639478 0.000000 
0.728090 0.642211 0.000000 
0.750000 1.000000 0.000000 
0.500000 0.646371 0.000000 
0.250000 1.000000 0.000000 
0.271910 0.642211 0.000000 
0.049981 0.639478 0.000000 
0.256099 0.329091 0.000000 
-0.007587 0.045049 0.000000 
0.126823 -0.204038 0.000000 
0.235852 -0.052175 0.000000 
0.112577 -0.080885 0.000000 
0.500000 -0.006877 0.000000 
0.364567 -0.020402 0.000000 
0.371547 -0.113853 0.000000 
0.370166 0.202831 0.000000 
0.365596 0.085093 0.000000 
0.500000 0.206913 0.000000 
0.628453 -0.113853 0.000000 
0.635433 -0.020402 0.000000 
0.887423 -0.080885 0.000000 
0.764148 -0.052175 0.000000 
0.873177 -0.204038 0.000000 
0.634404 0.085093 0.000000 
0.629834 0.202831 0.000000 
1.009609 -0.092413 0.000000 
0.887149 0.047939 0.000000 
0.861883 0.325800 0.000000 
0.877125 0.183063 0.000000 
0.995203 0.187367 0.000000 
0.755489 0.191743 0.000000 
0.623192 0.334598 0.000000 
0.962015 0.483005 0.000000 
0.847804 0.476742 0.000000 
0.845431 0.817377 0.000000 
0.838961 0.639328 0.000000 
0.950695 0.807123 0.000000 
0.733216 0.478521 0.000000 
0.616900 0.481672 0.000000 
0.875000 1.000000 0.000000 
0.732524 0.818531 0.000000 
0.500000 0.820734 0.000000 
0.616859 0.819159 0.000000 
0.625000 1.000000 0.000000 
0.614632 0.644406 0.000000 
0.500000 0.483054 0.000000 
0.375000 1.000000 0.000000 
0.383141 0.819159 0.000000 
0.154569 0.817377 0.000000 
0.267476 0.818531 0.000000 
0.125000 1.000000 0.000000 
0.385368 0.644406 0.000000 
0.383100 0.481672 0.000000 
0.049305 0.807123 0.000000 
0.161039 0.639328 0.000000 
0.138117 0.325800 0.000000 
0.152196 0.476742 0.000000 
0.037985 0.483005 0.000000 
0.266784 0.478521 0.000000 
0.376808 0.334598 0.000000 
0.004797 0.187367 0.000000 
0.122875 0.183063 0.000000 
0.112851 0.047939 0.000000 
-0.009609 -0.092413 0.000000 
0.244511 0.191743 0.000000 

CELLS 128 512
3  0 25 27 
3  9 26 25 
3  11 27 26 
3  25 26 27 
3  4 28 30 
3  10 29 28 
3  9 30 29 
3  28 29 30 
3  8 31 33 
3  11 32 31 
3  10 33 32 
3  31 32 33 
3  9 29 26 
3  10 32 29 
3  11 26 32 
3  29 32 26 
3  4 34 28 
3  12 35 34 
3  10 28 35 
3  34 35 28 
3  1 36 38 
3  13 37 36 
3  12 38 37 
3  36 37 38 
3  8 33 40 
3  10 39 33 
3  13 40 39 
3  33 39 40 
3  12 37 35 
3  13 39 37 
3  10 35 39 
3  37 39 35 
3  1 41 36 
3  14 42 41 
3  13 36 42 
3  41 42 36 
3  5 43 45 
3  15 44 43 
3  14 45 44 
3  43 44 45 
3  8 40 47 
3  13 46 40 
3  15 47 46 
3  40 46 47 
3  14 44 42 
3  15 46 44 
3  13 42 46 
3  44 46 42 
3  5 48 43 
3  16 49 48 
3  15 43 49 
3  48 49 43 
3  2 50 52 
3  17 51 50 
3  16 52 51 
3  50 51 52 
3  8 47 54 
3  15 53 47 
3  17 54 53 
3  47 53 54 
3  16 51 49 
3  17 53 51 
3  15 49 53 
3  51 53 49 
3  2 55 50 
3  18 56 55 
3  17 50 56 
3  55 56 50 
3  6 57 59 
3  19 58 57 
3  18 59 58 
3  57 58 59 
3  8 54 61 
3  17 60 54 
3  19 61 60 
3  54 60 61 
3  18 58 56 
3  19 60 58 
3  17 56 60 
3  58 60 56 
3  6 62 57 
3  20 63 62 
3  19 57 63 
3  62 63 57 
3  3 64 66 
3  21 65 64 
3  20 66 65 
3  64 65 66 
3  8 61 68 
3  19 67 61 
3  21 68 67 
3  61 67 68 
3  20 65 63 
3  21 67 65 
3  19 63 67 
3  65 67 63 
3  3 69 64 
3  22 70 69 
3  21 64 70 
3  69 70 64 
3  7 71 73 
3  23 72 71 
3  22 73 72 
3  71 72 73 
3  8 68 75 
3  21 74 68 
3  23 75 74 
3  68 74 75 
3  22 72 70 
3  23 74 72 
3  21 70 74 
3  72 74 70 
3  7 76 71 
3  24 77 76 
3  23 71 77 
3  76 77 71 
3  0 27 79 
3  11 78 27 
3  24 79 78 
3  27 78 79 
3  8 75 31 
3  23 80 75 
3  11 31 80 
3  75 80 31 
3  24 78 77 
3  11 80 78 
3  23 77 80 
3  78 80 77 

CELL_TYPES 128
5
5
5
5
5
5
5
5
5
5
5
5
5
5
5
5
5
5
5
5
5
5
5
5
5
5
5
5
5
5
5
5
5
5
5
5
5
5
5
5
5
5
5
5
5
5
5
5
5
5
5
5
5
5
5
5
5
5
5
5
5
5
5
5
5
5
5
5
5
5
5
5
5
5
5
5
5
5
5
5
5
5
5
5
5
5
5
5
5
5
5
5
5
5
5
5
5
5
5
5
5
5
5
5
5
5
5
5
5
5
5
5
5
5
5
5
5
5
5
5
5
5
5
5
5
5
5
5

POINT_DATA 81

SCALARS u_h float 2
LOOKUP_TABLE default
0.002429 -0.222491 
-0.002429 -0.222491 
0.000000 0.000000 
0.000000 0.000000 
0.000000 -0.097250 
-0.022111 -0.165715 
0.000000 0.000000 
0.022111 -0.165715 
0.000000 -0.166216 
-0.002018 -0.161017 
0.000000 -0.156279 
-0.013378 -0.184734 
0.002018 -0.161017 
0.013378 -0.184734 
0.007587 -0.204951 
-0.006099 -0.170909 
-0.049981 -0.110522 
-0.021910 -0.107789 
0.000000 0.000000 
0.000000 -0.103629 
0.000000 0.000000 
0.021910 -0.107789 
0.049981 -0.110522 
0.006099 -0.170909 
-0.007587 -0.204951 
0.001823 -0.204038 
-0.014148 -0.177175 
-0.012423 -0.205885 
0.000000 -0.131877 
-0.010433 -0.145402 
-0.003453 -0.113853 
-0.004834 -0.172169 
-0.009404 -0.164907 
0.000000 -0.168087 
0.003453 -0.113853 
0.010433 -0.145402 
0.012423 -0.205885 
0.014148 -0.177175 
-0.001823 -0.204038 
0.009404 -0.164907 
0.004834 -0.172169 
0.009609 -0.217413 
0.012149 -0.202061 
-0.013117 -0.174200 
0.002125 -0.191937 
-0.004797 -0.187633 
0.005489 -0.183257 
-0.001808 -0.165402 
-0.037985 -0.141995 
-0.027196 -0.148258 
-0.029569 -0.057623 
-0.036039 -0.110672 
-0.049305 -0.067877 
-0.016784 -0.146479 
-0.008100 -0.143328 
0.000000 0.000000 
-0.017476 -0.056469 
-0.000000 -0.054266 
-0.008141 -0.055841 
0.000000 0.000000 
-0.010368 -0.105594 
0.000000 -0.141946 
0.000000 0.000000 
0.008141 -0.055841 
0.029569 -0.057623 
0.017476 -0.056469 
0.000000 0.000000 
0.010368 -0.105594 
0.008100 -0.143328 
0.049305 -0.067877 
0.036039 -0.110672 
0.013117 -0.174200 
0.027196 -0.148258 
0.037985 -0.141995 
0.016784 -0.146479 
0.001808 -0.165402 
0.004797 -0.187633 
-0.002125 -0.191937 
-0.012149 -0.202061 
-0.009609 -0.217413 
-0.005489 -0.183257 

CELL_DATA 128

SCALARS epsilon float 4
LOOKUP_TABLE default
0.018686 0.013086 0.000000 0.017647
0.013718 -0.022313 0.000000 0.148107
-0.015401 -0.032995 0.000000 0.125313
0.019211 0.038191 0.000000 0.058769
0.027242 -0.293774 0.000000 0.091791
0.080003 -0.205448 0.000000 0.066822
0.019263 -0.132154 0.000000 0.226587
0.089727 -0.265214 0.000000 0.048850
0.037925 0.015337 0.000000 0.016066
0.026022 -0.052258 0.000000 0.101778
0.072415 -0.096366 0.000000 0.037928
0.037406 -0.060434 0.000000 0.034842
0.061916 -0.072713 0.000000 0.099053
0.071832 -0.165512 0.000000 0.044396
0.030298 -0.049882 0.000000 0.087308
0.026914 -0.127149 0.000000 0.154344
0.027242 -0.293774 0.000000 -0.091791
0.019263 -0.132154 0.000000 -0.226587
0.080003 -0.205448 0.000000 -0.066822
0.089727 -0.265214 0.000000 -0.048850
0.018686 0.013086 0.000000 -0.017647
-0.015401 -0.032995 0.000000 -0.125313
0.013718 -0.022313 0.000000 -0.148107
0.019211 0.038191 0.000000 -0.058769
0.037925 0.015337 0.000000 -0.016066
0.072415 -0.096366 0.000000 -0.037928
0.026022 -0.052258 0.000000 -0.101778
0.037406 -0.060434 0.000000 -0.034842
0.061916 -0.072713 0.000000 -0.099053
0.030298 -0.049882 0.000000 -0.087308
0.071832 -0.165512 0.000000 -0.044396
0.026914 -0.127149 0.000000 -0.154344
-0.009676 0.052520 0.000000 0.004846
-0.037392 0.094651 0.000000 -0.018822
-0.010176 0.039059 0.000000 -0.068352
-0.022968 0.034117 0.000000 -0.045841
-0.058055 0.170606 0.000000 -0.044054
-0.054248 0.129343 0.000000 -0.075126
-0.049530 0.132715 0.000000 -0.036554
-0.046689 0.136310 0.000000 -0.048462
-0.012926 0.053030 0.000000 -0.023796
0.001655 0.010069 0.000000 -0.075221
-0.034928 0.090988 0.000000 -0.067661
0.002038 0.051766 0.000000 -0.068442
-0.035961 0.076203 0.000000 -0.052068
-0.029502 0.090087 0.000000 -0.078860
-0.016629 0.012714 0.000000 -0.100342
-0.029640 0.074650 0.000000 -0.073085
-0.060270 0.181644 0.000000 -0.038142
-0.082358 0.226343 0.000000 -0.030470
-0.055402 0.184380 0.000000 -0.068805
-0.079792 0.192608 0.000000 -0.039140
-0.102189 0.437152 0.000000 0.176623
-0.117550 0.343358 0.000000 0.018609
-0.117654 0.286724 0.000000 0.003288
-0.165573 0.347871 0.000000 0.000128
-0.013341 0.161642 0.000000 -0.022193
-0.035427 0.174401 0.000000 -0.061513
-0.072151 0.263709 0.000000 -0.030381
-0.071968 0.160482 0.000000 -0.037097
-0.115713 0.257967 0.000000 -0.037232
-0.119493 0.263724 0.000000 -0.030493
-0.084786 0.175853 0.000000 -0.051290
-0.085808 0.257168 0.000000 -0.041960
0.013108 0.365309 0.000000 0.106502
0.004637 0.359591 0.000000 0.063135
-0.100732 0.333684 0.000000 0.014734
-0.083725 0.366823 0.000000 0.114690
0.000000 0.348530 0.000000 0.000000
-0.067241 0.323225 0.000000 -0.004495
0.001013 0.356460 0.000000 0.029460
-0.065479 0.357053 0.000000 0.027169
-0.066887 0.175859 0.000000 -0.004608
-0.096701 0.258612 0.000000 -0.016134
-0.086357 0.262226 0.000000 -0.005968
-0.066940 0.258642 0.000000 -0.013408
-0.071518 0.360069 0.000000 0.066496
-0.086044 0.325509 0.000000 0.003348
-0.095688 0.333962 0.000000 0.011721
-0.077284 0.325304 0.000000 0.007063
0.000000 0.348530 0.000000 0.000000
0.001013 0.356460 0.000000 -0.029460
-0.067241 0.323225 0.000000 0.004495
-0.065479 0.357053 0.000000 -0.027169
0.013108 0.365309 0.000000 -0.106502
-0.100732 0.333684 0.000000 -0.014734
0.004637 0.359591 0.000000 -0.063135
-0.083725 0.366823 0.000000 -0.114690
-0.066887 0.175859 0.000000 0.004608
-0.086357 0.262226 0.000000 0.005968
-0.096701 0.258612 0.000000 0.016134
-0.066940 0.258642 0.000000 0.013408
-0.071518 0.360069 0.000000 -0.066496
-0.095688 0.333962 0.000000 -0.011721
-0.086044 0.325509 0.000000 -0.003348
-0.077284 0.325304 0.000000 -0.007063
-0.102189 0.437152 0.000000 -0.176623
-0.117654 0.286724 0.000000 -0.003288
-0.117550 0.343358 0.000000 -0.018609
-0.165573 0.347871 0.000000 -0.000128
-0.060270 0.181644 0.000000 0.038142
-0.055402 0.184380 0.000000 0.068805
-0.082358 0.226343 0.000000 0.030470
-0.079792 0.192608 0.000000 0.039140
-0.013341 0.161642 0.000000 0.022193
-0.072151 0.263709 0.000000 0.030381
-0.035427 0.174401 0.000000 0.061513
-0.071968 0.160482 0.000000 0.037097
-0.115713 0.257967 0.000000 0.037232
-0.084786 0.175853 0.000000 0.051290
-0.119493 0.263724 0.000000 0.030493
-0.085808 0.257168 0.000000 0.041960
-0.058055 0.170606 0.000000 0.044054
-0.049530 0.132715 0.000000 0.036554
-0.054248 0.129343 0.000000 0.075126
-0.046689 0.136310 0.000000 0.048462
-0.009676 0.052520 0.000000 -0.004846
-0.010176 0.039059 0.000000 0.068352
-0.037392 0.094651 0.000000 0.018822
-0.022968 0.034117 0.000000 0.045841
-0.012926 0.053030 0.000000 0.023796
-0.034928 0.090988 0.000000 0.067661
0.001655 0.010069 0.000000 0.075221
0.002038 0.051766 0.000000 0.068442
-0.035961 0.076203 0.000000 0.052068
-0.016629 0.012714 0.000000 0.100342
-0.029502 0.090087 0.000000 0.078860
-0.029640 0.074650 0.000000 0.073085

SCALARS sigma float 4
LOOKUP_TABLE default
0.637382 0.479631 0.316386 0.340118
-0.005435 -1.963449 -0.530790 2.195172
-1.073702 -1.981332 -0.787868 2.100987
0.908426 0.893273 0.519614 1.052574
-2.480453 -13.089106 -2.993895 1.465966
-0.334655 -6.823136 -1.672481 1.017490
-1.404166 -8.416067 -2.206660 3.047646
-0.661096 -9.881448 -2.278535 0.115279
1.119392 0.771374 0.539094 0.254017
-0.135269 -1.750883 -0.496728 1.693098
0.728758 -2.265853 -0.407854 0.581342
0.281100 -1.399138 -0.299779 0.602052
0.749327 -2.210933 -0.394240 1.319205
-0.041240 -4.891426 -1.213999 0.722386
0.105575 -1.525686 -0.378524 1.399804
-1.109821 -5.380240 -1.547233 2.515633
-2.480453 -13.089106 -2.993895 -1.465966
-1.404166 -8.416067 -2.206660 -3.047646
-0.334655 -6.823136 -1.672481 -1.017490
-0.661096 -9.881448 -2.278535 -0.115279
0.637382 0.479631 0.316386 -0.340118
-1.073702 -1.981332 -0.787868 -2.100987
-0.005435 -1.963449 -0.530790 -2.195172
0.908426 0.893273 0.519614 -1.052574
1.119392 0.771374 0.539094 -0.254017
0.728758 -2.265853 -0.407854 -0.581342
-0.135269 -1.750883 -0.496728 -1.693098
0.281100 -1.399138 -0.299779 -0.602052
0.749327 -2.210933 -0.394240 -1.319205
0.105575 -1.525686 -0.378524 -1.399804
-0.041240 -4.891426 -1.213999 -0.722386
-1.109821 -5.380240 -1.547233 -2.515633
0.253562 1.218265 0.417811 -0.035368
-0.127739 1.871587 0.494729 -0.291242
0.018416 0.655070 0.187448 -1.131129
-0.332261 0.527396 0.053793 -0.768496
-0.151485 3.206028 0.888601 -0.342231
-0.552572 2.312337 0.497739 -1.034481
-0.198005 2.545708 0.673666 -0.387117
-0.129781 2.637485 0.721953 -0.526476
0.147122 1.186477 0.376007 -0.334382
-0.045197 0.061287 0.004410 -1.230164
-0.268464 1.708432 0.405473 -0.999315
0.427306 1.151725 0.446466 -1.063630
-0.373144 1.421714 0.293395 -0.775059
-0.166065 1.685945 0.428314 -1.186424
-0.639407 -0.271980 -0.244744 -1.694792
-0.283662 1.353403 0.299024 -1.132374
-0.089629 3.396422 0.965689 -0.255593
-0.368912 3.959020 1.048462 -0.185596
-0.014303 3.415461 0.990789 -0.842459
-0.627182 3.370322 0.790151 -0.328838
-0.550969 6.631617 1.832271 1.108284
-0.564527 5.449455 1.443923 0.094029
-1.045145 4.558487 1.015797 0.037990
-2.496397 4.889743 0.671020 -0.254858
1.214719 3.548688 1.430027 -0.213033
0.568450 3.463910 1.190489 -0.781937
0.346086 4.721004 1.516586 -0.366970
-0.626118 2.825337 0.626627 -0.517643
-1.292312 4.084437 0.797807 -0.412293
-1.355272 4.135538 0.793445 -0.406073
-0.978025 2.954795 0.559863 -0.672329
-0.224098 4.428209 1.237055 -0.468149
3.653094 7.331014 3.653094 0.559630
3.595906 7.240214 3.595906 0.338159
-0.004807 5.518749 1.652924 0.098557
0.362768 6.057576 1.953661 0.890606
3.485301 7.063104 3.485301 0.000000
1.098542 5.786654 2.124758 -0.079237
3.564605 7.190294 3.564605 0.159446
1.442192 6.332431 2.433382 0.151259
-0.260989 3.214654 0.854043 -0.081189
-0.529597 4.345089 1.113737 -0.220321
-0.122253 4.539185 1.305067 -0.107604
0.501576 4.714789 1.567157 -0.160766
1.111395 6.243806 2.282047 0.479472
0.464372 5.582166 1.834262 -0.024895
0.186262 5.589569 1.740871 0.041651
0.769737 5.691008 1.976398 0.040746
3.485301 7.063104 3.485301 0.000000
3.564605 7.190294 3.564605 -0.159446
1.098542 5.786654 2.124758 0.079237
1.442192 6.332431 2.433382 -0.151259
3.653094 7.331014 3.653094 -0.559630
-0.004807 5.518749 1.652924 -0.098557
3.595906 7.240214 3.595906 -0.338159
0.362768 6.057576 1.953661 -0.890606
-0.260989 3.214654 0.854043 0.081189
-0.122253 4.539185 1.305067 0.107604
-0.529597 4.345089 1.113737 0.220321
0.501576 4.714789 1.567157 0.160766
1.111395 6.243806 2.282047 -0.479472
0.186262 5.589569 1.740871 -0.041651
0.464372 5.582166 1.834262 0.024895
0.769737 5.691008 1.976398 -0.040746
-0.550969 6.631617 1.832271 -1.108284
-1.045145 4.558487 1.015797 -0.037990
-0.564527 5.449455 1.443923 -0.094029
-2.496397 4.889743 0.671020 0.254858
-0.089629 3.396422 0.965689 0.255593
-0.014303 3.415461 0.990789 0.842459
-0.368912 3.959020 1.048462 0.185596
-0.627182 3.370322 0.790151 0.328838
1.214719 3.548688 1.430027 0.213033
0.346086 4.721004 1.516586 0.366970
0.568450 3.463910 1.190489 0.781937
-0.626118 2.825337 0.626627 0.517643
-1.292312 4.084437 0.797807 0.412293
-0.978025 2.954795 0.559863 0.672329
-1.355272 4.135538 0.793445 0.406073
-0.224098 4.428209 1.237055 0.468149
-0.151485 3.206028 0.888601 0.342231
-0.198005 2.545708 0.673666 0.387117
-0.552572 2.312337 0.497739 1.034481
-0.129781 2.637485 0.721953 0.526476
0.253562 1.218265 0.417811 0.035368
0.018416 0.655070 0.187448 1.131129
-0.127739 1.871587 0.494729 0.291242
-0.332261 0.527396 0.053793 0.768496
0.147122 1.186477 0.376007 0.334382
-0.268464 1.708432 0.405473 0.999315
-0.045197 0.061287 0.004410 1.230164
0.427306 1.151725 0.446466 1.063630
-0.373144 1.421714 0.293395 0.775059
-0.639407 -0.271980 -0.244744 1.694792
-0.166065 1.685945 0.428314 1.186424
-0.283662 1.353403 0.299024 1.132374

