# vtk DataFile Version 2.0
Unstructured Grid Example
ASCII
DATASET UNSTRUCTURED_GRID

POINTS 16641 float
0.014068 -0.237291 0.000000 
0.985932 -0.237291 0.000000 
1.000000 1.000000 0.000000 
0.000000 1.000000 0.000000 
0.500000 -0.099988 0.000000 
0.979823 0.330223 0.000000 
0.500000 1.000000 0.000000 
0.020177 0.330223 0.000000 
0.500000 0.332422 0.000000 
0.252583 -0.161207 0.000000 
0.500000 0.088747 0.000000 
0.234915 0.062040 0.000000 
0.747417 -0.161207 0.000000 
0.765085 0.062040 0.000000 
1.009508 0.036891 0.000000 
0.745244 0.323777 0.000000 
0.946649 0.639003 0.000000 
0.726350 0.637789 0.000000 
0.750000 1.000000 0.000000 
0.500000 0.641045 0.000000 
0.250000 1.000000 0.000000 
0.273650 0.637789 0.000000 
0.053351 0.639003 0.000000 
0.254756 0.323777 0.000000 
-0.009508 0.036891 0.000000 
0.138687 -0.212245 0.000000 
0.235351 -0.054083 0.000000 
0.114045 -0.087405 0.000000 
0.500000 -0.011782 0.000000 
0.364677 -0.023478 0.000000 
0.369661 -0.116978 0.000000 
0.370120 0.198303 0.000000 
0.365464 0.081101 0.000000 
0.500000 0.202943 0.000000 
0.630339 -0.116978 0.000000 
0.635323 -0.023478 0.000000 
0.885955 -0.087405 0.000000 
0.764649 -0.054083 0.000000 
0.861313 -0.212245 0.000000 
0.634536 0.081101 0.000000 
0.629880 0.198303 0.000000 
1.005481 -0.106315 0.000000 
0.889713 0.042778 0.000000 
0.864107 0.320719 0.000000 
0.880007 0.178229 0.000000 
0.998189 0.182801 0.000000 
0.757092 0.187323 0.000000 
0.623510 0.329760 0.000000 
0.960805 0.481472 0.000000 
0.847759 0.472398 0.000000 
0.840011 0.813631 0.000000 
0.836563 0.635822 0.000000 
0.945892 0.805055 0.000000 
0.733522 0.473447 0.000000 
0.617441 0.476924 0.000000 
0.875000 1.000000 0.000000 
0.729983 0.815877 0.000000 
0.500000 0.816975 0.000000 
0.615937 0.816688 0.000000 
0.625000 1.000000 0.000000 
0.613986 0.640090 0.000000 
0.500000 0.478545 0.000000 
0.375000 1.000000 0.000000 
0.384063 0.816688 0.000000 
0.159989 0.813631 0.000000 
0.270017 0.815877 0.000000 
0.125000 1.000000 0.000000 
0.386014 0.640090 0.000000 
0.382559 0.476924 0.000000 
0.054108 0.805055 0.000000 
0.163437 0.635822 0.000000 
0.135893 0.320719 0.000000 
0.152241 0.472398 0.000000 
0.039195 0.481472 0.000000 
0.266478 0.473447 0.000000 
0.376490 0.329760 0.000000 
0.001811 0.182801 0.000000 
0.119993 0.178229 0.000000 
0.110287 0.042778 0.000000 
-0.005481 -0.106315 0.000000 
0.242908 0.187323 0.000000 
0.075939 -0.226347 0.000000 
0.123466 -0.150889 0.000000 
0.063751 -0.163795 0.000000 
0.240889 -0.108926 0.000000 
0.181798 -0.131959 0.000000 
0.199092 -0.190177 0.000000 
0.171107 -0.010932 0.000000 
0.173945 -0.072019 0.000000 
0.233737 0.002929 0.000000 
0.500000 -0.057390 0.000000 
0.432589 -0.061005 0.000000 
0.433788 -0.104373 0.000000 
0.431890 0.034423 0.000000 
0.431912 -0.014778 0.000000 
0.500000 0.036877 0.000000 
0.309078 -0.136442 0.000000 
0.366430 -0.071492 0.000000 
0.302414 -0.087913 0.000000 
0.436459 0.264765 0.000000 
0.434879 0.201736 0.000000 
0.500000 0.265687 0.000000 
0.299490 0.072449 0.000000 
0.367450 0.138026 0.000000 
0.302236 0.131325 0.000000 
0.500000 0.144031 0.000000 
0.433504 0.142475 0.000000 
0.432463 0.086774 0.000000 
0.298994 -0.037061 0.000000 
0.364440 0.027326 0.000000 
0.298237 0.016367 0.000000 
0.566212 -0.104373 0.000000 
0.567411 -0.061005 0.000000 
0.697586 -0.087913 0.000000 
0.633570 -0.071492 0.000000 
0.690922 -0.136442 0.000000 
0.568088 -0.014778 0.000000 
0.568110 0.034423 0.000000 
0.936249 -0.163795 0.000000 
0.876534 -0.150889 0.000000 
0.924061 -0.226347 0.000000 
0.766263 0.002929 0.000000 
0.826055 -0.072019 0.000000 
0.828893 -0.010932 0.000000 
0.800908 -0.190177 0.000000 
0.818202 -0.131959 0.000000 
0.759111 -0.108926 0.000000 
0.565121 0.201736 0.000000 
0.563541 0.264765 0.000000 
0.567537 0.086774 0.000000 
0.566496 0.142475 0.000000 
0.697764 0.131325 0.000000 
0.632550 0.138026 0.000000 
0.700510 0.072449 0.000000 
0.701006 -0.037061 0.000000 
0.701763 0.016367 0.000000 
0.635560 0.027326 0.000000 
0.996635 -0.173935 0.000000 
0.945708 -0.098509 0.000000 
0.950179 0.037404 0.000000 
0.950311 -0.031259 0.000000 
1.009889 -0.035466 0.000000 
0.890017 -0.022870 0.000000 
0.828106 0.051536 0.000000 
0.922349 0.323189 0.000000 
0.931451 0.249893 0.000000 
0.989439 0.256190 0.000000 
0.812413 0.250323 0.000000 
0.872443 0.248470 0.000000 
0.805068 0.321350 0.000000 
1.005224 0.109744 0.000000 
0.939701 0.177963 0.000000 
0.946274 0.107170 0.000000 
0.626785 0.262146 0.000000 
0.561877 0.331752 0.000000 
0.761832 0.123420 0.000000 
0.693955 0.193199 0.000000 
0.684688 0.326881 0.000000 
0.689474 0.258306 0.000000 
0.751397 0.254019 0.000000 
0.886053 0.109742 0.000000 
0.819131 0.181867 0.000000 
0.824595 0.115701 0.000000 
0.970068 0.405192 0.000000 
0.913105 0.398135 0.000000 
0.896827 0.554264 0.000000 
0.904365 0.475046 0.000000 
0.952721 0.559327 0.000000 
0.855668 0.395259 0.000000 
0.797685 0.395225 0.000000 
0.906929 0.904520 0.000000 
0.893006 0.810443 0.000000 
0.956787 0.893125 0.000000 
0.781674 0.636593 0.000000 
0.835520 0.722826 0.000000 
0.781319 0.724227 0.000000 
0.943752 0.720766 0.000000 
0.889351 0.721314 0.000000 
0.891383 0.636180 0.000000 
0.620304 0.401317 0.000000 
0.560254 0.402846 0.000000 
0.739117 0.396845 0.000000 
0.679968 0.399132 0.000000 
0.672361 0.555220 0.000000 
0.675710 0.475223 0.000000 
0.729032 0.553746 0.000000 
0.841087 0.552466 0.000000 
0.785233 0.552610 0.000000 
0.790852 0.472224 0.000000 
0.937500 1.000000 0.000000 
0.852851 0.907291 0.000000 
0.737946 0.907998 0.000000 
0.796066 0.907879 0.000000 
0.812500 1.000000 0.000000 
0.785649 0.815116 0.000000 
0.726347 0.725380 0.000000 
0.500000 0.908066 0.000000 
0.559889 0.908054 0.000000 
0.562500 1.000000 0.000000 
0.557179 0.727499 0.000000 
0.558085 0.816896 0.000000 
0.500000 0.727664 0.000000 
0.687500 1.000000 0.000000 
0.619622 0.908039 0.000000 
0.679038 0.908024 0.000000 
0.558816 0.478117 0.000000 
0.500000 0.403389 0.000000 
0.670446 0.639034 0.000000 
0.615220 0.556576 0.000000 
0.500000 0.557846 0.000000 
0.557710 0.557511 0.000000 
0.557105 0.640794 0.000000 
0.673320 0.816356 0.000000 
0.614113 0.727038 0.000000 
0.670569 0.726319 0.000000 
0.437500 1.000000 0.000000 
0.440111 0.908054 0.000000 
0.320962 0.908024 0.000000 
0.380378 0.908039 0.000000 
0.312500 1.000000 0.000000 
0.441915 0.816896 0.000000 
0.442821 0.727499 0.000000 
0.093071 0.904520 0.000000 
0.147149 0.907291 0.000000 
0.062500 1.000000 0.000000 
0.273653 0.725380 0.000000 
0.214351 0.815116 0.000000 
0.218681 0.724227 0.000000 
0.187500 1.000000 0.000000 
0.203934 0.907879 0.000000 
0.262054 0.907998 0.000000 
0.441184 0.478117 0.000000 
0.439746 0.402846 0.000000 
0.442895 0.640794 0.000000 
0.442290 0.557511 0.000000 
0.327639 0.555220 0.000000 
0.384780 0.556576 0.000000 
0.329554 0.639034 0.000000 
0.326680 0.816356 0.000000 
0.329431 0.726319 0.000000 
0.385887 0.727038 0.000000 
0.043213 0.893125 0.000000 
0.106994 0.810443 0.000000 
0.108617 0.636180 0.000000 
0.110649 0.721314 0.000000 
0.056248 0.720766 0.000000 
0.164480 0.722826 0.000000 
0.218326 0.636593 0.000000 
0.077651 0.323189 0.000000 
0.086895 0.398135 0.000000 
0.029932 0.405192 0.000000 
0.202315 0.395225 0.000000 
0.144332 0.395259 0.000000 
0.194932 0.321350 0.000000 
0.047279 0.559327 0.000000 
0.095635 0.475046 0.000000 
0.103173 0.554264 0.000000 
0.379696 0.401317 0.000000 
0.438123 0.331752 0.000000 
0.270968 0.553746 0.000000 
0.324290 0.475223 0.000000 
0.315312 0.326881 0.000000 
0.320032 0.399132 0.000000 
0.260883 0.396845 0.000000 
0.158913 0.552466 0.000000 
0.209148 0.472224 0.000000 
0.214767 0.552610 0.000000 
0.010561 0.256190 0.000000 
0.068549 0.249893 0.000000 
0.053726 0.107170 0.000000 
0.060299 0.177963 0.000000 
-0.005224 0.109744 0.000000 
0.127557 0.248470 0.000000 
0.187587 0.250323 0.000000 
0.054292 -0.098509 0.000000 
0.003365 -0.173935 0.000000 
0.171894 0.051536 0.000000 
0.109983 -0.022870 0.000000 
-0.009889 -0.035466 0.000000 
0.049689 -0.031259 0.000000 
0.049821 0.037404 0.000000 
0.373215 0.262146 0.000000 
0.248603 0.254019 0.000000 
0.310526 0.258306 0.000000 
0.306045 0.193199 0.000000 
0.238168 0.123420 0.000000 
0.113947 0.109742 0.000000 
0.175405 0.115701 0.000000 
0.180869 0.181867 0.000000 
0.044861 -0.231931 0.000000 
0.069783 -0.195460 0.000000 
0.039215 -0.200842 0.000000 
0.130433 -0.182008 0.000000 
0.100268 -0.189365 0.000000 
0.107297 -0.219972 0.000000 
0.088351 -0.125922 0.000000 
0.093773 -0.157937 0.000000 
0.118025 -0.119295 0.000000 
0.245775 -0.135391 0.000000 
0.216958 -0.148314 0.000000 
0.225752 -0.175205 0.000000 
0.207036 -0.092058 0.000000 
0.211062 -0.120498 0.000000 
0.237526 -0.081797 0.000000 
0.169630 -0.202575 0.000000 
0.188595 -0.161438 0.000000 
0.159952 -0.172857 0.000000 
0.202360 0.026063 0.000000 
0.202197 -0.004099 0.000000 
0.234027 0.032215 0.000000 
0.143901 -0.080215 0.000000 
0.172007 -0.041629 0.000000 
0.141579 -0.048867 0.000000 
0.234140 -0.025835 0.000000 
0.202828 -0.033831 0.000000 
0.204383 -0.063152 0.000000 
0.152756 -0.142271 0.000000 
0.177110 -0.102129 0.000000 
0.147542 -0.111350 0.000000 
0.500000 -0.079071 0.000000 
0.466465 -0.080072 0.000000 
0.466757 -0.101094 0.000000 
0.466018 -0.035790 0.000000 
0.466211 -0.058300 0.000000 
0.500000 -0.034961 0.000000 
0.401352 -0.109721 0.000000 
0.433143 -0.083044 0.000000 
0.400230 -0.087906 0.000000 
0.466017 0.061842 0.000000 
0.465903 0.036258 0.000000 
0.500000 0.062398 0.000000 
0.398139 -0.018453 0.000000 
0.431820 0.009441 0.000000 
0.397965 0.006110 0.000000 
0.500000 0.012158 0.000000 
0.465862 0.011473 0.000000 
0.465900 -0.012536 0.000000 
0.280323 -0.148250 0.000000 
0.305332 -0.112429 0.000000 
0.275197 -0.123361 0.000000 
0.367886 -0.094530 0.000000 
0.336232 -0.102761 0.000000 
0.338871 -0.125953 0.000000 
0.332582 -0.054707 0.000000 
0.334119 -0.079036 0.000000 
0.365355 -0.047820 0.000000 
0.432170 -0.038254 0.000000 
0.398580 -0.042295 0.000000 
0.399285 -0.065437 0.000000 
[...]
POINT_DATA 16641

SCALARS u_h float 2
LOOKUP_TABLE default
0.014068 -0.237291 
-0.014068 -0.237291 
0.000000 0.000000 
0.000000 0.000000 
0.000000 -0.099988 
-0.020177 -0.169777 
0.000000 0.000000 
0.020177 -0.169777 
0.000000 -0.167578 
0.002583 -0.161207 
0.000000 -0.161253 
-0.015085 -0.187960 
-0.002583 -0.161207 
0.015085 -0.187960 
0.009508 -0.213109 
-0.004756 -0.176223 
-0.053351 -0.110997 
-0.023650 -0.112211 
0.000000 0.000000 
0.000000 -0.108955 
0.000000 0.000000 
0.023650 -0.112211 
0.053351 -0.110997 
0.004756 -0.176223 
-0.009508 -0.213109 
0.013687 -0.212245 
-0.014649 -0.179083 
-0.010955 -0.212405 
0.000000 -0.136782 
-0.010323 -0.148478 
-0.005339 -0.116978 
-0.004880 -0.176697 
-0.009536 -0.168899 
0.000000 -0.172057 
0.005339 -0.116978 
0.010323 -0.148478 
0.010955 -0.212405 
0.014649 -0.179083 
-0.013687 -0.212245 
0.009536 -0.168899 
0.004880 -0.176697 
0.005481 -0.231315 
0.014713 -0.207222 
-0.010893 -0.179281 
0.005007 -0.196771 
-0.001811 -0.192199 
0.007092 -0.187677 
-0.001490 -0.170240 
-0.039195 -0.143528 
-0.027241 -0.152602 
-0.034989 -0.061369 
-0.038437 -0.114178 
-0.054108 -0.069945 
-0.016478 -0.151553 
-0.007559 -0.148076 
0.000000 0.000000 
-0.020017 -0.059123 
-0.000000 -0.058025 
-0.009063 -0.058312 
0.000000 0.000000 
-0.011014 -0.109910 
0.000000 -0.146455 
0.000000 0.000000 
0.009063 -0.058312 
0.034989 -0.061369 
0.020017 -0.059123 
0.000000 0.000000 
0.011014 -0.109910 
0.007559 -0.148076 
0.054108 -0.069945 
0.038437 -0.114178 
0.010893 -0.179281 
0.027241 -0.152602 
0.039195 -0.143528 
0.016478 -0.151553 
0.001490 -0.170240 
0.001811 -0.192199 
-0.005007 -0.196771 
-0.014713 -0.207222 
-0.005481 -0.231315 
-0.007092 -0.187677 
0.013439 -0.226347 
-0.001534 -0.213389 
0.001251 -0.226295 
-0.009111 -0.171426 
-0.005702 -0.194459 
0.011592 -0.190177 
-0.016393 -0.198432 
-0.013555 -0.197019 
-0.016263 -0.184571 
0.000000 -0.119890 
-0.004911 -0.123505 
-0.003712 -0.104373 
-0.005610 -0.153077 
-0.005588 -0.139778 
0.000000 -0.150623 
-0.003422 -0.136442 
-0.008570 -0.133992 
-0.010086 -0.150413 
-0.001041 -0.172735 
-0.002621 -0.173264 
0.000000 -0.171813 
-0.013010 -0.177551 
-0.007550 -0.174474 
-0.010264 -0.181175 
0.000000 -0.168469 
-0.003996 -0.170025 
-0.005037 -0.163226 
-0.013506 -0.162061 
-0.010560 -0.160174 
-0.014263 -0.171133 
0.003712 -0.104373 
0.004911 -0.123505 
0.010086 -0.150413 
0.008570 -0.133992 
0.003422 -0.136442 
0.005588 -0.139778 
0.005610 -0.153077 
-0.001251 -0.226295 
0.001534 -0.213389 
-0.013439 -0.226347 
0.016263 -0.184571 
0.013555 -0.197019 
0.016393 -0.198432 
-0.011592 -0.190177 
0.005702 -0.194459 
0.009111 -0.171426 
0.002621 -0.173264 
0.001041 -0.172735 
0.005037 -0.163226 
0.003996 -0.170025 
0.010264 -0.181175 
0.007550 -0.174474 
0.013010 -0.177551 
0.013506 -0.162061 
0.014263 -0.171133 
0.010560 -0.160174 
-0.003365 -0.236435 
0.008208 -0.223509 
0.012679 -0.212596 
0.012811 -0.218759 
0.009889 -0.222966 
0.015017 -0.210370 
0.015606 -0.198464 
-0.015151 -0.176811 
-0.006049 -0.187607 
-0.010561 -0.181310 
-0.000087 -0.187177 
-0.002557 -0.189030 
-0.007432 -0.178650 
0.005224 -0.202756 
0.002201 -0.197037 
0.008774 -0.205330 
0.001785 -0.175354 
-0.000623 -0.168248 
0.011832 -0.189080 
0.006455 -0.181801 
-0.002812 -0.173119 
0.001974 -0.179194 
0.001397 -0.183481 
0.011053 -0.202758 
0.006631 -0.193133 
0.012095 -0.196799 
-0.029932 -0.157308 
-0.024395 -0.164365 
-0.040673 -0.133236 
-0.033135 -0.149954 
-0.047279 -0.128173 
-0.019332 -0.167241 
-0.014815 -0.167275 
-0.030571 -0.032980 
-0.044494 -0.064557 
-0.043213 -0.044375 
-0.030826 -0.113407 
-0.039480 -0.089674 
-0.031181 -0.088273 
-0.056248 -0.091734 
-0.048149 -0.091186 
-0.046117 -0.113820 
-0.004696 -0.161183 
-0.002246 -0.159654 
-0.010883 -0.165655 
-0.007532 -0.163368 
-0.015139 -0.132280 
-0.011790 -0.149777 
-0.020968 -0.133754 
-0.033913 -0.135034 
-0.027267 -0.134890 
-0.021648 -0.152776 
0.000000 0.000000 
-0.022149 -0.030209 
-0.012054 -0.029502 
-0.016434 -0.029621 
0.000000 0.000000 
-0.026851 -0.059884 
-0.023653 -0.087120 
-0.000000 -0.029434 
-0.002611 -0.029446 
0.000000 0.000000 
-0.005321 -0.085001 
-0.004415 -0.058104 
0.000000 -0.084836 
0.000000 0.000000 
-0.005378 -0.029461 
-0.008462 -0.029476 
-0.003684 -0.146883 
0.000000 -0.159111 
-0.017054 -0.110966 
-0.009780 -0.130924 
0.000000 -0.129654 
-0.004790 -0.129989 
-0.005395 -0.109206 
-0.014180 -0.058644 
-0.010887 -0.085462 
-0.016931 -0.086181 
0.000000 0.000000 
0.002611 -0.029446 
0.008462 -0.029476 
0.005378 -0.029461 
0.000000 0.000000 
0.004415 -0.058104 
0.005321 -0.085001 
0.030571 -0.032980 
0.022149 -0.030209 
0.000000 0.000000 
0.023653 -0.087120 
0.026851 -0.059884 
0.031181 -0.088273 
0.000000 0.000000 
0.016434 -0.029621 
0.012054 -0.029502 
0.003684 -0.146883 
0.002246 -0.159654 
0.005395 -0.109206 
0.004790 -0.129989 
0.015139 -0.132280 
0.009780 -0.130924 
0.017054 -0.110966 
0.014180 -0.058644 
0.016931 -0.086181 
0.010887 -0.085462 
0.043213 -0.044375 
0.044494 -0.064557 
0.046117 -0.113820 
0.048149 -0.091186 
0.056248 -0.091734 
0.039480 -0.089674 
0.030826 -0.113407 
0.015151 -0.176811 
0.024395 -0.164365 
0.029932 -0.157308 
0.014815 -0.167275 
0.019332 -0.167241 
0.007432 -0.178650 
0.047279 -0.128173 
0.033135 -0.149954 
0.040673 -0.133236 
0.004696 -0.161183 
0.000623 -0.168248 
0.020968 -0.133754 
0.011790 -0.149777 
0.002812 -0.173119 
0.007532 -0.163368 
0.010883 -0.165655 
0.033913 -0.135034 
0.021648 -0.152776 
0.027267 -0.134890 
0.010561 -0.181310 
0.006049 -0.187607 
-0.008774 -0.205330 
-0.002201 -0.197037 
-0.005224 -0.202756 
0.002557 -0.189030 
0.000087 -0.187177 
-0.008208 -0.223509 
0.003365 -0.236435 
-0.015606 -0.198464 
-0.015017 -0.210370 
-0.009889 -0.222966 
-0.012811 -0.218759 
-0.012679 -0.212596 
-0.001785 -0.175354 
-0.001397 -0.183481 
-0.001974 -0.179194 
-0.006455 -0.181801 
-0.011832 -0.189080 
-0.011053 -0.202758 
-0.012095 -0.196799 
-0.006631 -0.193133 
0.013611 -0.231931 
0.007283 -0.226710 
0.007965 -0.232092 
0.005433 -0.213258 
0.006518 -0.220615 
0.013547 -0.219972 
-0.005399 -0.219672 
0.000023 -0.220437 
-0.006975 -0.213045 
-0.004225 -0.166641 
-0.001792 -0.179564 
0.007002 -0.175205 
-0.011714 -0.185808 
-0.007688 -0.182998 
-0.012474 -0.175547 
0.013380 -0.202575 
0.001095 -0.192688 
0.003702 -0.204107 
-0.016390 -0.192687 
-0.016553 -0.191599 
-0.015973 -0.186535 
-0.012349 -0.205215 
-0.015493 -0.197879 
-0.014671 -0.205117 
-0.015860 -0.182085 
-0.015922 -0.190081 
-0.014367 -0.188152 
-0.003494 -0.204771 
-0.010390 -0.195879 
-0.008708 -0.205100 
0.000000 -0.110321 
-0.002285 -0.111322 
-0.001993 -0.101094 
-0.002732 -0.129540 
-0.002539 -0.120800 
0.000000 -0.128711 
-0.004898 -0.109721 
-0.004357 -0.114294 
-0.006020 -0.119156 
-0.002733 -0.156908 
-0.002847 -0.151242 
0.000000 -0.156352 
-0.008111 -0.143453 
-0.005680 -0.146809 
-0.008285 -0.150140 
0.000000 -0.144092 
-0.002888 -0.144777 
-0.002850 -0.137536 
-0.000927 -0.148250 
-0.007168 -0.143679 
-0.006053 -0.154611 
-0.007114 -0.125780 
-0.007518 -0.134011 
-0.004879 -0.125953 
-0.011168 -0.148457 
-0.009631 -0.141536 
-0.009645 -0.141570 
-0.005330 -0.132004 
-0.007670 -0.136045 
-0.006965 -0.127937 
-0.000125 -0.170396 
-0.000540 -0.172045 
0.000000 -0.170197 
-0.003817 -0.174728 
-0.001849 -0.173483 
-0.002670 -0.174765 
0.000000 -0.172426 
-0.000946 -0.172693 
-0.001334 -0.172362 
-0.014238 -0.182631 
-0.011795 -0.179724 
-0.012910 -0.184176 
-0.008645 -0.172092 
-0.010360 -0.175644 
-0.011428 -0.172918 
-0.007490 -0.178757 
-0.009034 -0.177600 
-0.006284 -0.176017 
0.000000 -0.165301 
-0.002314 -0.165744 
-0.002553 -0.161751 
-0.001696 -0.171076 
-0.002026 -0.168862 
0.000000 -0.170729 
-0.007386 -0.165634 
-0.004566 -0.167057 
-0.006696 -0.169197 
-0.004887 -0.173770 
-0.005854 -0.171918 
-0.003342 -0.172102 
-0.009913 -0.160448 
-0.012144 -0.154732 
-0.012175 -0.156553 
-0.012621 -0.165668 
-0.014356 -0.170267 
-0.005390 -0.158558 
-0.010187 -0.164919 
-0.007898 -0.161254 
-0.008207 -0.156081 
-0.010618 -0.154687 
-0.015124 -0.180451 
-0.015273 -0.174260 
-0.015496 -0.177655 
-0.013852 -0.174681 
-0.012191 -0.169443 
-0.012603 -0.160333 
-0.012600 -0.165242 
-0.014173 -0.166924 
0.001993 -0.101094 
0.002285 -0.111322 
0.006020 -0.119156 
0.004357 -0.114294 
0.004898 -0.109721 
0.002539 -0.120800 
0.002732 -0.129540 
0.006053 -0.154611 
0.007168 -0.143679 
0.000927 -0.148250 
0.009645 -0.141570 
0.009631 -0.141536 
0.011168 -0.148457 
0.004879 -0.125953 
0.007518 -0.134011 
0.007114 -0.125780 
0.002847 -0.151242 
0.002733 -0.156908 
0.002850 -0.137536 
0.002888 -0.144777 
0.008285 -0.150140 
0.005680 -0.146809 
0.008111 -0.143453 
0.006965 -0.127937 
0.007670 -0.136045 
0.005330 -0.132004 
-0.007965 -0.232092 
-0.007283 -0.226710 
-0.013611 -0.231931 
0.006975 -0.213045 
-0.000023 -0.220437 
0.005399 -0.219672 
-0.013547 -0.219972 
-0.006518 -0.220615 
-0.005433 -0.213258 
0.015973 -0.186535 
0.016553 -0.191599 
0.016390 -0.192687 
0.014367 -0.188152 
0.015922 -0.190081 
0.015860 -0.182085 
0.014671 -0.205117 
0.015493 -0.197879 
0.012349 -0.205215 
-0.007002 -0.175205 
0.001792 -0.179564 
0.004225 -0.166641 
-0.003702 -0.204107 
-0.001095 -0.192688 
-0.013380 -0.202575 
0.012474 -0.175547 
0.007688 -0.182998 
0.011714 -0.185808 
0.008708 -0.205100 
0.010390 -0.195879 
0.003494 -0.204771 
0.000540 -0.172045 
0.000125 -0.170396 
0.001334 -0.172362 
0.000946 -0.172693 
0.002670 -0.174765 
0.001849 -0.173483 
0.003817 -0.174728 
0.002553 -0.161751 
0.002314 -0.165744 
0.006696 -0.169197 
0.004566 -0.167057 
0.007386 -0.165634 
0.002026 -0.168862 
0.001696 -0.171076 
0.012910 -0.184176 
0.011795 -0.179724 
0.014238 -0.182631 
0.006284 -0.176017 
0.009034 -0.177600 
0.007490 -0.178757 
0.011428 -0.172918 
0.010360 -0.175644 
0.008645 -0.172092 
0.003342 -0.172102 
0.005854 -0.171918 
0.004887 -0.173770 
0.009913 -0.160448 
0.014356 -0.170267 
0.012621 -0.165668 
0.012175 -0.156553 
0.012144 -0.154732 
0.015124 -0.180451 
0.012191 -0.169443 
0.013852 -0.174681 
0.015496 -0.177655 
0.015273 -0.174260 
0.005390 -0.158558 
0.010618 -0.154687 
0.008207 -0.156081 
0.007898 -0.161254 
0.010187 -0.164919 
0.014173 -0.166924 
0.012600 -0.165242 
0.012603 -0.160333 
-0.008702 -0.237348 
-0.002306 -0.231438 
0.006901 -0.227701 
0.002787 -0.229950 
0.001505 -0.234391 
0.004028 -0.225191 
0.009549 -0.218476 
0.011256 -0.213563 
0.011919 -0.217631 
0.010256 -0.218142 
0.014424 -0.212892 
0.013286 -0.215829 
0.013827 -0.210422 
0.008306 -0.227426 
0.011476 -0.221413 
0.009818 -0.224811 
0.016392 -0.198640 
0.015538 -0.193316 
0.013595 -0.211515 
0.015849 -0.204771 
0.015318 -0.203172 
0.016024 -0.204136 
0.015348 -0.208948 
0.011141 -0.221340 
0.013987 -0.215063 
0.012394 -0.216929 
-0.017572 -0.173963 
-0.012813 -0.179712 
-0.015306 -0.175648 
-0.008491 -0.183902 
-0.010539 -0.182397 
-0.012923 -0.178522 
-0.006029 -0.186813 
-0.008179 -0.185173 
-0.003759 -0.190383 
-0.002578 -0.181901 
-0.003719 -0.183252 
-0.005998 -0.177586 
0.001365 -0.193135 
-0.001196 -0.188420 
0.002514 -0.192116 
-0.009062 -0.179267 
-0.005082 -0.184148 
-0.006672 -0.184424 
0.007781 -0.207963 
0.007167 -0.204810 
0.009623 -0.209277 
0.000347 -0.195375 
0.004030 -0.200178 
0.001981 -0.197505 
0.007167 -0.201170 
0.005755 -0.201315 
0.003753 -0.197428 
-0.004174 -0.188825 
-0.000062 -0.193323 
-0.001769 -0.192477 
0.000212 -0.170997 
-0.000296 -0.167724 
0.003371 -0.176485 
0.001467 -0.173855 
-0.001012 -0.169101 
0.000232 -0.171974 
0.000155 -0.173280 
0.013679 -0.188819 
0.011205 -0.185057 
0.006903 -0.184711 
0.009183 -0.185246 
0.009613 -0.188710 
0.008467 -0.181878 
0.005771 -0.179089 
-0.003698 -0.174694 
-0.000933 -0.178442 
-0.001653 -0.180251 
-0.000049 -0.174851 
-0.000404 -0.176604 
-0.002082 -0.171604 
0.004332 -0.185945 
0.001791 -0.181341 
0.004421 -0.183420 
0.003916 -0.178567 
0.004275 -0.180917 
0.001963 -0.177163 
0.011128 -0.209090 
0.008272 -0.199969 
0.010067 -0.204571 
0.012330 -0.207651 
0.013240 -0.205168 
0.000774 -0.185476 
0.007005 -0.190541 
0.003991 -0.188345 
0.003388 -0.190459 
0.005966 -0.195273 
0.014089 -0.193452 
0.013851 -0.201838 
0.014141 -0.197863 
0.012130 -0.193059 
0.009742 -0.192101 
0.009071 -0.197923 
0.009562 -0.195235 
0.011732 -0.200100 
-0.025075 -0.163691 
-0.022363 -0.167888 
-0.031734 -0.154597 
-0.027110 -0.161446 
-0.034666 -0.150598 
-0.019796 -0.170814 
-0.017385 -0.172647 
-0.047237 -0.122331 
-0.044010 -0.131210 
-0.050628 -0.119828 
-0.030159 -0.151664 
-0.037104 -0.141906 
-0.033931 -0.143411 
-0.043431 -0.136063 
-0.040277 -0.139519 
-0.036152 -0.147301 
-0.011154 -0.173335 
-0.009419 -0.172498 
-0.015139 -0.173566 
-0.013061 -0.173741 
-0.020808 -0.160608 
-0.017002 -0.167534 
-0.023394 -0.160266 
-0.028869 -0.157426 
-0.026085 -0.159259 
-0.021799 -0.166239 
-0.022449 -0.018704 
-0.036529 -0.037014 
-0.031478 -0.028571 
-0.039598 -0.062673 
-0.039260 -0.049416 
-0.034221 -0.047245 
-0.050143 -0.057795 
-0.044758 -0.052927 
-0.049458 -0.067073 
-0.027170 -0.112834 
-0.031490 -0.101288 
-0.027684 -0.100682 
-0.039501 -0.102401 
-0.035442 -0.101874 
-0.034594 -0.113879 
-0.033770 -0.075114 
-0.035248 -0.088942 
-0.038092 -0.075983 
-0.055289 -0.101647 
-0.051596 -0.102654 
-0.049822 -0.112832 
-0.051770 -0.079913 
-0.052343 -0.091717 
-0.055971 -0.081199 
-0.042299 -0.114205 
-0.047670 -0.102946 
-0.043605 -0.102798 
-0.042618 -0.077087 
-0.043815 -0.090448 
-0.047239 -0.078434 
-0.001450 -0.164471 
-0.000713 -0.164012 
-0.003118 -0.166213 
-0.002243 -0.165218 
-0.004556 -0.154370 
-0.003433 -0.160311 
-0.006188 -0.155138 
-0.007854 -0.171368 
-0.006452 -0.170069 
-0.011698 -0.158088 
-0.009138 -0.164541 
-0.013781 -0.159058 
-0.005204 -0.168715 
-0.004099 -0.167402 
-0.019383 -0.122765 
-0.017992 -0.133027 
-0.022585 -0.123446 
-0.009622 -0.148886 
-0.013609 -0.141516 
-0.011137 -0.140720 
-0.018901 -0.143122 
-0.016195 -0.142338 
-0.014073 -0.150691 
-0.006056 -0.162223 
-0.009745 -0.157059 
-0.007912 -0.156053 
-0.043725 -0.123894 
-0.036514 -0.125040 
-0.040135 -0.124735 
-0.037296 -0.134452 
-0.030782 -0.144206 
-0.025918 -0.124079 
-0.021725 -0.143796 
-0.024063 -0.134400 
-0.029367 -0.124608 
-0.032910 -0.124959 
-0.012775 -0.166605 
-0.024398 -0.152925 
-0.018339 -0.160432 
-0.015995 -0.159875 
-0.019005 -0.152281 
-0.030559 -0.135138 
-0.024657 -0.144271 
-0.027682 -0.144448 
0.000000 0.000000 
-0.017308 -0.015829 
-0.012042 -0.014651 
-0.014230 -0.014946 
0.000000 0.000000 
-0.025877 -0.031082 
-0.029785 -0.045990 
-0.006475 -0.014629 
-0.007598 -0.014592 
0.000000 0.000000 
-0.019377 -0.044585 
-0.014122 -0.029538 
-0.016591 -0.044410 
0.000000 0.000000 
-0.008861 -0.014564 
-0.010313 -0.014566 
-0.027313 -0.087668 
-0.024047 -0.100082 
-0.030740 -0.060489 
-0.029702 -0.074430 
-0.022346 -0.073421 
-0.025898 -0.073879 
-0.023290 -0.059451 
-0.019069 -0.029806 
-0.022456 -0.044848 
-0.025896 -0.045270 
-0.000000 -0.014768 
-0.000691 -0.014770 
0.000000 0.000000 
-0.001799 -0.043905 
-0.001296 -0.029440 
-0.000000 -0.043891 
0.000000 0.000000 
-0.001393 -0.014766 
-0.002117 -0.014757 
-0.002712 -0.097338 
-0.002645 -0.084880 
0.000000 -0.097283 
-0.006695 -0.058192 
-0.004979 -0.071834 
-0.007545 -0.071975 
-0.000000 -0.071713 
-0.002474 -0.071746 
-0.002193 -0.058048 
0.000000 0.000000 
-0.004532 -0.014698 
-0.005460 -0.014666 
-0.002874 -0.014743 
-0.003675 -0.014723 
0.000000 0.000000 
-0.009507 -0.044099 
-0.006869 -0.029469 
-0.007452 -0.044030 
-0.003624 -0.043932 
-0.005499 -0.043974 
-0.003965 -0.029453 
-0.001111 -0.159248 
0.000000 -0.163860 
-0.005586 -0.147395 
-0.002997 -0.153791 
0.000000 -0.153309 
-0.001486 -0.153431 
-0.001830 -0.146564 
-0.020278 -0.111578 
-0.016312 -0.122086 
-0.010543 -0.120879 
-0.013370 -0.121447 
-0.013971 -0.110402 
-0.012405 -0.131565 
-0.008770 -0.139999 
0.000000 -0.119768 
-0.002570 -0.119843 
-0.002683 -0.109020 
-0.002132 -0.138659 
-0.002382 -0.129740 
0.000000 -0.138562 
-0.008163 -0.109506 
-0.005166 -0.120060 
-0.007816 -0.120411 
-0.006494 -0.139396 
-0.007248 -0.130390 
-0.004288 -0.138942 
-0.010180 -0.029485 
-0.011548 -0.058462 
-0.011694 -0.044181 
-0.014044 -0.044282 
-0.016992 -0.058861 
-0.005453 -0.097492 
-0.011144 -0.098076 
-0.008255 -0.097740 
-0.008058 -0.085197 
-0.010203 -0.072167 
-0.020582 -0.099507 
-0.019027 -0.073031 
-0.020197 -0.086625 
-0.017287 -0.098972 
-0.014147 -0.098491 
-0.012984 -0.072408 
-0.013836 -0.085792 
-0.015915 -0.072695 
0.000000 0.000000 
0.000691 -0.014770 
0.002117 -0.014757 
0.001393 -0.014766 
0.000000 0.000000 
0.001296 -0.029440 
0.001799 -0.043905 
0.005460 -0.014666 
0.004532 -0.014698 
0.000000 0.000000 
0.007452 -0.044030 
0.006869 -0.029469 
0.009507 -0.044099 
0.000000 0.000000 
0.003675 -0.014723 
0.002874 -0.014743 
0.002645 -0.084880 
0.002712 -0.097338 
0.002193 -0.058048 
0.002474 -0.071746 
0.007545 -0.071975 
0.004979 -0.071834 
0.006695 -0.058192 
0.003965 -0.029453 
0.005499 -0.043974 
0.003624 -0.043932 
0.022449 -0.018704 
0.017308 -0.015829 
0.000000 0.000000 
0.029785 -0.045990 
0.025877 -0.031082 
0.034221 -0.047245 
0.000000 0.000000 
0.014230 -0.014946 
0.012042 -0.014651 
0.024047 -0.100082 
0.027313 -0.087668 
0.027684 -0.100682 
0.023290 -0.059451 
0.025898 -0.073879 
0.022346 -0.073421 
0.033770 -0.075114 
0.029702 -0.074430 
0.030740 -0.060489 
0.000000 0.000000 
0.007598 -0.014592 
0.006475 -0.014629 
0.010313 -0.014566 
0.008861 -0.014564 
0.000000 0.000000 
0.016591 -0.044410 
0.014122 -0.029538 
0.019377 -0.044585 
0.025896 -0.045270 
0.022456 -0.044848 
0.019069 -0.029806 
0.001111 -0.159248 
0.000713 -0.164012 
0.001830 -0.146564 
0.001486 -0.153431 
0.004556 -0.154370 
0.002997 -0.153791 
0.005586 -0.147395 
0.002683 -0.109020 
0.002570 -0.119843 
0.007816 -0.120411 
0.005166 -0.120060 
0.008163 -0.109506 
0.002382 -0.129740 
0.002132 -0.138659 
0.019383 -0.122765 
0.016312 -0.122086 
0.020278 -0.111578 
0.008770 -0.139999 
0.012405 -0.131565 
0.011137 -0.140720 
0.013971 -0.110402 
0.013370 -0.121447 
0.010543 -0.120879 
0.004288 -0.138942 
0.007248 -0.130390 
0.006494 -0.139396 
0.010180 -0.029485 
0.016992 -0.058861 
0.014044 -0.044282 
0.011694 -0.044181 
0.011548 -0.058462 
0.020582 -0.099507 
0.014147 -0.098491 
0.017287 -0.098972 
0.020197 -0.086625 
0.019027 -0.073031 
0.005453 -0.097492 
0.010203 -0.072167 
0.008058 -0.085197 
0.008255 -0.097740 
0.011144 -0.098076 
0.015915 -0.072695 
0.013836 -0.085792 
0.012984 -0.072408 
0.031478 -0.028571 
0.036529 -0.037014 
0.049458 -0.067073 
0.044758 -0.052927 
0.050143 -0.057795 
0.039260 -0.049416 
0.039598 -0.062673 
0.049822 -0.112832 
0.051596 -0.102654 
0.055289 -0.101647 
0.043605 -0.102798 
0.047670 -0.102946 
0.042299 -0.114205 
0.055971 -0.081199 
0.052343 -0.091717 
0.051770 -0.079913 
0.031490 -0.101288 
0.027170 -0.112834 
0.038092 -0.075983 
0.035248 -0.088942 
0.034594 -0.113879 
0.035442 -0.101874 
0.039501 -0.102401 
0.047239 -0.078434 
0.043815 -0.090448 
0.042618 -0.077087 
0.017572 -0.173963 
0.022363 -0.167888 
0.025075 -0.163691 
0.017385 -0.172647 
0.019796 -0.170814 
0.012923 -0.178522 
0.034666 -0.150598 
0.027110 -0.161446 
0.031734 -0.154597 
0.009419 -0.172498 
0.011154 -0.173335 
0.005998 -0.177586 
0.023394 -0.160266 
0.017002 -0.167534 
0.020808 -0.160608 
0.009062 -0.179267 
0.013061 -0.173741 
0.015139 -0.173566 
0.050628 -0.119828 
0.044010 -0.131210 
0.047237 -0.122331 
0.036152 -0.147301 
0.040277 -0.139519 
0.043431 -0.136063 
0.033931 -0.143411 
0.037104 -0.141906 
0.030159 -0.151664 
0.021799 -0.166239 
0.026085 -0.159259 
0.028869 -0.157426 
0.001450 -0.164471 
0.000296 -0.167724 
0.006188 -0.155138 
0.003433 -0.160311 
0.001012 -0.169101 
0.002243 -0.165218 
0.003118 -0.166213 
0.022585 -0.123446 
0.017992 -0.133027 
0.014073 -0.150691 
0.016195 -0.142338 
0.018901 -0.143122 
0.013609 -0.141516 
0.009622 -0.148886 
0.003698 -0.174694 
0.006452 -0.170069 
0.007854 -0.171368 
0.004099 -0.167402 
0.005204 -0.168715 
0.002082 -0.171604 
0.013781 -0.159058 
0.009138 -0.164541 
0.011698 -0.158088 