# vtk DataFile Version 2.0
Unstructured Grid Example
ASCII
DATASET UNSTRUCTURED_GRID

POINTS 16 float
0.000000 0.000000 0.000000 
0.125000 0.000000 0.000000 
0.125000 0.000000 0.000000 
0.250000 0.000000 0.000000 
0.250000 3.249874 0.000000 
0.375000 -6.499748 0.000000 
0.375000 -3.834635 0.000000 
0.500000 -2.080353 0.000000 
0.500000 -2.080353 0.000000 
0.625000 -3.834635 0.000000 
0.625000 -6.499748 0.000000 
0.750000 3.249874 0.000000 
0.750000 0.000000 0.000000 
0.875000 0.000000 0.000000 
0.875000 0.000000 0.000000 
1.000000 0.000000 0.000000 

CELLS 8 24
2  0 1 
2  2 3 
2  4 5 
2  6 7 
2  8 9 
2  10 11 
2  12 13 
2  14 15 

CELL_TYPES 8
3
3
3
3
3
3
3
3

POINT_DATA 16

SCALARS lambda_h float 1
LOOKUP_TABLE default
0.000000 
0.000000 
0.000000 
0.000000 
3.249874 
-6.499748 
-3.834635 
-2.080353 
-2.080353 
-3.834635 
-6.499748 
3.249874 
0.000000 
0.000000 
0.000000 
0.000000 

