# vtk DataFile Version 2.0
Unstructured Grid Example
ASCII
DATASET UNSTRUCTURED_GRID

POINTS 64 float
0.000000 0.000000 0.000000 
0.031250 0.000000 0.000000 
0.031250 0.000000 0.000000 
0.062500 0.000000 0.000000 
0.062500 0.000000 0.000000 
0.093750 0.000000 0.000000 
0.093750 0.000000 0.000000 
0.125000 0.000000 0.000000 
0.187500 0.000000 0.000000 
0.218750 0.000000 0.000000 
0.218750 0.000000 0.000000 
0.250000 0.000000 0.000000 
0.125000 0.000000 0.000000 
0.156250 0.000000 0.000000 
0.156250 0.000000 0.000000 
0.187500 0.000000 0.000000 
0.437500 2.302586 0.000000 
0.468750 -5.248204 0.000000 
0.468750 1.763134 0.000000 
0.500000 -11.720090 0.000000 
0.375000 2.196066 0.000000 
0.406250 -4.392132 0.000000 
0.406250 -4.177788 0.000000 
0.437500 1.767379 0.000000 
0.250000 0.000000 0.000000 
0.281250 0.000000 0.000000 
0.281250 0.000000 0.000000 
0.312500 0.000000 0.000000 
0.312500 3.370058 0.000000 
0.343750 -6.740116 0.000000 
0.343750 -6.740116 0.000000 
0.375000 3.370058 0.000000 
0.500000 -11.720090 0.000000 
0.531250 1.763134 0.000000 
0.531250 -5.248204 0.000000 
0.562500 2.302586 0.000000 
0.562500 1.767379 0.000000 
0.593750 -4.177788 0.000000 
0.593750 -4.392132 0.000000 
0.625000 2.196066 0.000000 
0.687500 0.000000 0.000000 
0.718750 0.000000 0.000000 
0.718750 0.000000 0.000000 
0.750000 0.000000 0.000000 
0.625000 3.370058 0.000000 
0.656250 -6.740116 0.000000 
0.656250 -6.740116 0.000000 
0.687500 3.370058 0.000000 
0.937500 0.000000 0.000000 
0.968750 0.000000 0.000000 
0.968750 0.000000 0.000000 
1.000000 0.000000 0.000000 
0.875000 0.000000 0.000000 
0.906250 0.000000 0.000000 
0.906250 0.000000 0.000000 
0.937500 0.000000 0.000000 
0.750000 0.000000 0.000000 
0.781250 0.000000 0.000000 
0.781250 0.000000 0.000000 
0.812500 0.000000 0.000000 
0.812500 0.000000 0.000000 
0.843750 0.000000 0.000000 
0.843750 0.000000 0.000000 
0.875000 0.000000 0.000000 

CELLS 32 96
2  0 1 
2  2 3 
2  4 5 
2  6 7 
2  8 9 
2  10 11 
2  12 13 
2  14 15 
2  16 17 
2  18 19 
2  20 21 
2  22 23 
2  24 25 
2  26 27 
2  28 29 
2  30 31 
2  32 33 
2  34 35 
2  36 37 
2  38 39 
2  40 41 
2  42 43 
2  44 45 
2  46 47 
2  48 49 
2  50 51 
2  52 53 
2  54 55 
2  56 57 
2  58 59 
2  60 61 
2  62 63 

CELL_TYPES 32
3
3
3
3
3
3
3
3
3
3
3
3
3
3
3
3
3
3
3
3
3
3
3
3
3
3
3
3
3
3
3
3

POINT_DATA 64

SCALARS lambda_h float 1
LOOKUP_TABLE default
0.000000 
0.000000 
0.000000 
0.000000 
0.000000 
0.000000 
0.000000 
0.000000 
0.000000 
0.000000 
0.000000 
0.000000 
0.000000 
0.000000 
0.000000 
0.000000 
2.302586 
-5.248204 
1.763134 
-11.720090 
2.196066 
-4.392132 
-4.177788 
1.767379 
0.000000 
0.000000 
0.000000 
0.000000 
3.370058 
-6.740116 
-6.740116 
3.370058 
-11.720090 
1.763134 
-5.248204 
2.302586 
1.767379 
-4.177788 
-4.392132 
2.196066 
0.000000 
0.000000 
0.000000 
0.000000 
3.370058 
-6.740116 
-6.740116 
3.370058 
0.000000 
0.000000 
0.000000 
0.000000 
0.000000 
0.000000 
0.000000 
0.000000 
0.000000 
0.000000 
0.000000 
0.000000 
0.000000 
0.000000 
0.000000 
0.000000 

