# vtk DataFile Version 2.0
Unstructured Grid Example
ASCII
DATASET UNSTRUCTURED_GRID

POINTS 81 float
0.020372 -0.254754 0.000000 
0.979628 -0.254754 0.000000 
1.000000 1.000000 0.000000 
0.000000 1.000000 0.000000 
0.500000 -0.100000 0.000000 
0.949743 0.325464 0.000000 
0.500000 1.000000 0.000000 
0.050257 0.325464 0.000000 
0.500000 0.325391 0.000000 
0.263624 -0.247420 0.000000 
0.500000 0.027436 0.000000 
0.263692 0.021171 0.000000 
0.736376 -0.247420 0.000000 
0.736308 0.021171 0.000000 
0.968057 0.022036 0.000000 
0.727182 0.323893 0.000000 
0.946530 0.646670 0.000000 
0.730999 0.654338 0.000000 
0.750000 1.000000 0.000000 
0.500000 0.655244 0.000000 
0.250000 1.000000 0.000000 
0.269001 0.654338 0.000000 
0.053470 0.646670 0.000000 
0.272818 0.323893 0.000000 
0.031943 0.022036 0.000000 
0.142458 -0.254179 0.000000 
0.260362 -0.117681 0.000000 
0.142087 -0.122494 0.000000 
0.500000 -0.107538 0.000000 
0.378647 -0.104697 0.000000 
0.383684 -0.216316 0.000000 
0.383387 0.172212 0.000000 
0.380746 0.027684 0.000000 
0.500000 0.172108 0.000000 
0.616316 -0.216316 0.000000 
0.621353 -0.104697 0.000000 
0.857913 -0.122494 0.000000 
0.739638 -0.117681 0.000000 
0.857542 -0.254179 0.000000 
0.619254 0.027684 0.000000 
0.616613 0.172212 0.000000 
0.976919 -0.120613 0.000000 
0.852352 0.018246 0.000000 
0.838201 0.322181 0.000000 
0.844857 0.166773 0.000000 
0.957797 0.170989 0.000000 
0.731379 0.168600 0.000000 
0.614542 0.326178 0.000000 
0.944332 0.482827 0.000000 
0.836179 0.483959 0.000000 
0.855865 0.825784 0.000000 
0.841222 0.652092 0.000000 
0.960509 0.817976 0.000000 
0.726733 0.486279 0.000000 
0.614083 0.487754 0.000000 
0.875000 1.000000 0.000000 
0.739406 0.826114 0.000000 
0.500000 0.826195 0.000000 
0.620175 0.826092 0.000000 
0.625000 1.000000 0.000000 
0.616260 0.654979 0.000000 
0.500000 0.487936 0.000000 
0.375000 1.000000 0.000000 
0.379825 0.826092 0.000000 
0.144135 0.825784 0.000000 
0.260594 0.826114 0.000000 
0.125000 1.000000 0.000000 
0.383740 0.654979 0.000000 
0.385917 0.487754 0.000000 
0.039491 0.817976 0.000000 
0.158778 0.652092 0.000000 
0.161799 0.322181 0.000000 
0.163821 0.483959 0.000000 
0.055668 0.482827 0.000000 
0.273267 0.486279 0.000000 
0.385458 0.326178 0.000000 
0.042203 0.170989 0.000000 
0.155143 0.166773 0.000000 
0.147648 0.018246 0.000000 
0.023081 -0.120613 0.000000 
0.268621 0.168600 0.000000 

CELLS 128 512
3  0 25 27 
3  9 26 25 
3  11 27 26 
3  25 26 27 
3  4 28 30 
3  10 29 28 
3  9 30 29 
3  28 29 30 
3  8 31 33 
3  11 32 31 
3  10 33 32 
3  31 32 33 
3  9 29 26 
3  10 32 29 
3  11 26 32 
3  29 32 26 
3  4 34 28 
3  12 35 34 
3  10 28 35 
3  34 35 28 
3  1 36 38 
3  13 37 36 
3  12 38 37 
3  36 37 38 
3  8 33 40 
3  10 39 33 
3  13 40 39 
3  33 39 40 
3  12 37 35 
3  13 39 37 
3  10 35 39 
3  37 39 35 
3  1 41 36 
3  14 42 41 
3  13 36 42 
3  41 42 36 
3  5 43 45 
3  15 44 43 
3  14 45 44 
3  43 44 45 
3  8 40 47 
3  13 46 40 
3  15 47 46 
3  40 46 47 
3  14 44 42 
3  15 46 44 
3  13 42 46 
3  44 46 42 
3  5 48 43 
3  16 49 48 
3  15 43 49 
3  48 49 43 
3  2 50 52 
3  17 51 50 
3  16 52 51 
3  50 51 52 
3  8 47 54 
3  15 53 47 
3  17 54 53 
3  47 53 54 
3  16 51 49 
3  17 53 51 
3  15 49 53 
3  51 53 49 
3  2 55 50 
3  18 56 55 
3  17 50 56 
3  55 56 50 
3  6 57 59 
3  19 58 57 
3  18 59 58 
3  57 58 59 
3  8 54 61 
3  17 60 54 
3  19 61 60 
3  54 60 61 
3  18 58 56 
3  19 60 58 
3  17 56 60 
3  58 60 56 
3  6 62 57 
3  20 63 62 
3  19 57 63 
3  62 63 57 
3  3 64 66 
3  21 65 64 
3  20 66 65 
3  64 65 66 
3  8 61 68 
3  19 67 61 
3  21 68 67 
3  61 67 68 
3  20 65 63 
3  21 67 65 
3  19 63 67 
3  65 67 63 
3  3 69 64 
3  22 70 69 
3  21 64 70 
3  69 70 64 
3  7 71 73 
3  23 72 71 
3  22 73 72 
3  71 72 73 
3  8 68 75 
3  21 74 68 
3  23 75 74 
3  68 74 75 
3  22 72 70 
3  23 74 72 
3  21 70 74 
3  72 74 70 
3  7 76 71 
3  24 77 76 
3  23 71 77 
3  76 77 71 
3  0 27 79 
3  11 78 27 
3  24 79 78 
3  27 78 79 
3  8 75 31 
3  23 80 75 
3  11 31 80 
3  75 80 31 
3  24 78 77 
3  11 80 78 
3  23 77 80 
3  78 80 77 

CELL_TYPES 128
5
5
5
5
5
5
5
5
5
5
5
5
5
5
5
5
5
5
5
5
5
5
5
5
5
5
5
5
5
5
5
5
5
5
5
5
5
5
5
5
5
5
5
5
5
5
5
5
5
5
5
5
5
5
5
5
5
5
5
5
5
5
5
5
5
5
5
5
5
5
5
5
5
5
5
5
5
5
5
5
5
5
5
5
5
5
5
5
5
5
5
5
5
5
5
5
5
5
5
5
5
5
5
5
5
5
5
5
5
5
5
5
5
5
5
5
5
5
5
5
5
5
5
5
5
5
5
5

POINT_DATA 81

SCALARS u_h float 2
LOOKUP_TABLE default
0.020372 -0.254754 
-0.020372 -0.254754 
0.000000 0.000000 
0.000000 0.000000 
-0.000000 -0.100000 
-0.050257 -0.174536 
0.000000 0.000000 
0.050257 -0.174536 
-0.000000 -0.174609 
0.013624 -0.247420 
-0.000000 -0.222564 
0.013692 -0.228829 
-0.013624 -0.247420 
-0.013692 -0.228829 
-0.031943 -0.227964 
-0.022818 -0.176107 
-0.053470 -0.103330 
-0.019001 -0.095662 
0.000000 0.000000 
-0.000000 -0.094756 
0.000000 0.000000 
0.019001 -0.095662 
0.053470 -0.103330 
0.022818 -0.176107 
0.031943 -0.227964 
0.017458 -0.254179 
0.010362 -0.242681 
0.017087 -0.247494 
-0.000000 -0.232538 
0.003647 -0.229697 
0.008684 -0.216316 
0.008387 -0.202788 
0.005746 -0.222316 
-0.000000 -0.202892 
-0.008684 -0.216316 
-0.003647 -0.229697 
-0.017087 -0.247494 
-0.010362 -0.242681 
-0.017458 -0.254179 
-0.005746 -0.222316 
-0.008387 -0.202788 
-0.023081 -0.245613 
-0.022648 -0.231754 
-0.036799 -0.177819 
-0.030143 -0.208227 
-0.042203 -0.204011 
-0.018621 -0.206400 
-0.010458 -0.173822 
-0.055668 -0.142173 
-0.038821 -0.141041 
-0.019135 -0.049216 
-0.033778 -0.097908 
-0.039491 -0.057024 
-0.023267 -0.138721 
-0.010917 -0.137246 
0.000000 0.000000 
-0.010594 -0.048886 
-0.000000 -0.048805 
-0.004825 -0.048908 
0.000000 0.000000 
-0.008740 -0.095021 
-0.000000 -0.137064 
0.000000 0.000000 
0.004825 -0.048908 
0.019135 -0.049216 
0.010594 -0.048886 
0.000000 0.000000 
0.008740 -0.095021 
0.010917 -0.137246 
0.039491 -0.057024 
0.033778 -0.097908 
0.036799 -0.177819 
0.038821 -0.141041 
0.055668 -0.142173 
0.023267 -0.138721 
0.010458 -0.173822 
0.042203 -0.204011 
0.030143 -0.208227 
0.022648 -0.231754 
0.023081 -0.245613 
0.018621 -0.206400 

CELL_DATA 128

SCALARS epsilon float 4
LOOKUP_TABLE default
-0.023565 0.052075 0.000000 0.000666
-0.029408 0.040036 0.000000 0.012587
-0.055893 0.104440 0.000000 0.031216
-0.055123 0.052913 0.000000 0.016656
-0.071871 309.659226 0.000000 -7.672443
-0.029600 0.076860 0.000000 -0.010514
-0.027611 -0.060102 0.000000 0.118474
-0.029574 -0.113391 0.000000 -0.033163
-0.069333 0.201539 0.000000 -0.000337
-0.066401 0.144406 0.000000 0.033499
-0.047024 0.145222 0.000000 -0.000854
-0.069125 0.144260 0.000000 0.010758
-0.052064 0.045509 0.000000 0.036127
-0.046853 0.057342 0.000000 0.007842
-0.066580 0.104670 0.000000 0.037425
-0.056758 0.060960 0.000000 0.057719
-0.071871 309.659226 0.000000 7.672443
-0.027611 -0.060102 0.000000 -0.118474
-0.029600 0.076860 0.000000 0.010514
-0.029574 -0.113391 0.000000 0.033163
-0.023565 0.052075 0.000000 -0.000666
-0.055893 0.104440 0.000000 -0.031216
-0.029408 0.040036 0.000000 -0.012587
-0.055123 0.052913 0.000000 -0.016656
-0.069333 0.201539 0.000000 0.000337
-0.047024 0.145222 0.000000 0.000854
-0.066401 0.144406 0.000000 -0.033499
-0.069125 0.144260 0.000000 -0.010758
-0.052064 0.045509 0.000000 -0.036127
-0.066580 0.104670 0.000000 -0.037425
-0.046853 0.057342 0.000000 -0.007842
-0.056758 0.060960 0.000000 -0.057719
-0.048551 0.070887 0.000000 -0.004335
-0.072839 0.133793 0.000000 -0.024488
-0.074282 0.117359 0.000000 -0.033995
-0.047612 0.118807 0.000000 -0.016404
-0.110157 0.210768 0.000000 -0.024298
-0.117490 0.214252 0.000000 -0.034254
-0.095645 0.176727 0.000000 -0.030217
-0.098376 0.216795 0.000000 -0.014909
-0.086932 0.205934 0.000000 -0.006187
-0.085577 0.163036 0.000000 -0.033129
-0.103807 0.213703 0.000000 -0.025192
-0.085510 0.205748 0.000000 -0.020338
-0.073980 0.172939 0.000000 -0.018880
-0.096373 0.213762 0.000000 -0.023615
-0.074388 0.163112 0.000000 -0.030609
-0.095643 0.170250 0.000000 -0.038289
-0.111632 0.228049 0.000000 -0.012944
-0.143386 0.265342 0.000000 0.006221
-0.118095 0.253065 0.000000 -0.013841
-0.143667 0.253085 0.000000 -0.012277
-0.127583 0.378050 0.000000 0.148071
-0.118835 0.321319 0.000000 0.054808
-0.160807 0.311425 0.000000 0.046109
-0.164563 0.326826 0.000000 0.042601
-0.087107 0.252025 0.000000 0.000511
-0.103767 0.256800 0.000000 -0.008835
-0.102895 0.289394 0.000000 0.013353
-0.103652 0.252008 0.000000 -0.006443
-0.167387 0.291617 0.000000 0.006782
-0.124154 0.289634 0.000000 0.011512
-0.132069 0.256809 0.000000 -0.008939
-0.130808 0.290164 0.000000 0.014755
0.006032 0.322401 0.000000 0.070430
0.001856 0.320656 0.000000 0.039028
-0.069125 0.309515 0.000000 0.032460
-0.063389 0.322689 0.000000 0.074642
0.000000 0.320226 0.000000 0.000000
-0.039345 0.304925 0.000000 -0.000301
0.000385 0.320772 0.000000 0.017774
-0.038905 0.320794 0.000000 0.018192
-0.091117 0.257657 0.000000 -0.000555
-0.085258 0.284463 0.000000 0.006980
-0.072354 0.284850 0.000000 -0.000786
-0.090994 0.284406 0.000000 0.008393
-0.045187 0.320645 0.000000 0.040980
-0.071999 0.305851 0.000000 0.014846
-0.083738 0.309646 0.000000 0.032064
-0.046933 0.305797 0.000000 0.015290
0.000000 0.320226 0.000000 0.000000
0.000385 0.320772 0.000000 -0.017774
-0.039345 0.304925 0.000000 0.000301
-0.038905 0.320794 0.000000 -0.018192
0.006032 0.322401 0.000000 -0.070430
-0.069125 0.309515 0.000000 -0.032460
0.001856 0.320656 0.000000 -0.039028
-0.063389 0.322689 0.000000 -0.074642
-0.091117 0.257657 0.000000 0.000555
-0.072354 0.284850 0.000000 0.000786
-0.085258 0.284463 0.000000 -0.006980
-0.090994 0.284406 0.000000 -0.008393
-0.045187 0.320645 0.000000 -0.040980
-0.083738 0.309646 0.000000 -0.032064
-0.071999 0.305851 0.000000 -0.014846
-0.046933 0.305797 0.000000 -0.015290
-0.127583 0.378050 0.000000 -0.148071
-0.160807 0.311425 0.000000 -0.046109
-0.118835 0.321319 0.000000 -0.054808
-0.164563 0.326826 0.000000 -0.042601
-0.111632 0.228049 0.000000 0.012944
-0.118095 0.253065 0.000000 0.013841
-0.143386 0.265342 0.000000 -0.006221
-0.143667 0.253085 0.000000 0.012277
-0.087107 0.252025 0.000000 -0.000511
-0.102895 0.289394 0.000000 -0.013353
-0.103767 0.256800 0.000000 0.008835
-0.103652 0.252008 0.000000 0.006443
-0.167387 0.291617 0.000000 -0.006782
-0.132069 0.256809 0.000000 0.008939
-0.124154 0.289634 0.000000 -0.011512
-0.130808 0.290164 0.000000 -0.014755
-0.110157 0.210768 0.000000 0.024298
-0.095645 0.176727 0.000000 0.030217
-0.117490 0.214252 0.000000 0.034254
-0.098376 0.216795 0.000000 0.014909
-0.048551 0.070887 0.000000 0.004335
-0.074282 0.117359 0.000000 0.033995
-0.072839 0.133793 0.000000 0.024488
-0.047612 0.118807 0.000000 0.016404
-0.086932 0.205934 0.000000 0.006187
-0.103807 0.213703 0.000000 0.025192
-0.085577 0.163036 0.000000 0.033129
-0.085510 0.205748 0.000000 0.020338
-0.073980 0.172939 0.000000 0.018880
-0.074388 0.163112 0.000000 0.030609
-0.096373 0.213762 0.000000 0.023615
-0.095643 0.170250 0.000000 0.038289

SCALARS sigma float 4
LOOKUP_TABLE default
-0.098885 1.196956 0.285109 0.015752
-0.353581 0.786420 0.106279 0.241133
-0.387449 2.428633 0.485466 0.562923
-0.863031 0.887868 -0.022107 0.290324
4950.250227 151902.116672 3095.873556 -135669.981009
-0.008715 1.861184 0.472603 -0.204825
-0.734044 -1.753828 -0.877130 1.352213
-1.840758 -2.865750 -1.429650 -0.440607
0.171699 5.481122 1.322063 -0.008485
-0.261167 3.581643 0.780045 0.663138
0.200644 3.820980 0.981974 -0.019358
-0.354947 3.541910 0.751353 0.161339
-0.807392 0.691779 -0.065550 0.632367
-0.631812 1.105745 0.104887 0.120367
-0.630946 2.319948 0.380901 0.676424
-0.738421 1.114032 0.042026 0.999262
4950.250227 151902.116672 3095.873556 135669.981009
-0.734044 -1.753828 -0.877130 -1.352213
-0.008715 1.861184 0.472603 0.204825
-1.840758 -2.865750 -1.429650 0.440607
-0.098885 1.196956 0.285109 -0.015752
-0.387449 2.428633 0.485466 -0.562923
-0.353581 0.786420 0.106279 -0.241133
-0.863031 0.887868 -0.022107 -0.290324
0.171699 5.481122 1.322063 0.008485
0.200644 3.820980 0.981974 0.019358
-0.261167 3.581643 0.780045 -0.663138
-0.354947 3.541910 0.751353 -0.161339
-0.807392 0.691779 -0.065550 -0.632367
-0.630946 2.319948 0.380901 -0.676424
-0.631812 1.105745 0.104887 -0.120367
-0.738421 1.114032 0.042026 -0.999262
-0.545275 1.482248 0.223353 -0.047137
-0.550813 3.182524 0.609538 -0.289902
-0.713344 2.640543 0.430766 -0.566678
-0.069231 2.970540 0.711949 -0.218328
-0.714740 5.342997 1.006110 -0.244991
-0.830733 5.382919 0.967617 -0.546225
-0.694483 4.351272 0.810820 -0.328154
-0.391439 5.684677 1.184190 -0.076756
-0.214745 5.428428 1.190017 -0.066745
-0.557566 3.989710 0.774586 -0.586344
-0.530142 5.512095 1.098957 -0.442756
-0.173533 5.440965 1.202377 -0.420622
-0.214631 4.453977 0.989591 -0.180016
-0.360114 5.602346 1.173895 -0.408446
-0.295991 4.119783 0.887248 -0.538988
-0.729701 4.131138 0.746071 -0.611594
-0.591879 5.924892 1.164175 -0.072402
-0.956628 6.894151 1.219566 0.041650
-0.510286 6.752688 1.349704 -0.263894
-1.063541 6.439498 1.094189 -0.212388
0.217487 12.146221 2.504667 1.563217
0.052761 9.434180 2.024844 0.673304
-0.953464 8.494382 1.506181 0.371119
-0.912167 9.041372 1.622626 0.195314
0.200524 7.091415 1.649178 0.038327
-0.150348 7.064004 1.530338 -0.218622
0.155978 8.312678 1.864985 0.130724
-0.191523 6.888092 1.483569 -0.150956
-1.228824 7.581296 1.242304 -0.139629
-0.333292 8.053680 1.654797 0.066580
-0.785534 6.716130 1.247405 -0.214838
-0.477494 7.993131 1.593560 0.107728
3.383240 11.120040 3.284322 1.155051
3.255556 10.907992 3.225117 0.640060
1.176187 9.545525 2.403900 0.477973
1.437540 10.258648 2.593001 1.118755
3.202263 10.827864 3.202263 0.000000
1.929815 9.714655 2.655801 -0.009536
3.217883 10.862948 3.211571 0.291498
2.093153 10.360960 2.818891 0.281398
0.154733 7.251694 1.665408 -0.015456
0.540292 8.340228 1.992053 0.076437
0.867839 8.515158 2.124961 -0.023480
0.399379 8.266583 1.934120 0.116608
1.916150 10.308822 2.754581 0.640605
1.070353 9.342690 2.338517 0.212960
0.804681 9.364772 2.259078 0.449151
1.730968 9.658836 2.588648 0.239650
3.202263 10.827864 3.202263 0.000000
3.217883 10.862948 3.211571 -0.291498
1.929815 9.714655 2.655801 0.009536
2.093153 10.360960 2.818891 -0.281398
3.383240 11.120040 3.284322 -1.155051
1.176187 9.545525 2.403900 -0.477973
3.255556 10.907992 3.225117 -0.640060
1.437540 10.258648 2.593001 -1.118755
0.154733 7.251694 1.665408 0.015456
0.867839 8.515158 2.124961 0.023480
0.540292 8.340228 1.992053 -0.076437
0.399379 8.266583 1.934120 -0.116608
1.916150 10.308822 2.754581 -0.640605
0.804681 9.364772 2.259078 -0.449151
1.070353 9.342690 2.338517 -0.212960
1.730968 9.658836 2.588648 -0.239650
0.217487 12.146221 2.504667 -1.563217
-0.953464 8.494382 1.506181 -0.371119
0.052761 9.434180 2.024844 -0.673304
-0.912167 9.041372 1.622626 -0.195314
-0.591879 5.924892 1.164175 0.072402
-0.510286 6.752688 1.349704 0.263894
-0.956628 6.894151 1.219566 -0.041650
-1.063541 6.439498 1.094189 0.212388
0.200524 7.091415 1.649178 -0.038327
0.155978 8.312678 1.864985 -0.130724
-0.150348 7.064004 1.530338 0.218622
-0.191523 6.888092 1.483569 0.150956
-1.228824 7.581296 1.242304 0.139629
-0.785534 6.716130 1.247405 0.214838
-0.333292 8.053680 1.654797 -0.066580
-0.477494 7.993131 1.593560 -0.107728
-0.714740 5.342997 1.006110 0.244991
-0.694483 4.351272 0.810820 0.328154
-0.830733 5.382919 0.967617 0.546225
-0.391439 5.684677 1.184190 0.076756
-0.545275 1.482248 0.223353 0.047137
-0.713344 2.640543 0.430766 0.566678
-0.550813 3.182524 0.609538 0.289902
-0.069231 2.970540 0.711949 0.218328
-0.214745 5.428428 1.190017 0.066745
-0.530142 5.512095 1.098957 0.442756
-0.557566 3.989710 0.774586 0.586344
-0.173533 5.440965 1.202377 0.420622
-0.214631 4.453977 0.989591 0.180016
-0.295991 4.119783 0.887248 0.538988
-0.360114 5.602346 1.173895 0.408446
-0.729701 4.131138 0.746071 0.611594

