# vtk DataFile Version 2.0
Unstructured Grid Example
ASCII
DATASET UNSTRUCTURED_GRID

POINTS 1089 float
0.020538 -0.256019 0.000000 
0.979462 -0.256019 0.000000 
1.000000 1.000000 0.000000 
0.000000 1.000000 0.000000 
0.500000 -0.100000 0.000000 
0.944299 0.320173 0.000000 
0.500000 1.000000 0.000000 
0.055701 0.320173 0.000000 
0.500000 0.323155 0.000000 
0.270206 -0.258297 0.000000 
0.500000 0.022054 0.000000 
0.268240 0.013670 0.000000 
0.729794 -0.258297 0.000000 
0.731760 0.013670 0.000000 
0.962651 0.017429 0.000000 
0.724558 0.319679 0.000000 
0.942056 0.643464 0.000000 
0.729288 0.652360 0.000000 
0.750000 1.000000 0.000000 
0.500000 0.653577 0.000000 
0.250000 1.000000 0.000000 
0.270712 0.652360 0.000000 
0.057944 0.643464 0.000000 
0.275442 0.319679 0.000000 
0.037349 0.017429 0.000000 
0.145021 -0.260650 0.000000 
0.266005 -0.127210 0.000000 
0.147609 -0.129294 0.000000 
0.500000 -0.110384 0.000000 
0.383809 -0.119234 0.000000 
0.388479 -0.202919 0.000000 
0.385464 0.166277 0.000000 
0.383432 0.018713 0.000000 
0.500000 0.168013 0.000000 
0.611521 -0.202919 0.000000 
0.616191 -0.119234 0.000000 
0.852391 -0.129294 0.000000 
0.733995 -0.127210 0.000000 
0.854979 -0.260650 0.000000 
0.616568 0.018713 0.000000 
0.614536 0.166277 0.000000 
0.972067 -0.124140 0.000000 
0.846834 0.012074 0.000000 
0.834361 0.317632 0.000000 
0.839965 0.161345 0.000000 
0.952635 0.165936 0.000000 
0.727649 0.162882 0.000000 
0.613078 0.322217 0.000000 
0.939672 0.479149 0.000000 
0.832804 0.480563 0.000000 
0.853249 0.824308 0.000000 
0.838160 0.649824 0.000000 
0.956150 0.814025 0.000000 
0.724650 0.483247 0.000000 
0.613310 0.485074 0.000000 
0.875000 1.000000 0.000000 
0.738504 0.825220 0.000000 
0.500000 0.825332 0.000000 
0.619892 0.825303 0.000000 
0.625000 1.000000 0.000000 
0.615679 0.653281 0.000000 
0.500000 0.485730 0.000000 
0.375000 1.000000 0.000000 
0.380108 0.825303 0.000000 
0.146751 0.824308 0.000000 
0.261496 0.825220 0.000000 
0.125000 1.000000 0.000000 
0.384321 0.653281 0.000000 
0.386690 0.485074 0.000000 
0.043850 0.814025 0.000000 
0.161840 0.649824 0.000000 
0.165639 0.317632 0.000000 
0.167196 0.480563 0.000000 
0.060328 0.479149 0.000000 
0.275350 0.483247 0.000000 
0.386922 0.322217 0.000000 
0.047365 0.165936 0.000000 
0.160035 0.161345 0.000000 
0.153166 0.012074 0.000000 
0.027933 -0.124140 0.000000 
0.272351 0.162882 0.000000 
0.082644 -0.258818 0.000000 
0.145989 -0.196442 0.000000 
0.084980 -0.194654 0.000000 
0.266905 -0.194162 0.000000 
0.206695 -0.196449 0.000000 
0.207582 -0.260723 0.000000 
0.208510 -0.059585 0.000000 
0.207023 -0.129220 0.000000 
0.266653 -0.057869 0.000000 
0.500000 -0.147975 0.000000 
0.450391 -0.176752 0.000000 
0.446178 -0.153822 0.000000 
0.441314 -0.048439 0.000000 
0.442306 -0.115051 0.000000 
0.500000 -0.046477 0.000000 
0.332638 -0.250699 0.000000 
0.387904 -0.184236 0.000000 
0.326741 -0.188760 0.000000 
0.443040 0.244273 0.000000 
0.442585 0.167544 0.000000 
0.500000 0.244592 0.000000 
0.325717 0.016056 0.000000 
0.384415 0.091365 0.000000 
0.327192 0.089263 0.000000 
0.500000 0.093719 0.000000 
0.442033 0.093036 0.000000 
0.441511 0.020975 0.000000 
0.324809 -0.123350 0.000000 
0.382935 -0.051530 0.000000 
0.324718 -0.054898 0.000000 
0.553822 -0.153822 0.000000 
0.549609 -0.176752 0.000000 
0.673259 -0.188760 0.000000 
0.612096 -0.184236 0.000000 
0.667362 -0.250699 0.000000 
0.557694 -0.115051 0.000000 
0.558686 -0.048439 0.000000 
0.915020 -0.194654 0.000000 
0.854011 -0.196442 0.000000 
0.917356 -0.258818 0.000000 
0.733347 -0.057869 0.000000 
0.792977 -0.129220 0.000000 
0.791490 -0.059585 0.000000 
0.792418 -0.260723 0.000000 
0.793305 -0.196449 0.000000 
0.733095 -0.194162 0.000000 
0.557415 0.167544 0.000000 
0.556960 0.244273 0.000000 
0.558489 0.020975 0.000000 
0.557967 0.093036 0.000000 
0.672808 0.089263 0.000000 
0.615585 0.091365 0.000000 
0.674283 0.016056 0.000000 
0.675191 -0.123350 0.000000 
0.675282 -0.054898 0.000000 
0.617065 -0.051530 0.000000 
0.976086 -0.191519 0.000000 
0.912177 -0.127569 0.000000 
0.904693 0.013685 0.000000 
0.908691 -0.058004 0.000000 
0.967551 -0.054357 0.000000 
0.849934 -0.059686 0.000000 
0.789209 0.012190 0.000000 
0.889149 0.317900 0.000000 
0.892373 0.239457 0.000000 
0.948089 0.242365 0.000000 
0.781407 0.239149 0.000000 
0.836850 0.238644 0.000000 
0.779596 0.318418 0.000000 
0.957587 0.090923 0.000000 
0.896230 0.162549 0.000000 
0.900439 0.087256 0.000000 
0.613649 0.243287 0.000000 
0.556664 0.323000 0.000000 
0.729730 0.087284 0.000000 
0.671267 0.164579 0.000000 
0.669068 0.321036 0.000000 
0.669946 0.241882 0.000000 
0.725834 0.240378 0.000000 
0.843400 0.085792 0.000000 
0.783820 0.161642 0.000000 
0.786530 0.085964 0.000000 
0.941270 0.398988 0.000000 
0.886922 0.397860 0.000000 
0.887038 0.562428 0.000000 
0.886086 0.479359 0.000000 
0.939781 0.560626 0.000000 
0.832910 0.398284 0.000000 
0.778753 0.399390 0.000000 
0.921475 0.911247 0.000000 
0.906699 0.821762 0.000000 
0.971115 0.903322 0.000000 
0.784499 0.651432 0.000000 
0.844394 0.736576 0.000000 
0.789803 0.737881 0.000000 
0.947159 0.727803 0.000000 
0.896537 0.733574 0.000000 
0.890291 0.647137 0.000000 
0.612937 0.402877 0.000000 
0.556580 0.403500 0.000000 
0.724107 0.400683 0.000000 
0.668826 0.401898 0.000000 
0.670690 0.568038 0.000000 
0.669339 0.484294 0.000000 
0.726351 0.567208 0.000000 
0.834421 0.564432 0.000000 
0.780963 0.566041 0.000000 
0.779118 0.481969 0.000000 
0.937500 1.000000 0.000000 
0.864035 0.912307 0.000000 
0.744187 0.912438 0.000000 
0.804517 0.912457 0.000000 
0.812500 1.000000 0.000000 
0.796670 0.825018 0.000000 
0.733411 0.738453 0.000000 
0.500000 0.912341 0.000000 
0.561241 0.912343 0.000000 
0.562500 1.000000 0.000000 
0.558903 0.738996 0.000000 
0.560018 0.825318 0.000000 
0.500000 0.739041 0.000000 
0.687500 1.000000 0.000000 
0.622410 0.912361 0.000000 
0.683427 0.912395 0.000000 
0.556777 0.485556 0.000000 
0.500000 0.403697 0.000000 
0.672891 0.652924 0.000000 
0.614229 0.568608 0.000000 
0.500000 0.569084 0.000000 
0.557242 0.568952 0.000000 
0.557961 0.653491 0.000000 
0.679460 0.825280 0.000000 
0.617602 0.738901 0.000000 
0.675869 0.738738 0.000000 
0.437500 1.000000 0.000000 
0.438759 0.912343 0.000000 
0.316573 0.912395 0.000000 
0.377590 0.912361 0.000000 
0.312500 1.000000 0.000000 
0.439982 0.825318 0.000000 
0.441097 0.738996 0.000000 
0.078525 0.911247 0.000000 
0.135965 0.912307 0.000000 
0.062500 1.000000 0.000000 
0.266589 0.738453 0.000000 
0.203330 0.825018 0.000000 
0.210197 0.737881 0.000000 
0.187500 1.000000 0.000000 
0.195483 0.912457 0.000000 
0.255813 0.912438 0.000000 
0.443223 0.485556 0.000000 
0.443420 0.403500 0.000000 
0.442039 0.653491 0.000000 
0.442758 0.568952 0.000000 
0.329310 0.568038 0.000000 
0.385771 0.568608 0.000000 
0.327109 0.652924 0.000000 
0.320540 0.825280 0.000000 
0.324131 0.738738 0.000000 
0.382398 0.738901 0.000000 
0.028885 0.903322 0.000000 
0.093301 0.821762 0.000000 
0.109709 0.647137 0.000000 
0.103463 0.733574 0.000000 
0.052841 0.727803 0.000000 
0.155606 0.736576 0.000000 
0.215501 0.651432 0.000000 
0.110851 0.317900 0.000000 
0.113078 0.397860 0.000000 
0.058730 0.398988 0.000000 
0.221247 0.399390 0.000000 
0.167090 0.398284 0.000000 
0.220404 0.318418 0.000000 
0.060219 0.560626 0.000000 
0.113914 0.479359 0.000000 
0.112962 0.562428 0.000000 
0.387063 0.402877 0.000000 
0.443336 0.323000 0.000000 
0.273649 0.567208 0.000000 
0.330661 0.484294 0.000000 
0.330932 0.321036 0.000000 
0.331174 0.401898 0.000000 
0.275893 0.400683 0.000000 
0.165579 0.564432 0.000000 
0.220882 0.481969 0.000000 
0.219037 0.566041 0.000000 
0.051911 0.242365 0.000000 
0.107627 0.239457 0.000000 
0.099561 0.087256 0.000000 
0.103770 0.162549 0.000000 
0.042413 0.090923 0.000000 
0.163150 0.238644 0.000000 
0.218593 0.239149 0.000000 
0.087823 -0.127569 0.000000 
0.023914 -0.191519 0.000000 
0.210791 0.012190 0.000000 
0.150066 -0.059686 0.000000 
0.032449 -0.054357 0.000000 
0.091309 -0.058004 0.000000 
0.095307 0.013685 0.000000 
0.386351 0.243287 0.000000 
0.274166 0.240378 0.000000 
0.330054 0.241882 0.000000 
0.328733 0.164579 0.000000 
0.270270 0.087284 0.000000 
0.156600 0.085792 0.000000 
0.213470 0.085964 0.000000 
0.216180 0.161642 0.000000 
0.051568 -0.257444 0.000000 
0.083780 -0.227124 0.000000 
0.052928 -0.225733 0.000000 
0.145464 -0.228952 0.000000 
0.114628 -0.228227 0.000000 
0.113800 -0.259919 0.000000 
0.116539 -0.162532 0.000000 
0.115511 -0.195744 0.000000 
0.146692 -0.163201 0.000000 
0.268176 -0.226641 0.000000 
0.237669 -0.228191 0.000000 
0.238894 -0.259899 0.000000 
0.236518 -0.162368 0.000000 
0.236871 -0.195636 0.000000 
0.266220 -0.161000 0.000000 
0.176287 -0.260941 0.000000 
0.207016 -0.229008 0.000000 
0.176269 -0.229233 0.000000 
0.238489 -0.023325 0.000000 
0.237610 -0.058915 0.000000 
0.267363 -0.022365 0.000000 
0.177372 -0.129490 0.000000 
0.207643 -0.094683 0.000000 
0.178242 -0.094952 0.000000 
0.266176 -0.092824 0.000000 
0.236947 -0.093969 0.000000 
0.236563 -0.128464 0.000000 
0.176392 -0.196695 0.000000 
0.206697 -0.163159 0.000000 
0.176751 -0.163423 0.000000 
0.500000 -0.126380 0.000000 
0.473263 -0.153141 0.000000 
0.472436 -0.127564 0.000000 
0.471555 -0.147868 0.000000 
0.464901 -0.138229 0.000000 
0.500000 -0.133068 0.000000 
0.418769 -0.181231 0.000000 
0.442918 -0.173046 0.000000 
0.423093 -0.205601 0.000000 
0.470612 -0.013181 0.000000 
0.470595 -0.047375 0.000000 
0.500000 -0.012650 0.000000 
0.413050 -0.116854 0.000000 
0.441558 -0.082110 0.000000 
0.412309 -0.083727 0.000000 
0.500000 -0.079238 0.000000 
0.470738 -0.080947 0.000000 
0.471161 -0.114158 0.000000 
0.301479 -0.255560 0.000000 
0.328531 -0.220179 0.000000 
0.298473 -0.224116 0.000000 
0.389835 -0.216235 0.000000 
0.358649 -0.214400 0.000000 
0.363162 -0.236838 0.000000 
0.355364 -0.153799 0.000000 
0.357046 -0.185155 0.000000 
0.385315 -0.152085 0.000000 
0.444120 -0.147098 0.000000 
0.414704 -0.149069 0.000000 
[...]
POINT_DATA 1089

SCALARS u_h float 2
LOOKUP_TABLE default
0.020538 -0.256019 
-0.020538 -0.256019 
0.000000 0.000000 
0.000000 0.000000 
-0.000000 -0.100000 
-0.055701 -0.179827 
0.000000 0.000000 
0.055701 -0.179827 
-0.000000 -0.176845 
0.020206 -0.258297 
-0.000000 -0.227946 
0.018240 -0.236330 
-0.020206 -0.258297 
-0.018240 -0.236330 
-0.037349 -0.232571 
-0.025442 -0.180321 
-0.057944 -0.106536 
-0.020712 -0.097640 
0.000000 0.000000 
-0.000000 -0.096423 
0.000000 0.000000 
0.020712 -0.097640 
0.057944 -0.106536 
0.025442 -0.180321 
0.037349 -0.232571 
0.020021 -0.260650 
0.016005 -0.252210 
0.022609 -0.254294 
-0.000000 -0.235384 
0.008809 -0.244234 
0.013479 -0.202919 
0.010464 -0.208723 
0.008432 -0.231287 
-0.000000 -0.206987 
-0.013479 -0.202919 
-0.008809 -0.244234 
-0.022609 -0.254294 
-0.016005 -0.252210 
-0.020021 -0.260650 
-0.008432 -0.231287 
-0.010464 -0.208723 
-0.027933 -0.249140 
-0.028166 -0.237926 
-0.040639 -0.182368 
-0.035035 -0.213655 
-0.047365 -0.209064 
-0.022351 -0.212118 
-0.011922 -0.177783 
-0.060328 -0.145851 
-0.042196 -0.144437 
-0.021751 -0.050692 
-0.036840 -0.100176 
-0.043850 -0.060975 
-0.025350 -0.141753 
-0.011690 -0.139926 
0.000000 0.000000 
-0.011496 -0.049780 
0.000000 -0.049668 
-0.005108 -0.049697 
0.000000 0.000000 
-0.009321 -0.096719 
-0.000000 -0.139270 
0.000000 0.000000 
0.005108 -0.049697 
0.021751 -0.050692 
0.011496 -0.049780 
0.000000 0.000000 
0.009321 -0.096719 
0.011690 -0.139926 
0.043850 -0.060975 
0.036840 -0.100176 
0.040639 -0.182368 
0.042196 -0.144437 
0.060328 -0.145851 
0.025350 -0.141753 
0.011922 -0.177783 
0.047365 -0.209064 
0.035035 -0.213655 
0.028166 -0.237926 
0.027933 -0.249140 
0.022351 -0.212118 
0.020144 -0.258818 
0.020989 -0.258942 
0.022480 -0.257154 
0.016905 -0.256662 
0.019195 -0.258949 
0.020082 -0.260723 
0.021010 -0.247085 
0.019523 -0.254220 
0.016653 -0.245369 
-0.000000 -0.210475 
0.012891 -0.239252 
0.008678 -0.153822 
0.003814 -0.235939 
0.004806 -0.240051 
-0.000000 -0.233977 
0.020138 -0.250699 
0.012904 -0.246736 
0.014241 -0.251260 
0.005540 -0.193227 
0.005085 -0.207456 
-0.000000 -0.192908 
0.013217 -0.233944 
0.009415 -0.221135 
0.014692 -0.223237 
-0.000000 -0.218781 
0.004533 -0.219464 
0.004011 -0.229025 
0.012309 -0.248350 
0.007935 -0.239030 
0.012218 -0.242398 
-0.008678 -0.153822 
-0.012891 -0.239252 
-0.014241 -0.251260 
-0.012904 -0.246736 
-0.020138 -0.250699 
-0.004806 -0.240051 
-0.003814 -0.235939 
-0.022480 -0.257154 
-0.020989 -0.258942 
-0.020144 -0.258818 
-0.016653 -0.245369 
-0.019523 -0.254220 
-0.021010 -0.247085 
-0.020082 -0.260723 
-0.019195 -0.258949 
-0.016905 -0.256662 
-0.005085 -0.207456 
-0.005540 -0.193227 
-0.004011 -0.229025 
-0.004533 -0.219464 
-0.014692 -0.223237 
-0.009415 -0.221135 
-0.013217 -0.233944 
-0.012309 -0.248350 
-0.012218 -0.242398 
-0.007935 -0.239030 
-0.023914 -0.254019 
-0.025323 -0.252569 
-0.032807 -0.236315 
-0.028809 -0.245504 
-0.032449 -0.241857 
-0.025066 -0.247186 
-0.023291 -0.237810 
-0.048351 -0.182100 
-0.045127 -0.198043 
-0.051911 -0.195135 
-0.031093 -0.198351 
-0.038150 -0.198856 
-0.032904 -0.181582 
-0.042413 -0.221577 
-0.041270 -0.212451 
-0.037061 -0.225244 
-0.011351 -0.194213 
-0.005836 -0.177000 
-0.020270 -0.225216 
-0.016233 -0.210421 
-0.018432 -0.178964 
-0.017554 -0.195618 
-0.024166 -0.197122 
-0.031600 -0.226708 
-0.028680 -0.213358 
-0.025970 -0.226536 
-0.058730 -0.163512 
-0.050578 -0.164640 
-0.050462 -0.125072 
-0.051414 -0.145641 
-0.060219 -0.126874 
-0.042090 -0.164216 
-0.033747 -0.163110 
-0.016025 -0.026253 
-0.030801 -0.053238 
-0.028885 -0.034178 
-0.028001 -0.098568 
-0.030606 -0.075924 
-0.022697 -0.074619 
-0.052841 -0.084697 
-0.040963 -0.078926 
-0.047209 -0.102863 
-0.012063 -0.159623 
-0.005920 -0.159000 
-0.025893 -0.161817 
-0.018674 -0.160602 
-0.016810 -0.119462 
-0.018161 -0.140706 
-0.023649 -0.120292 
-0.040579 -0.123068 
-0.031537 -0.121459 
-0.033382 -0.143031 
0.000000 0.000000 
-0.010965 -0.025193 
-0.005813 -0.025062 
-0.007983 -0.025043 
0.000000 0.000000 
-0.015830 -0.049982 
-0.016589 -0.074047 
-0.000000 -0.025159 
-0.001259 -0.025157 
0.000000 0.000000 
-0.003597 -0.073504 
-0.002482 -0.049682 
0.000000 -0.073459 
0.000000 0.000000 
-0.002590 -0.025139 
-0.004073 -0.025105 
-0.005723 -0.139444 
-0.000000 -0.158803 
-0.014609 -0.097076 
-0.010771 -0.118892 
-0.000000 -0.118416 
-0.005258 -0.118548 
-0.004539 -0.096509 
-0.008040 -0.049720 
-0.007398 -0.073599 
-0.011631 -0.073762 
0.000000 0.000000 
0.001259 -0.025157 
0.004073 -0.025105 
0.002590 -0.025139 
0.000000 0.000000 
0.002482 -0.049682 
0.003597 -0.073504 
0.016025 -0.026253 
0.010965 -0.025193 
0.000000 0.000000 
0.016589 -0.074047 
0.015830 -0.049982 
0.022697 -0.074619 
0.000000 0.000000 
0.007983 -0.025043 
0.005813 -0.025062 
0.005723 -0.139444 
0.005920 -0.159000 
0.004539 -0.096509 
0.005258 -0.118548 
0.016810 -0.119462 
0.010771 -0.118892 
0.014609 -0.097076 
0.008040 -0.049720 
0.011631 -0.073762 
0.007398 -0.073599 
0.028885 -0.034178 
0.030801 -0.053238 
0.047209 -0.102863 
0.040963 -0.078926 
0.052841 -0.084697 
0.030606 -0.075924 
0.028001 -0.098568 
0.048351 -0.182100 
0.050578 -0.164640 
0.058730 -0.163512 
0.033747 -0.163110 
0.042090 -0.164216 
0.032904 -0.181582 
0.060219 -0.126874 
0.051414 -0.145641 
0.050462 -0.125072 
0.012063 -0.159623 
0.005836 -0.177000 
0.023649 -0.120292 
0.018161 -0.140706 
0.018432 -0.178964 
0.018674 -0.160602 
0.025893 -0.161817 
0.040579 -0.123068 
0.033382 -0.143031 
0.031537 -0.121459 
0.051911 -0.195135 
0.045127 -0.198043 
0.037061 -0.225244 
0.041270 -0.212451 
0.042413 -0.221577 
0.038150 -0.198856 
0.031093 -0.198351 
0.025323 -0.252569 
0.023914 -0.254019 
0.023291 -0.237810 
0.025066 -0.247186 
0.032449 -0.241857 
0.028809 -0.245504 
0.032807 -0.236315 
0.011351 -0.194213 
0.024166 -0.197122 
0.017554 -0.195618 
0.016233 -0.210421 
0.020270 -0.225216 
0.031600 -0.226708 
0.025970 -0.226536 
0.028680 -0.213358 
0.020318 -0.257444 
0.021280 -0.258374 
0.021678 -0.256983 
0.020464 -0.260202 
0.020878 -0.259477 
0.020050 -0.259919 
0.022789 -0.256282 
0.021761 -0.258244 
0.021692 -0.256951 
0.018176 -0.257891 
0.018919 -0.259441 
0.020144 -0.259899 
0.017768 -0.256118 
0.018121 -0.258136 
0.016220 -0.254750 
0.020037 -0.260941 
0.019516 -0.260258 
0.020019 -0.260483 
0.019739 -0.242075 
0.018860 -0.246415 
0.017363 -0.241115 
0.021122 -0.254490 
0.020143 -0.250933 
0.021992 -0.251202 
0.016176 -0.249074 
0.018197 -0.250219 
0.017813 -0.253464 
0.020142 -0.259195 
0.019197 -0.256909 
0.020501 -0.257173 
-0.000000 -0.157630 
0.004513 -0.184391 
0.003686 -0.127564 
0.002805 -0.241618 
-0.003849 -0.200729 
-0.000000 -0.226818 
0.012519 -0.181231 
0.005418 -0.204296 
0.016843 -0.236851 
0.001862 -0.231931 
0.001845 -0.234875 
-0.000000 -0.231400 
0.006800 -0.241854 
0.004058 -0.238360 
0.006059 -0.239977 
-0.000000 -0.235488 
0.001988 -0.237197 
0.002411 -0.239158 
0.020229 -0.255560 
0.016031 -0.251429 
0.017223 -0.255366 
0.014835 -0.247485 
0.014899 -0.245650 
0.019412 -0.236838 
0.011614 -0.247549 
0.013296 -0.247655 
0.010315 -0.245835 
0.006620 -0.240848 
0.008454 -0.242819 
0.012004 -0.242217 
0.002828 -0.185138 
0.002745 -0.192974 
-0.000000 -0.185105 
0.007728 -0.208010 
0.005329 -0.200605 
0.008090 -0.201087 
-0.000000 -0.200214 
0.002641 -0.200306 
0.002518 -0.207104 
0.015710 -0.235214 
0.013924 -0.228862 
0.016552 -0.230007 
0.008895 -0.226503 
0.011367 -0.227669 
0.010786 -0.232607 
0.012664 -0.216120 
0.012007 -0.222167 
0.009948 -0.215202 
-0.000000 -0.223717 
0.002089 -0.223965 
0.001957 -0.228294 
0.002381 -0.213336 
0.002235 -0.218968 
-0.000000 -0.213189 
0.006168 -0.230051 
0.004257 -0.224564 
0.006522 -0.225436 
0.007333 -0.214392 
0.006923 -0.220209 
0.004816 -0.213752 
0.015567 -0.254402 
0.010560 -0.246128 
0.013008 -0.250232 
0.014596 -0.252770 
0.014146 -0.250473 
0.003840 -0.232823 
0.008084 -0.235468 
0.005911 -0.234030 
0.005832 -0.237350 
0.008112 -0.241957 
0.014980 -0.239884 
0.014119 -0.247538 
0.014425 -0.243999 
0.012625 -0.238464 
0.010324 -0.236960 
0.010092 -0.243785 
0.010058 -0.240701 
0.012079 -0.245711 
-0.003686 -0.127564 
-0.004513 -0.184391 
-0.016843 -0.236851 
-0.005418 -0.204296 
-0.012519 -0.181231 
0.003849 -0.200729 
-0.002805 -0.241618 
-0.017223 -0.255366 
-0.016031 -0.251429 
-0.020229 -0.255560 
-0.010315 -0.245835 
-0.013296 -0.247655 
-0.011614 -0.247549 
-0.019412 -0.236838 
-0.014899 -0.245650 
-0.014835 -0.247485 
-0.001845 -0.234875 
-0.001862 -0.231931 
-0.002411 -0.239158 
-0.001988 -0.237197 
-0.006059 -0.239977 
-0.004058 -0.238360 
-0.006800 -0.241854 
-0.012004 -0.242217 
-0.008454 -0.242819 
-0.006620 -0.240848 
-0.021678 -0.256983 
-0.021280 -0.258374 
-0.020318 -0.257444 
-0.021692 -0.256951 
-0.021761 -0.258244 
-0.022789 -0.256282 
-0.020050 -0.259919 
-0.020878 -0.259477 
-0.020464 -0.260202 
-0.017363 -0.241115 
-0.018860 -0.246415 
-0.019739 -0.242075 
-0.017813 -0.253464 
-0.018197 -0.250219 
-0.016176 -0.249074 
-0.021992 -0.251202 
-0.020143 -0.250933 
-0.021122 -0.254490 
-0.020144 -0.259899 
-0.018919 -0.259441 
-0.018176 -0.257891 
-0.020019 -0.260483 
-0.019516 -0.260258 
-0.020037 -0.260941 
-0.016220 -0.254750 
-0.018121 -0.258136 
-0.017768 -0.256118 
-0.020501 -0.257173 
-0.019197 -0.256909 
-0.020142 -0.259195 
-0.002745 -0.192974 
-0.002828 -0.185138 
-0.002518 -0.207104 
-0.002641 -0.200306 
-0.008090 -0.201087 
-0.005329 -0.200605 
-0.007728 -0.208010 
-0.001957 -0.228294 
-0.002089 -0.223965 
-0.006522 -0.225436 
-0.004257 -0.224564 
-0.006168 -0.230051 
-0.002235 -0.218968 
-0.002381 -0.213336 
-0.016552 -0.230007 
-0.013924 -0.228862 
-0.015710 -0.235214 
-0.009948 -0.215202 
-0.012007 -0.222167 
-0.012664 -0.216120 
-0.010786 -0.232607 
-0.011367 -0.227669 
-0.008895 -0.226503 
-0.004816 -0.213752 
-0.006923 -0.220209 
-0.007333 -0.214392 
-0.015567 -0.254402 
-0.014146 -0.250473 
-0.014596 -0.252770 
-0.013008 -0.250232 
-0.010560 -0.246128 
-0.014980 -0.239884 
-0.010324 -0.236960 
-0.012625 -0.238464 
-0.014425 -0.243999 
-0.014119 -0.247538 
-0.003840 -0.232823 
-0.008112 -0.241957 
-0.005832 -0.237350 
-0.005911 -0.234030 
-0.008084 -0.235468 
-0.012079 -0.245711 
-0.010058 -0.240701 
-0.010092 -0.243785 
-0.022106 -0.255415 
-0.023178 -0.255729 
-0.026616 -0.251065 
-0.024824 -0.253734 
-0.025859 -0.251908 
-0.023820 -0.255199 
-0.024000 -0.253649 
-0.035073 -0.234740 
-0.032803 -0.239581 
-0.034863 -0.237443 
-0.028684 -0.242221 
-0.030758 -0.241158 
-0.030512 -0.237360 
-0.030132 -0.245771 
-0.030620 -0.243941 
-0.028551 -0.247783 
-0.022077 -0.242705 
-0.020777 -0.237216 
-0.023740 -0.251025 
-0.023082 -0.247349 
-0.025758 -0.238061 
-0.024352 -0.242961 
-0.026554 -0.242810 
-0.026990 -0.249321 
-0.026969 -0.246577 
-0.025398 -0.250399 
-0.052092 -0.181302 
-0.050412 -0.189275 
-0.053932 -0.187653 
-0.043185 -0.190736 
-0.046832 -0.190260 
-0.044520 -0.182413 
-0.049708 -0.202273 
-0.048541 -0.196904 
-0.046502 -0.204176 
-0.028451 -0.189608 
-0.032092 -0.190183 
-0.029125 -0.180984 
-0.036652 -0.206470 
-0.034619 -0.198727 
-0.033300 -0.206412 
-0.036754 -0.182065 
-0.035783 -0.190609 
-0.039492 -0.190821 
-0.039877 -0.227274 
-0.039739 -0.223727 
-0.037397 -0.229447 
-0.044330 -0.211077 
-0.042063 -0.217598 
-0.044921 -0.215502 
-0.036285 -0.219963 
-0.039191 -0.219055 
-0.038173 -0.213280 
-0.041660 -0.198659 
-0.039977 -0.206176 
-0.043261 -0.205443 
-0.005710 -0.185348 
-0.002900 -0.176820 
-0.010939 -0.201719 
-0.008402 -0.193649 
-0.008835 -0.177330 
-0.008655 -0.185721 
-0.011684 -0.186226 
-0.019227 -0.231027 
-0.017453 -0.224277 
-0.019255 -0.211297 
-0.018368 -0.218036 
-0.021326 -0.218909 
-0.015474 -0.217085 
-0.013300 -0.209544 
-0.021875 -0.179636 
-0.021419 -0.188229 
-0.024887 -0.188941 
-0.014816 -0.186835 
-0.018061 -0.187514 
-0.015117 -0.178337 
-0.023310 -0.204851 
-0.020812 -0.196380 
-0.020081 -0.204074 
-0.013887 -0.202459 
-0.016936 -0.203260 
-0.014400 -0.194882 
-0.034920 -0.231004 
-0.033338 -0.220405 
-0.034352 -0.226213 
-0.032415 -0.232017 
-0.029862 -0.232553 
-0.027600 -0.197796 
-0.025501 -0.212824 
-0.026604 -0.205538 
-0.029943 -0.206079 
-0.031865 -0.213657 
-0.021920 -0.231850 
-0.027257 -0.232667 
-0.024604 -0.232416 
-0.023118 -0.225990 
-0.024325 -0.219644 
-0.030353 -0.220454 
-0.027342 -0.220180 
-0.028803 -0.226794 
-0.057393 -0.171845 
-0.053567 -0.172999 
-0.055536 -0.155322 
-0.054725 -0.164340 
-0.059719 -0.154846 
-0.049615 -0.173562 
-0.045580 -0.173686 
-0.054371 -0.115555 
-0.055438 -0.126071 
-0.059388 -0.116881 
-0.046793 -0.145100 
-0.051190 -0.135556 
-0.046377 -0.134771 
-0.060512 -0.136528 
-0.055945 -0.136196 
-0.055959 -0.145943 
-0.033458 -0.172553 
-0.029558 -0.171931 
-0.041510 -0.173498 
-0.037454 -0.173095 
-0.037972 -0.153919 
-0.037874 -0.163710 
-0.042335 -0.154528 
-0.051193 -0.155334 
-0.046765 -0.155029 
-0.046345 -0.164558 
-0.010063 -0.013783 
-0.021001 -0.028466 
-0.017492 -0.018557 
-0.025751 -0.051576 
-0.023968 -0.039831 
-0.019669 -0.038515 
-0.037330 -0.048105 
-0.029925 -0.042651 
-0.037003 -0.056185 
-0.024183 -0.098043 
-0.025566 -0.086705 
-0.021997 -0.086264 
-0.034053 -0.088203 
-0.029564 -0.087324 
-0.032211 -0.099260 
-0.022676 -0.062745 
-0.026377 -0.075133 
-0.026491 -0.063393 
-0.055799 -0.095819 
-0.050216 -0.093268 
-0.052663 -0.104629 
-0.042572 -0.069095 
-0.046906 -0.081438 
-0.048924 -0.073114 
-0.041870 -0.101368 
-0.044513 -0.091115 
-0.039057 -0.089438 
-0.031041 -0.064489 
-0.035468 -0.077133 
-0.036435 -0.066294 
-0.005914 -0.168208 
-0.002954 -0.168046 
-0.012053 -0.168907 
-0.008938 -0.168501 
-0.008853 -0.149634 
-0.008946 -0.159261 
-0.011944 -0.149955 
-0.025780 -0.171273 
-0.022138 -0.170615 
-0.022047 -0.151376 
-0.022203 -0.161188 
-0.025758 -0.151971 
-0.018640 -0.169985 
-0.015282 -0.169408 
-0.018953 -0.108714 
-0.020113 -0.119841 
-0.022336 -0.109100 
-0.014848 -0.140281 
-0.017593 -0.130240 
-0.014365 -0.129869 
-0.024651 -0.131185 
-0.021013 -0.130678 
-0.021655 -0.141198 
-0.015299 -0.160074 
-0.018519 -0.150834 
-0.015158 -0.150357 
-0.049161 -0.114178 
-0.039000 -0.111805 
-0.043980 -0.112904 
-0.045460 -0.124039 
-0.041627 -0.133948 
-0.026003 -0.109575 
-0.028530 -0.131766 
-0.027450 -0.120827 
-0.029990 -0.110165 
-0.034322 -0.110898 
-0.029745 -0.162467 
-0.037706 -0.143730 
-0.033733 -0.153265 
-0.029655 -0.152607 
-0.029258 -0.142367 
-0.035919 -0.122204 
-0.032660 -0.132422 
-0.037035 -0.133154 
0.000000 0.000000 
-0.007719 -0.012931 
-0.005378 -0.012555 
-0.006355 -0.012652 
0.000000 0.000000 
-0.013063 -0.025492 
-0.016508 -0.037925 
-0.002894 -0.012573 
-0.003393 -0.012552 
0.000000 0.000000 
-0.010231 -0.037482 
-0.006828 -0.025045 
-0.008700 -0.037468 
0.000000 0.000000 
-0.003955 -0.012535 
-0.004604 -0.012530 
-0.019465 -0.074279 
-0.018789 -0.085945 
-0.018522 -0.050228 
-0.019432 -0.062361 
-0.014143 -0.061982 
-0.016622 -0.062128 
-0.013521 -0.049851 
-0.009331 -0.025078 
-0.011979 -0.037531 
-0.014026 -0.037653 
-0.000000 -0.012658 
-0.000312 -0.012658 
0.000000 0.000000 
-0.000933 -0.037502 
-0.000625 -0.025160 
0.000000 -0.037498 
0.000000 0.000000 
-0.000629 -0.012655 
-0.000955 -0.012649 
-0.002033 -0.085075 
-0.001786 -0.073476 
-0.000000 -0.085053 
-0.003768 -0.049689 
-0.003057 -0.061687 
-0.004641 -0.061709 
0.000000 -0.061659 
-0.001518 -0.061671 
-0.001232 -0.049675 
0.000000 0.000000 
-0.002033 -0.012612 
-0.002445 -0.012593 
-0.001294 -0.012640 
-0.001652 -0.012628 
0.000000 0.000000 
-0.004940 -0.037486 
-0.003307 -0.025124 
-0.003868 -0.037494 
-0.001879 -0.037502 
-0.002853 -0.037500 
-0.001911 -0.025150 
-0.002953 -0.158848 
-0.000000 -0.168019 
-0.008659 -0.139647 
-0.005856 -0.149403 
-0.000000 -0.149213 
-0.002916 -0.149263 
-0.002848 -0.139319 
-0.017537 -0.097325 
-0.015813 -0.108398 
-0.010110 -0.107935 
-0.012879 -0.108141 
-0.011884 -0.096877 
-0.013708 -0.119147 
-0.011299 -0.129564 
-0.000000 -0.107551 
-0.002449 -0.107585 
-0.002255 -0.096451 
-0.002747 -0.129042 
-0.002613 -0.118456 
-0.000000 -0.128997 
-0.006884 -0.096597 
-0.004929 -0.107659 
-0.007472 -0.107775 
-0.008363 -0.129324 
-0.007966 -0.118692 
-0.005523 -0.129151 
-0.004902 -0.025084 
-0.006524 -0.049707 
-0.006087 -0.037477 
-0.007331 -0.037469 
-0.009685 -0.049742 
-0.004093 -0.085117 
-0.008413 -0.085266 
-0.006210 -0.085180 
-0.005459 -0.073544 
-0.006291 -0.061736 
-0.015879 -0.085705 
-0.011921 -0.061887 
-0.013997 -0.073883 
-0.013209 -0.085521 
-0.010734 -0.085378 
-0.008034 -0.061773 
-0.009445 -0.073670 
-0.009899 -0.061821 
0.000000 0.000000 
0.000312 -0.012658 
0.000955 -0.012649 
0.000629 -0.012655 
0.000000 0.000000 
0.000625 -0.025160 
0.000933 -0.037502 
0.002445 -0.012593 
0.002033 -0.012612 
0.000000 0.000000 
0.003868 -0.037494 
0.003307 -0.025124 
0.004940 -0.037486 
0.000000 0.000000 
0.001652 -0.012628 
0.001294 -0.012640 
0.001786 -0.073476 
0.002033 -0.085075 
0.001232 -0.049675 
0.001518 -0.061671 
0.004641 -0.061709 
0.003057 -0.061687 
0.003768 -0.049689 
0.001911 -0.025150 
0.002853 -0.037500 
0.001879 -0.037502 
0.010063 -0.013783 
0.007719 -0.012931 
0.000000 0.000000 
0.016508 -0.037925 
0.013063 -0.025492 
0.019669 -0.038515 
0.000000 0.000000 
0.006355 -0.012652 
0.005378 -0.012555 
0.018789 -0.085945 
0.019465 -0.074279 
0.021997 -0.086264 
0.013521 -0.049851 
0.016622 -0.062128 
0.014143 -0.061982 
0.022676 -0.062745 
0.019432 -0.062361 
0.018522 -0.050228 
0.000000 0.000000 
0.003393 -0.012552 
0.002894 -0.012573 
0.004604 -0.012530 
0.003955 -0.012535 
0.000000 0.000000 
0.008700 -0.037468 
0.006828 -0.025045 
0.010231 -0.037482 
0.014026 -0.037653 
0.011979 -0.037531 
0.009331 -0.025078 
0.002953 -0.158848 
0.002954 -0.168046 
0.002848 -0.139319 
0.002916 -0.149263 
0.008853 -0.149634 
0.005856 -0.149403 
0.008659 -0.139647 
0.002255 -0.096451 
0.002449 -0.107585 
0.007472 -0.107775 
0.004929 -0.107659 
0.006884 -0.096597 
0.002613 -0.118456 
0.002747 -0.129042 
0.018953 -0.108714 
0.015813 -0.108398 
0.017537 -0.097325 
0.011299 -0.129564 
0.013708 -0.119147 
0.014365 -0.129869 
0.011884 -0.096877 
0.012879 -0.108141 
0.010110 -0.107935 
0.005523 -0.129151 
0.007966 -0.118692 
0.008363 -0.129324 
0.004902 -0.025084 
0.009685 -0.049742 
0.007331 -0.037469 
0.006087 -0.037477 
0.006524 -0.049707 
0.015879 -0.085705 
0.010734 -0.085378 
0.013209 -0.085521 
0.013997 -0.073883 
0.011921 -0.061887 
0.004093 -0.085117 
0.006291 -0.061736 
0.005459 -0.073544 
0.006210 -0.085180 
0.008413 -0.085266 
0.009899 -0.061821 
0.009445 -0.073670 
0.008034 -0.061773 
0.017492 -0.018557 
0.021001 -0.028466 
0.037003 -0.056185 
0.029925 -0.042651 
0.037330 -0.048105 
0.023968 -0.039831 
0.025751 -0.051576 
0.052663 -0.104629 
0.050216 -0.093268 
0.055799 -0.095819 
0.039057 -0.089438 
0.044513 -0.091115 
0.041870 -0.101368 
0.048924 -0.073114 
0.046906 -0.081438 
0.042572 -0.069095 
0.025566 -0.086705 
0.024183 -0.098043 
0.026491 -0.063393 
0.026377 -0.075133 
0.032211 -0.099260 
0.029564 -0.087324 
0.034053 -0.088203 
0.036435 -0.066294 
0.035468 -0.077133 
0.031041 -0.064489 
0.052092 -0.181302 
0.053567 -0.172999 
0.057393 -0.171845 
0.045580 -0.173686 
0.049615 -0.173562 
0.044520 -0.182413 
0.059719 -0.154846 
0.054725 -0.164340 
0.055536 -0.155322 
0.029558 -0.171931 
0.033458 -0.172553 
0.029125 -0.180984 
0.042335 -0.154528 
0.037874 -0.163710 
0.037972 -0.153919 
0.036754 -0.182065 
0.037454 -0.173095 
0.041510 -0.173498 
0.059388 -0.116881 
0.055438 -0.126071 
0.054371 -0.115555 
0.055959 -0.145943 
0.055945 -0.136196 
0.060512 -0.136528 
0.046377 -0.134771 
0.051190 -0.135556 
0.046793 -0.145100 
0.046345 -0.164558 
0.046765 -0.155029 
0.051193 -0.155334 
0.005914 -0.168208 
0.002900 -0.176820 
0.011944 -0.149955 
0.008946 -0.159261 
0.008835 -0.177330 
0.008938 -0.168501 
0.012053 -0.168907 
0.022336 -0.109100 
0.020113 -0.119841 
0.021655 -0.141198 
0.021013 -0.130678 
0.024651 -0.131185 
0.017593 -0.130240 
0.014848 -0.140281 
0.021875 -0.179636 
0.022138 -0.170615 
0.025780 -0.171273 
0.015282 -0.169408 