# vtk DataFile Version 2.0
Unstructured Grid Example
ASCII
DATASET UNSTRUCTURED_GRID

POINTS 9 float
0.015142 -0.240667 0.000000 
0.984858 -0.240667 0.000000 
1.000000 1.000000 0.000000 
0.000000 1.000000 0.000000 
0.500000 -0.100000 0.000000 
0.960694 0.343684 0.000000 
0.500000 1.000000 0.000000 
0.039306 0.343684 0.000000 
0.500000 0.351748 0.000000 

CELLS 8 32
3  0 4 8 
3  4 1 8 
3  1 5 8 
3  5 2 8 
3  2 6 8 
3  6 3 8 
3  3 7 8 
3  7 0 8 

CELL_TYPES 8
5
5
5
5
5
5
5
5

POINT_DATA 9

SCALARS u_h float 2
LOOKUP_TABLE default
0.015142 -0.240667 
-0.015142 -0.240667 
0.000000 0.000000 
0.000000 0.000000 
0.000000 -0.100000 
-0.039306 -0.156316 
0.000000 0.000000 
0.039306 -0.156316 
0.000000 -0.148252 

CELL_DATA 8

SCALARS epsilon float 4
LOOKUP_TABLE default
-0.030743 -0.049552 0.000000 0.155540
-0.030743 -0.049552 0.000000 -0.155540
-0.081389 0.154172 0.000000 -0.032531
-0.078531 0.267611 0.000000 0.034124
0.000000 0.254846 0.000000 -0.000000
0.000000 0.254846 0.000000 -0.000000
-0.078531 0.267611 0.000000 -0.034124
-0.081389 0.154172 0.000000 0.032531

SCALARS sigma float 4
LOOKUP_TABLE default
-0.447213 -1.443045 -0.802954 1.952409
-0.447213 -1.443045 -0.802954 -1.952409
-0.546691 3.748249 0.727833 -0.536380
0.544690 7.816600 1.890803 0.428872
2.548461 8.266583 2.548461 -0.000000
2.548461 8.266583 2.548461 -0.000000
0.544690 7.816600 1.890803 -0.428872
-0.546691 3.748249 0.727833 0.536380

