# vtk DataFile Version 2.0
Unstructured Grid Example
ASCII
DATASET UNSTRUCTURED_GRID

POINTS 117 float
-1.000000 0.000000 0.000000 
0.000000 0.035156 0.000000 
1.000000 0.000000 0.000000 
-1.000000 1.000000 0.000000 
0.000000 1.036298 0.000000 
1.000000 1.000000 0.000000 
-1.000000 2.000000 0.000000 
0.000000 2.074023 0.000000 
1.000000 2.000000 0.000000 
-1.000000 3.000000 0.000000 
0.000000 3.000000 0.000000 
1.000000 3.000000 0.000000 
-0.500000 0.000000 0.000000 
-0.500000 0.500000 0.000000 
-1.000000 0.500000 0.000000 
0.000000 0.530397 0.000000 
-0.500000 1.000047 0.000000 
0.500000 0.000000 0.000000 
0.500000 0.500000 0.000000 
1.000000 0.500000 0.000000 
0.500000 1.000047 0.000000 
-0.500000 1.500880 0.000000 
-1.000000 1.500000 0.000000 
0.000000 1.552387 0.000000 
-0.500000 2.005442 0.000000 
0.500000 1.500880 0.000000 
1.000000 1.500000 0.000000 
0.500000 2.005442 0.000000 
-0.500000 2.511971 0.000000 
-1.000000 2.500000 0.000000 
0.000000 2.566362 0.000000 
-0.500000 3.000000 0.000000 
0.500000 2.511971 0.000000 
1.000000 2.500000 0.000000 
0.500000 3.000000 0.000000 
-0.750000 0.000000 0.000000 
-0.750000 0.250000 0.000000 
-1.000000 0.250000 0.000000 
-0.250427 0.260061 0.000000 
-0.500000 0.250000 0.000000 
-0.250000 0.011124 0.000000 
-1.000000 0.750000 0.000000 
-0.750000 0.500000 0.000000 
-0.750000 0.750000 0.000000 
0.000000 0.281223 0.000000 
-0.250427 0.510320 0.000000 
-0.249573 1.014683 0.000000 
-0.250000 0.761800 0.000000 
0.000000 0.782119 0.000000 
-0.500000 0.750005 0.000000 
-0.750000 1.000000 0.000000 
0.250000 0.011124 0.000000 
0.250427 0.260061 0.000000 
0.750000 0.250000 0.000000 
0.500000 0.250000 0.000000 
0.750000 0.000000 0.000000 
0.250427 0.510320 0.000000 
0.250000 0.761800 0.000000 
1.000000 0.250000 0.000000 
0.750000 0.500000 0.000000 
0.750000 1.000000 0.000000 
0.750000 0.750000 0.000000 
1.000000 0.750000 0.000000 
0.500000 0.750005 0.000000 
0.249573 1.014683 0.000000 
-0.750000 1.250000 0.000000 
-1.000000 1.250000 0.000000 
-0.249573 1.269324 0.000000 
-0.500000 1.250243 0.000000 
-1.000000 1.750000 0.000000 
-0.750000 1.500000 0.000000 
-0.750000 1.750000 0.000000 
0.000000 1.293056 0.000000 
-0.250000 1.526082 0.000000 
-0.250427 2.044427 0.000000 
-0.250427 1.784898 0.000000 
0.000000 1.813553 0.000000 
-0.500000 1.752455 0.000000 
-0.750000 2.000000 0.000000 
0.249573 1.269324 0.000000 
0.750000 1.250000 0.000000 
0.500000 1.250243 0.000000 
0.250000 1.526082 0.000000 
0.250427 1.784898 0.000000 
1.000000 1.250000 0.000000 
0.750000 1.500000 0.000000 
0.750000 2.000000 0.000000 
0.750000 1.750000 0.000000 
1.000000 1.750000 0.000000 
0.500000 1.752455 0.000000 
0.250427 2.044427 0.000000 
-0.750000 2.250003 0.000000 
-1.000000 2.250000 0.000000 
-0.250000 2.300673 0.000000 
-0.500000 2.259485 0.000000 
-1.000000 2.750000 0.000000 
-0.750000 2.500145 0.000000 
-0.750000 2.750407 0.000000 
0.000000 2.328063 0.000000 
-0.249573 2.546096 0.000000 
-0.250000 3.000000 0.000000 
-0.249573 2.773631 0.000000 
0.000000 2.782115 0.000000 
-0.500000 2.757921 0.000000 
-0.750000 3.000000 0.000000 
0.250000 2.300673 0.000000 
0.750000 2.250003 0.000000 
0.500000 2.259485 0.000000 
0.249573 2.546096 0.000000 
0.249573 2.773631 0.000000 
1.000000 2.250000 0.000000 
0.750000 2.500145 0.000000 
0.750000 3.000000 0.000000 
0.750000 2.750407 0.000000 
1.000000 2.750000 0.000000 
0.500000 2.757921 0.000000 
0.250000 3.000000 0.000000 

CELLS 192 768
3  0 35 37 
3  12 36 35 
3  14 37 36 
3  35 36 37 
3  1 38 40 
3  13 39 38 
3  12 40 39 
3  38 39 40 
3  3 41 43 
3  14 42 41 
3  13 43 42 
3  41 42 43 
3  12 39 36 
3  13 42 39 
3  14 36 42 
3  39 42 36 
3  1 44 38 
3  15 45 44 
3  13 38 45 
3  44 45 38 
3  4 46 48 
3  16 47 46 
3  15 48 47 
3  46 47 48 
3  3 43 50 
3  13 49 43 
3  16 50 49 
3  43 49 50 
3  15 47 45 
3  16 49 47 
3  13 45 49 
3  47 49 45 
3  1 51 44 
3  17 52 51 
3  15 44 52 
3  51 52 44 
3  2 53 55 
3  18 54 53 
3  17 55 54 
3  53 54 55 
3  4 48 57 
3  15 56 48 
3  18 57 56 
3  48 56 57 
3  17 54 52 
3  18 56 54 
3  15 52 56 
3  54 56 52 
3  2 58 53 
3  19 59 58 
3  18 53 59 
3  58 59 53 
3  5 60 62 
3  20 61 60 
3  19 62 61 
3  60 61 62 
3  4 57 64 
3  18 63 57 
3  20 64 63 
3  57 63 64 
3  19 61 59 
3  20 63 61 
3  18 59 63 
3  61 63 59 
3  3 50 66 
3  16 65 50 
3  22 66 65 
3  50 65 66 
3  4 67 46 
3  21 68 67 
3  16 46 68 
3  67 68 46 
3  6 69 71 
3  22 70 69 
3  21 71 70 
3  69 70 71 
3  16 68 65 
3  21 70 68 
3  22 65 70 
3  68 70 65 
3  4 72 67 
3  23 73 72 
3  21 67 73 
3  72 73 67 
3  7 74 76 
3  24 75 74 
3  23 76 75 
3  74 75 76 
3  6 71 78 
3  21 77 71 
3  24 78 77 
3  71 77 78 
3  23 75 73 
3  24 77 75 
3  21 73 77 
3  75 77 73 
3  4 64 72 
3  20 79 64 
3  23 72 79 
3  64 79 72 
3  5 80 60 
3  25 81 80 
3  20 60 81 
3  80 81 60 
3  7 76 83 
3  23 82 76 
3  25 83 82 
3  76 82 83 
3  20 81 79 
3  25 82 81 
3  23 79 82 
3  81 82 79 
3  5 84 80 
3  26 85 84 
3  25 80 85 
3  84 85 80 
3  8 86 88 
3  27 87 86 
3  26 88 87 
3  86 87 88 
3  7 83 90 
3  25 89 83 
3  27 90 89 
3  83 89 90 
3  26 87 85 
3  27 89 87 
3  25 85 89 
3  87 89 85 
3  6 78 92 
3  24 91 78 
3  29 92 91 
3  78 91 92 
3  7 93 74 
3  28 94 93 
3  24 74 94 
3  93 94 74 
3  9 95 97 
3  29 96 95 
3  28 97 96 
3  95 96 97 
3  24 94 91 
3  28 96 94 
3  29 91 96 
3  94 96 91 
3  7 98 93 
3  30 99 98 
3  28 93 99 
3  98 99 93 
3  10 100 102 
3  31 101 100 
3  30 102 101 
3  100 101 102 
3  9 97 104 
3  28 103 97 
3  31 104 103 
3  97 103 104 
3  30 101 99 
3  31 103 101 
3  28 99 103 
3  101 103 99 
3  7 90 98 
3  27 105 90 
3  30 98 105 
3  90 105 98 
3  8 106 86 
3  32 107 106 
3  27 86 107 
3  106 107 86 
3  10 102 109 
3  30 108 102 
3  32 109 108 
3  102 108 109 
3  27 107 105 
3  32 108 107 
3  30 105 108 
3  107 108 105 
3  8 110 106 
3  33 111 110 
3  32 106 111 
3  110 111 106 
3  11 112 114 
3  34 113 112 
3  33 114 113 
3  112 113 114 
3  10 109 116 
3  32 115 109 
3  34 116 115 
3  109 115 116 
3  33 113 111 
3  34 115 113 
3  32 111 115 
3  113 115 111 

CELL_TYPES 192
5
5
5
5
5
5
5
5
5
5
5
5
5
5
5
5
5
5
5
5
5
5
5
5
5
5
5
5
5
5
5
5
5
5
5
5
5
5
5
5
5
5
5
5
5
5
5
5
5
5
5
5
5
5
5
5
5
5
5
5
5
5
5
5
5
5
5
5
5
5
5
5
5
5
5
5
5
5
5
5
5
5
5
5
5
5
5
5
5
5
5
5
5
5
5
5
5
5
5
5
5
5
5
5
5
5
5
5
5
5
5
5
5
5
5
5
5
5
5
5
5
5
5
5
5
5
5
5
5
5
5
5
5
5
5
5
5
5
5
5
5
5
5
5
5
5
5
5
5
5
5
5
5
5
5
5
5
5
5
5
5
5
5
5
5
5
5
5
5
5
5
5
5
5
5
5
5
5
5
5
5
5
5
5
5
5
5
5
5
5
5
5

POINT_DATA 117

SCALARS u_h float 2
LOOKUP_TABLE default
0.000000 0.000000 
-0.000000 0.035156 
0.000000 0.000000 
0.000000 0.000000 
0.000000 0.036298 
0.000000 0.000000 
0.000000 0.000000 
-0.000000 0.074023 
0.000000 0.000000 
0.000000 0.000000 
0.000000 0.000000 
0.000000 0.000000 
0.000000 0.000000 
0.000000 0.000000 
0.000000 0.000000 
-0.000000 0.030397 
0.000000 0.000047 
0.000000 0.000000 
0.000000 0.000000 
0.000000 0.000000 
0.000000 0.000047 
0.000000 0.000880 
0.000000 0.000000 
-0.000000 0.052387 
0.000000 0.005442 
0.000000 0.000880 
0.000000 0.000000 
0.000000 0.005442 
0.000000 0.011971 
0.000000 0.000000 
0.000000 0.066362 
0.000000 0.000000 
0.000000 0.011971 
0.000000 0.000000 
0.000000 0.000000 
0.000000 0.000000 
0.000000 0.000000 
0.000000 0.000000 
-0.000427 0.010061 
0.000000 0.000000 
-0.000000 0.011124 
0.000000 0.000000 
0.000000 0.000000 
0.000000 0.000000 
-0.000000 0.031223 
-0.000427 0.010320 
0.000427 0.014683 
0.000000 0.011800 
0.000000 0.032119 
0.000000 0.000005 
0.000000 0.000000 
0.000000 0.011124 
0.000427 0.010061 
0.000000 0.000000 
0.000000 0.000000 
0.000000 0.000000 
0.000427 0.010320 
-0.000000 0.011800 
0.000000 0.000000 
0.000000 0.000000 
0.000000 0.000000 
0.000000 0.000000 
0.000000 0.000000 
0.000000 0.000005 
-0.000427 0.014683 
0.000000 0.000000 
0.000000 0.000000 
0.000427 0.019324 
0.000000 0.000243 
0.000000 0.000000 
0.000000 0.000000 
0.000000 0.000000 
0.000000 0.043056 
-0.000000 0.026082 
-0.000427 0.044427 
-0.000427 0.034898 
-0.000000 0.063553 
0.000000 0.002455 
0.000000 0.000000 
-0.000427 0.019324 
0.000000 0.000000 
0.000000 0.000243 
0.000000 0.026082 
0.000427 0.034898 
0.000000 0.000000 
0.000000 0.000000 
0.000000 0.000000 
0.000000 0.000000 
0.000000 0.000000 
0.000000 0.002455 
0.000427 0.044427 
0.000000 0.000003 
0.000000 0.000000 
0.000000 0.050673 
0.000000 0.009485 
0.000000 0.000000 
0.000000 0.000145 
0.000000 0.000407 
0.000000 0.078063 
0.000427 0.046096 
0.000000 0.000000 
0.000427 0.023631 
0.000000 0.032115 
0.000000 0.007921 
0.000000 0.000000 
-0.000000 0.050673 
0.000000 0.000003 
0.000000 0.009485 
-0.000427 0.046096 
-0.000427 0.023631 
0.000000 0.000000 
0.000000 0.000145 
0.000000 0.000000 
0.000000 0.000407 
0.000000 0.000000 
0.000000 0.007921 
-0.000000 0.000000 

CELL_DATA 192

SCALARS epsilon float 4
LOOKUP_TABLE default
0.000000 0.000000 0.000000 0.000000
0.000000 0.000000 0.000000 0.000000
0.000000 0.000000 0.000000 0.000000
0.000000 0.000000 0.000000 0.000000
0.000165 -0.004102 0.000000 0.047404
-0.001713 0.000001 0.000000 0.020157
-0.000000 0.000000 0.000000 0.022247
-0.001644 -0.004198 0.000000 0.019382
0.000000 0.000000 0.000000 0.000000
0.000000 0.000000 0.000000 0.000000
0.000000 0.000000 0.000000 0.000000
0.000000 0.000000 0.000000 0.000000
0.000000 0.000000 0.000000 0.000000
0.000000 0.000001 0.000000 0.000000
0.000000 0.000000 0.000000 0.000000
0.000000 0.000000 0.000000 0.000000
0.001707 -0.015986 0.000000 0.042926
0.001707 -0.003313 0.000000 0.040218
-0.001713 0.001034 0.000000 0.020654
0.001707 0.001034 0.000000 0.042207
-0.001713 0.016442 0.000000 0.042592
0.001608 0.011300 0.000000 0.029734
-0.000000 0.006838 0.000000 0.040359
-0.000137 0.011262 0.000000 0.041024
0.000000 0.000000 0.000000 0.000000
0.000000 0.000021 0.000000 0.000011
0.000000 0.000167 0.000000 0.000095
0.000000 0.000000 0.000000 0.000011
0.001571 0.005751 0.000000 0.040704
0.000000 0.000167 0.000000 0.023586
-0.001713 0.000021 0.000000 0.020675
-0.000080 0.005806 0.000000 0.024303
0.000000 -0.015986 0.000000 -0.048834
0.000076 -0.004191 0.000000 -0.021482
0.001707 -0.003313 0.000000 -0.042390
0.001852 -0.004122 0.000000 -0.041567
0.000000 0.000000 0.000000 0.000000
0.000000 0.000001 0.000000 -0.000000
0.000000 0.000000 0.000000 0.000000
0.000000 0.000000 0.000000 -0.000000
-0.000000 0.016442 0.000000 -0.039968
0.001707 0.006838 0.000000 -0.039812
-0.001783 0.005816 0.000000 -0.021406
-0.000138 0.005749 0.000000 -0.041253
-0.001713 0.000000 0.000000 -0.020157
-0.001713 0.000001 0.000000 -0.020675
0.001707 0.001034 0.000000 -0.040044
-0.001713 0.001034 0.000000 -0.020136
0.000000 0.000000 0.000000 0.000000
0.000000 0.000000 0.000000 0.000000
0.000000 0.000000 0.000000 -0.000000
0.000000 0.000000 0.000000 0.000000
0.000000 0.000000 0.000000 0.000000
0.000000 0.000000 0.000000 -0.000095
0.000000 0.000000 0.000000 0.000000
0.000000 0.000000 0.000000 0.000000
-0.001860 0.011253 0.000000 -0.043664
0.000000 0.000021 0.000000 -0.023589
0.001707 0.000167 0.000000 -0.029216
-0.000080 0.011319 0.000000 -0.024168
0.000000 0.000000 0.000000 0.000000
0.000000 0.000167 0.000000 -0.000011
0.000000 0.000021 0.000000 -0.000000
0.000000 0.000000 0.000000 -0.000011
0.000000 0.000000 0.000000 0.000000
0.000000 0.000000 0.000000 0.000095
0.000000 0.000000 0.000000 0.000000
0.000000 0.000000 0.000000 0.000000
-0.001713 0.018226 0.000000 0.042515
0.001707 0.002543 0.000000 0.038000
0.001707 0.000781 0.000000 0.029198
0.001707 0.018226 0.000000 0.037403
0.000000 0.000000 0.000000 0.000000
0.000000 0.000000 0.000000 0.000000
0.000000 0.000000 0.000000 0.001760
0.000000 0.000000 0.000000 0.000000
0.000000 0.000781 0.000000 0.000485
0.000000 0.002543 0.000000 0.001755
0.000000 0.000000 0.000000 0.000000
0.000000 0.000000 0.000000 0.000485
-0.001713 0.026320 0.000000 0.046294
0.000000 0.035982 0.000000 0.050717
0.000168 0.026485 0.000000 0.048237
-0.001554 0.026475 0.000000 0.045453
0.001707 0.040195 0.000000 0.056716
-0.001713 0.036715 0.000000 0.075236
0.001707 0.042756 0.000000 0.054766
0.001707 0.036715 0.000000 0.055112
0.000000 0.000000 0.000000 0.000000
0.000000 0.006259 0.000000 0.004879
0.000000 0.011808 0.000000 0.010755
0.000000 0.000000 0.000000 0.004909
0.000174 0.034232 0.000000 0.049983
-0.001713 0.011808 0.000000 0.064231
-0.000000 0.006259 0.000000 0.050089
-0.001498 0.034272 0.000000 0.061944
-0.001713 0.026320 0.000000 -0.042165
0.001707 0.018226 0.000000 -0.028688
-0.001713 0.035982 0.000000 -0.045834
-0.001713 0.018226 0.000000 -0.046678
0.000000 0.000000 0.000000 0.000000
0.000000 0.002543 0.000000 -0.000484
0.000000 0.000781 0.000000 -0.000095
0.000000 0.000000 0.000000 -0.000485
0.001707 0.040195 0.000000 -0.054913
0.000000 0.042756 0.000000 -0.050361
0.000166 0.034225 0.000000 -0.047853
0.001896 0.034247 0.000000 -0.054429
0.001707 0.000781 0.000000 -0.038067
-0.000000 0.002543 0.000000 -0.050276
0.000175 0.026492 0.000000 -0.050384
0.001834 0.026445 0.000000 -0.036259
0.000000 0.000000 0.000000 0.000000
0.000000 0.000000 0.000000 0.000000
0.000000 0.000000 0.000000 -0.001760
0.000000 0.000000 0.000000 0.000000
0.000000 0.000000 0.000000 0.000000
0.000000 0.000000 0.000000 -0.010884
0.000000 0.000000 0.000000 0.000000
0.000000 0.000000 0.000000 0.000000
0.001707 0.036715 0.000000 -0.056921
-0.001713 0.006259 0.000000 -0.064592
-0.001713 0.011808 0.000000 -0.077182
-0.001713 0.036715 0.000000 -0.062612
0.000000 0.000000 0.000000 0.000000
0.000000 0.011808 0.000000 -0.004851
0.000000 0.006259 0.000000 -0.001749
0.000000 0.000000 0.000000 -0.004909
0.000000 0.000000 0.000000 0.000000
0.000000 0.000012 0.000000 0.010884
0.000000 0.000000 0.000000 0.000006
0.000000 0.000012 0.000000 0.000006
0.001510 0.024181 0.000000 0.058495
0.000000 0.009847 0.000000 0.081565
-0.001713 0.015914 0.000000 0.076861
-0.000275 0.024105 0.000000 0.081224
0.000000 0.000000 0.000000 0.000815
0.000000 0.000000 0.000000 0.000291
0.000000 0.001047 0.000000 0.023626
0.000000 0.001047 0.000000 0.000814
0.000000 0.015914 0.000000 0.018662
0.000000 0.009847 0.000000 0.023418
0.000000 0.000569 0.000000 0.000291
0.000000 0.000569 0.000000 0.018953
-0.000000 0.015901 0.000000 0.053909
-0.001713 -0.049101 0.000000 0.042595
0.001470 -0.018891 0.000000 0.070290
-0.000191 -0.018843 0.000000 0.056683
0.000000 -0.147394 0.000000 0.000000
0.000000 -0.104393 0.000000 -0.000944
-0.001713 -0.158732 0.000000 0.019694
-0.001649 -0.104322 0.000000 0.017823
0.000000 -0.001633 0.000000 0.000000
0.000000 -0.016467 0.000000 0.015274
0.000000 -0.032720 0.000000 0.000000
0.000000 -0.001633 0.000000 0.015051
-0.001713 -0.098730 0.000000 0.044610
0.001707 -0.032720 0.000000 0.032394
0.001707 -0.016467 0.000000 0.069255
0.001707 -0.098730 0.000000 0.034464
0.001707 0.015901 0.000000 -0.058151
-0.001974 0.024119 0.000000 -0.077056
-0.000000 -0.049101 0.000000 -0.057469
-0.000183 0.024195 0.000000 -0.054289
0.000000 0.000012 0.000000 0.000000
0.000000 0.009847 0.000000 -0.018777
0.000000 0.015914 0.000000 -0.010711
0.000000 0.000012 0.000000 -0.018963
-0.001713 -0.147394 0.000000 -0.019501
-0.001713 -0.158732 0.000000 -0.047046
0.001707 -0.098730 0.000000 -0.074860
-0.001713 -0.098730 0.000000 -0.018674
0.000000 0.015914 0.000000 -0.081065
0.001707 0.009847 0.000000 -0.067463
-0.001855 -0.018793 0.000000 -0.042237
-0.000287 -0.018941 0.000000 -0.084807
0.000000 0.000000 0.000000 -0.000006
0.000000 0.000000 0.000000 -0.000291
0.000000 0.000569 0.000000 -0.023638
0.000000 0.000569 0.000000 -0.000006
0.000000 0.000000 0.000000 0.000000
0.000000 -0.001633 0.000000 0.000000
0.000000 0.000000 0.000000 -0.000815
0.000000 -0.001633 0.000000 -0.000816
0.000000 -0.104393 0.000000 0.000944
0.001707 -0.016467 0.000000 -0.031884
0.000000 -0.032720 0.000000 0.000000
0.001825 -0.104262 0.000000 -0.033695
0.000000 0.001047 0.000000 -0.000290
0.000000 -0.032720 0.000000 -0.015519
0.000000 -0.016467 0.000000 -0.024041
0.000000 0.001047 0.000000 -0.015011

SCALARS sigma float 4
LOOKUP_TABLE default
0.000000 0.000000 0.000000 0.000000
0.000000 0.000000 0.000000 0.000000
0.000000 0.000000 0.000000 0.000000
0.000000 0.000000 0.000000 0.000000
-0.021441 -0.054262 -0.022711 0.364645
-0.023052 -0.009869 -0.009876 0.155055
0.000000 0.000000 0.000000 0.171133
-0.046343 -0.065992 -0.033700 0.149090
0.000000 0.000000 0.000000 0.000000
0.000000 0.000000 0.000000 0.000000
0.000000 0.000000 0.000000 0.000004
0.000000 0.000000 0.000000 0.000000
0.000000 0.000000 0.000000 0.000000
0.000006 0.000013 0.000006 0.000004
0.000000 0.000000 0.000000 0.000000
0.000000 0.000000 0.000000 0.000000
-0.069248 -0.205348 -0.082379 0.330198
0.003868 -0.034744 -0.009263 0.309372
-0.017092 0.004038 -0.003916 0.158875
0.028945 0.023769 0.015814 0.324667
0.071799 0.211450 0.084975 0.327634
0.086843 0.161392 0.074471 0.228725
0.039453 0.092056 0.039453 0.310451
0.063122 0.150807 0.064179 0.315571
0.000000 0.000000 0.000000 0.000000
0.000120 0.000281 0.000120 0.000084
0.000965 0.002253 0.000965 0.000728
0.000000 0.000000 0.000000 0.000084
0.054324 0.086475 0.042240 0.313106
0.000965 0.002253 0.000965 0.181430
-0.022938 -0.009601 -0.009762 0.159036
0.032418 0.077699 0.033035 0.186945
-0.092227 -0.215196 -0.092227 -0.375643
-0.023148 -0.055972 -0.023736 -0.165246
0.003868 -0.034744 -0.009263 -0.326079
0.001150 -0.044801 -0.013095 -0.319750
0.000000 0.000000 0.000000 0.000000
0.000006 0.000013 0.000006 -0.000000
0.000000 0.000000 0.000000 0.000000
0.000000 0.000000 0.000000 -0.000000
0.094857 0.221332 0.094857 -0.307449
0.062432 0.101904 0.049301 -0.306242
0.009549 0.068007 0.023267 -0.164664
0.031306 0.076589 0.032368 -0.317330
-0.023058 -0.009882 -0.009882 -0.155055
-0.023052 -0.009869 -0.009876 -0.159039
0.028945 0.023769 0.015814 -0.308032
-0.017092 0.004038 -0.003916 -0.154895
0.000000 0.000000 0.000000 0.000000
0.000000 0.000000 0.000000 0.000000
0.000000 0.000000 0.000000 -0.000004
0.000000 0.000000 0.000000 0.000000
0.000000 0.000000 0.000000 0.000000
0.000000 0.000000 0.000000 -0.000728
0.000000 0.000000 0.000000 0.000000
0.000000 0.000000 0.000000 0.000000
0.039887 0.140751 0.054192 -0.335876
0.000120 0.000281 0.000120 -0.181456
0.023945 0.012101 0.010814 -0.224736
0.064226 0.151907 0.064840 -0.185908
0.000000 0.000000 0.000000 0.000000
0.000965 0.002253 0.000965 -0.000084
0.000120 0.000281 0.000120 -0.000004
0.000000 0.000000 0.000000 -0.000084
0.000000 0.000000 0.000000 0.000000
0.000000 0.000000 0.000000 0.000728
0.000000 0.000000 0.000000 0.000000
0.000000 0.000000 0.000000 0.000000
0.082094 0.235471 0.095270 0.327039
0.037649 0.044078 0.024518 0.292310
0.027482 0.020355 0.014351 0.224598
0.128131 0.255202 0.115000 0.287714
0.000000 0.000000 0.000000 0.000000
0.000000 0.000000 0.000000 0.000000
0.000000 0.000000 0.000000 0.013537
0.000000 0.000000 0.000000 0.000000
0.004503 0.010507 0.004503 0.003729
0.014670 0.034229 0.014670 0.013502
0.000000 0.000000 0.000000 0.000000
0.000000 0.000000 0.000000 0.003732
0.128788 0.344425 0.141964 0.356105
0.207589 0.484374 0.207589 0.390130
0.155055 0.357492 0.153764 0.371052
0.131819 0.347432 0.143775 0.349635
0.254875 0.550938 0.241744 0.436274
0.188762 0.484365 0.201938 0.578741
0.269649 0.585412 0.256518 0.421277
0.234799 0.504095 0.221668 0.423935
0.000000 0.000000 0.000000 0.000000
0.036112 0.084262 0.036112 0.037527
0.068123 0.158954 0.068123 0.082733
0.000000 0.000000 0.000000 0.037763
0.199833 0.461821 0.198496 0.384487
0.045065 0.149072 0.058241 0.494086
0.036112 0.084262 0.036112 0.385297
0.177559 0.452710 0.189080 0.476492
0.128788 0.344425 0.141964 -0.324343
0.128131 0.255202 0.115000 -0.220677
0.184531 0.474492 0.197707 -0.352571
0.082094 0.235471 0.095270 -0.359065
0.000000 0.000000 0.000000 0.000000
0.014670 0.034229 0.014670 -0.003723
0.004503 0.010507 0.004503 -0.000727
0.000000 0.000000 0.000000 -0.003732
0.254875 0.550938 0.241744 -0.422404
0.246670 0.575564 0.246670 -0.387389
0.199694 0.461685 0.198414 -0.368102
0.223097 0.471953 0.208515 -0.418681
0.027482 0.020355 0.014351 -0.292826
0.014670 0.034229 0.014670 -0.386738
0.155195 0.357630 0.153848 -0.387568
0.177249 0.366565 0.163144 -0.278914
0.000000 0.000000 0.000000 0.000000
0.000000 0.000000 0.000000 0.000000
0.000000 0.000000 0.000000 -0.013537
0.000000 0.000000 0.000000 0.000000
0.000000 0.000000 0.000000 0.000000
0.000000 0.000000 0.000000 -0.083722
0.000000 0.000000 0.000000 0.000000
0.000000 0.000000 0.000000 0.000000
0.234799 0.504095 0.221668 -0.437856
0.013054 0.074380 0.026230 -0.496860
0.045065 0.149072 0.058241 -0.593705
0.188762 0.484365 0.201938 -0.481632
0.000000 0.000000 0.000000 0.000000
0.068123 0.158954 0.068123 -0.037317
0.036112 0.084262 0.036112 -0.013452
0.000000 0.000000 0.000000 -0.037763
0.000000 0.000000 0.000000 0.000000
0.000068 0.000159 0.000068 0.083721
0.000000 0.000000 0.000000 0.000045
0.000068 0.000159 0.000068 0.000045
0.159836 0.334228 0.148219 0.449960
0.056807 0.132549 0.056807 0.627421
0.068755 0.204348 0.081931 0.591238
0.135368 0.322909 0.137483 0.624804
0.000000 0.000000 0.000000 0.006269
0.000000 0.000000 0.000000 0.002236
0.006042 0.014099 0.006042 0.181741
0.006042 0.014099 0.006042 0.006262
0.091813 0.214230 0.091813 0.143553
0.056807 0.132549 0.056807 0.180140
0.003285 0.007664 0.003285 0.002235
0.003285 0.007664 0.003285 0.145792
0.091738 0.214055 0.091738 0.414682
-0.306331 -0.670853 -0.293155 0.327654
-0.089195 -0.245815 -0.100503 0.540694
-0.111280 -0.254758 -0.109811 0.436023
-0.850350 -1.984149 -0.850350 0.000000
-0.602269 -1.405295 -0.602269 -0.007263
-0.938820 -2.146661 -0.925644 0.151493
-0.624052 -1.413851 -0.611371 0.137104
-0.009419 -0.021977 -0.009419 0.000000
-0.095001 -0.221668 -0.095001 0.117495
-0.188771 -0.440466 -0.188771 0.000000
-0.009419 -0.021977 -0.009419 0.115780
-0.592653 -1.338936 -0.579477 0.343154
-0.165792 -0.430618 -0.178923 0.249182
-0.072021 -0.211820 -0.085152 0.532734
-0.546616 -1.319206 -0.559746 0.265109
0.114717 0.223903 0.101586 -0.447317
0.112577 0.313294 0.127761 -0.592738
-0.283273 -0.660971 -0.283273 -0.442072
0.137127 0.324650 0.138533 -0.417604
0.000068 0.000159 0.000068 0.000000
0.056807 0.132549 0.056807 -0.144438
0.091813 0.214230 0.091813 -0.082389
0.000068 0.000159 0.000068 -0.145873
-0.873408 -1.994031 -0.860232 -0.150010
-0.938820 -2.146661 -0.925644 -0.361894
-0.546616 -1.319206 -0.559746 -0.575848
-0.592653 -1.338936 -0.579477 -0.143648
0.091813 0.214230 0.091813 -0.623576
0.079786 0.142397 0.066655 -0.518943
-0.133385 -0.263679 -0.119119 -0.324900
-0.113140 -0.256632 -0.110932 -0.652364
0.000000 0.000000 0.000000 -0.000045
0.000000 0.000000 0.000000 -0.002236
0.003285 0.007664 0.003285 -0.181828
0.003285 0.007664 0.003285 -0.000045
0.000000 0.000000 0.000000 0.000000
-0.009419 -0.021977 -0.009419 0.000000
0.000000 0.000000 0.000000 -0.006269
-0.009419 -0.021977 -0.009419 -0.006279
-0.602269 -1.405295 -0.602269 0.007263
-0.072021 -0.211820 -0.085152 -0.245260
-0.188771 -0.440466 -0.188771 0.000000
-0.576943 -1.393003 -0.590984 -0.259194
0.006042 0.014099 0.006042 -0.002234
-0.188771 -0.440466 -0.188771 -0.119373
-0.095001 -0.221668 -0.095001 -0.184927
0.006042 0.014099 0.006042 -0.115470

