# vtk DataFile Version 2.0
Unstructured Grid Example
ASCII
DATASET UNSTRUCTURED_GRID

POINTS 6305 float
-1.000000 0.000000 0.000000 
0.000000 0.035156 0.000000 
1.000000 0.000000 0.000000 
-1.000000 1.000000 0.000000 
0.000000 1.036298 0.000000 
1.000000 1.000000 0.000000 
-1.000000 2.000000 0.000000 
0.000000 2.074023 0.000000 
1.000000 2.000000 0.000000 
-1.000000 3.000000 0.000000 
0.000000 3.000000 0.000000 
1.000000 3.000000 0.000000 
-0.500000 0.000000 0.000000 
-0.500000 0.500000 0.000000 
-1.000000 0.500000 0.000000 
0.000000 0.530397 0.000000 
-0.500000 1.000047 0.000000 
0.500000 0.000000 0.000000 
0.500000 0.500000 0.000000 
1.000000 0.500000 0.000000 
0.500000 1.000047 0.000000 
-0.500000 1.500880 0.000000 
-1.000000 1.500000 0.000000 
0.000000 1.552387 0.000000 
-0.500000 2.005442 0.000000 
0.500000 1.500880 0.000000 
1.000000 1.500000 0.000000 
0.500000 2.005442 0.000000 
-0.500000 2.511971 0.000000 
-1.000000 2.500000 0.000000 
0.000000 2.566362 0.000000 
-0.500000 3.000000 0.000000 
0.500000 2.511971 0.000000 
1.000000 2.500000 0.000000 
0.500000 3.000000 0.000000 
-0.750000 0.000000 0.000000 
-0.750000 0.250000 0.000000 
-1.000000 0.250000 0.000000 
-0.250427 0.260061 0.000000 
-0.500000 0.250000 0.000000 
-0.250000 0.011124 0.000000 
-1.000000 0.750000 0.000000 
-0.750000 0.500000 0.000000 
-0.750000 0.750000 0.000000 
0.000000 0.281223 0.000000 
-0.250427 0.510320 0.000000 
-0.249573 1.014683 0.000000 
-0.250000 0.761800 0.000000 
0.000000 0.782119 0.000000 
-0.500000 0.750005 0.000000 
-0.750000 1.000000 0.000000 
0.250000 0.011124 0.000000 
0.250427 0.260061 0.000000 
0.750000 0.250000 0.000000 
0.500000 0.250000 0.000000 
0.750000 0.000000 0.000000 
0.250427 0.510320 0.000000 
0.250000 0.761800 0.000000 
1.000000 0.250000 0.000000 
0.750000 0.500000 0.000000 
0.750000 1.000000 0.000000 
0.750000 0.750000 0.000000 
1.000000 0.750000 0.000000 
0.500000 0.750005 0.000000 
0.249573 1.014683 0.000000 
-0.750000 1.250000 0.000000 
-1.000000 1.250000 0.000000 
-0.249573 1.269324 0.000000 
-0.500000 1.250243 0.000000 
-1.000000 1.750000 0.000000 
-0.750000 1.500000 0.000000 
-0.750000 1.750000 0.000000 
0.000000 1.293056 0.000000 
-0.250000 1.526082 0.000000 
-0.250427 2.044427 0.000000 
-0.250427 1.784898 0.000000 
0.000000 1.813553 0.000000 
-0.500000 1.752455 0.000000 
-0.750000 2.000000 0.000000 
0.249573 1.269324 0.000000 
0.750000 1.250000 0.000000 
0.500000 1.250243 0.000000 
0.250000 1.526082 0.000000 
0.250427 1.784898 0.000000 
1.000000 1.250000 0.000000 
0.750000 1.500000 0.000000 
0.750000 2.000000 0.000000 
0.750000 1.750000 0.000000 
1.000000 1.750000 0.000000 
0.500000 1.752455 0.000000 
0.250427 2.044427 0.000000 
-0.750000 2.250003 0.000000 
-1.000000 2.250000 0.000000 
-0.250000 2.300673 0.000000 
-0.500000 2.259485 0.000000 
-1.000000 2.750000 0.000000 
-0.750000 2.500145 0.000000 
-0.750000 2.750407 0.000000 
0.000000 2.328063 0.000000 
-0.249573 2.546096 0.000000 
-0.250000 3.000000 0.000000 
-0.249573 2.773631 0.000000 
0.000000 2.782115 0.000000 
-0.500000 2.757921 0.000000 
-0.750000 3.000000 0.000000 
0.250000 2.300673 0.000000 
0.750000 2.250003 0.000000 
0.500000 2.259485 0.000000 
0.249573 2.546096 0.000000 
0.249573 2.773631 0.000000 
1.000000 2.250000 0.000000 
0.750000 2.500145 0.000000 
0.750000 3.000000 0.000000 
0.750000 2.750407 0.000000 
1.000000 2.750000 0.000000 
0.500000 2.757921 0.000000 
0.250000 3.000000 0.000000 
-0.875000 0.000000 0.000000 
-0.875000 0.125000 0.000000 
-1.000000 0.125000 0.000000 
-0.625000 0.125000 0.000000 
-0.750000 0.125000 0.000000 
-0.625000 0.000000 0.000000 
-1.000000 0.375000 0.000000 
-0.875000 0.250000 0.000000 
-0.875000 0.375000 0.000000 
-0.125935 0.150313 0.000000 
-0.250247 0.135407 0.000000 
-0.125000 0.027157 0.000000 
-0.500000 0.375000 0.000000 
-0.374856 0.251227 0.000000 
-0.374834 0.376302 0.000000 
-0.375000 0.001288 0.000000 
-0.374917 0.126221 0.000000 
-0.500000 0.125000 0.000000 
-1.000000 0.875000 0.000000 
-0.875000 0.750000 0.000000 
-0.875000 0.875000 0.000000 
-0.875000 0.500000 0.000000 
-0.875000 0.625000 0.000000 
-1.000000 0.625000 0.000000 
-0.625000 0.625000 0.000000 
-0.750000 0.625000 0.000000 
-0.625000 0.500000 0.000000 
-0.625000 0.250000 0.000000 
-0.625000 0.375000 0.000000 
-0.750000 0.375000 0.000000 
0.000000 0.157739 0.000000 
-0.126620 0.274207 0.000000 
-0.126620 0.523817 0.000000 
-0.126871 0.398730 0.000000 
0.000000 0.405471 0.000000 
-0.250494 0.385040 0.000000 
-0.374856 0.501452 0.000000 
-0.123380 1.029487 0.000000 
-0.124065 0.902251 0.000000 
0.000000 0.908895 0.000000 
-0.375083 0.877521 0.000000 
-0.249753 0.888047 0.000000 
-0.375144 1.003188 0.000000 
0.000000 0.655953 0.000000 
-0.125000 0.775575 0.000000 
-0.125935 0.649434 0.000000 
-0.750000 0.875000 0.000000 
-0.875000 1.000000 0.000000 
-0.500000 0.625001 0.000000 
-0.625000 0.750000 0.000000 
-0.625000 1.000000 0.000000 
-0.625000 0.875000 0.000000 
-0.500000 0.875017 0.000000 
-0.250247 0.635902 0.000000 
-0.375000 0.752035 0.000000 
-0.374917 0.626689 0.000000 
0.125000 0.027157 0.000000 
0.125935 0.150313 0.000000 
0.374917 0.126221 0.000000 
0.250247 0.135407 0.000000 
0.375000 0.001288 0.000000 
0.126620 0.274207 0.000000 
0.126871 0.398730 0.000000 
0.875000 0.125000 0.000000 
0.750000 0.125000 0.000000 
0.875000 0.000000 0.000000 
0.500000 0.375000 0.000000 
0.625000 0.250000 0.000000 
0.625000 0.375000 0.000000 
0.625000 0.000000 0.000000 
0.625000 0.125000 0.000000 
0.500000 0.125000 0.000000 
0.125000 0.775575 0.000000 
0.124065 0.902251 0.000000 
0.126620 0.523817 0.000000 
0.125935 0.649434 0.000000 
0.374917 0.626689 0.000000 
0.250247 0.635902 0.000000 
0.374856 0.501452 0.000000 
0.374856 0.251227 0.000000 
0.374834 0.376302 0.000000 
0.250494 0.385040 0.000000 
1.000000 0.125000 0.000000 
0.875000 0.250000 0.000000 
0.875000 0.500000 0.000000 
0.875000 0.375000 0.000000 
1.000000 0.375000 0.000000 
0.750000 0.375000 0.000000 
0.625000 0.500000 0.000000 
0.875000 1.000000 0.000000 
0.875000 0.875000 0.000000 
1.000000 0.875000 0.000000 
0.625000 0.875000 0.000000 
0.750000 0.875000 0.000000 
0.625000 1.000000 0.000000 
1.000000 0.625000 0.000000 
0.875000 0.750000 0.000000 
0.875000 0.625000 0.000000 
0.249753 0.888047 0.000000 
0.123380 1.029487 0.000000 
0.500000 0.625001 0.000000 
0.375000 0.752035 0.000000 
0.375144 1.003188 0.000000 
0.375083 0.877521 0.000000 
0.500000 0.875017 0.000000 
0.750000 0.625000 0.000000 
0.625000 0.750000 0.000000 
0.625000 0.625000 0.000000 
-0.875000 1.125000 0.000000 
-1.000000 1.125000 0.000000 
-0.625000 1.125000 0.000000 
-0.750000 1.125000 0.000000 
-1.000000 1.375000 0.000000 
-0.875000 1.250000 0.000000 
-0.875000 1.375000 0.000000 
-0.123129 1.157313 0.000000 
-0.249506 1.141758 0.000000 
-0.500000 1.375479 0.000000 
-0.375144 1.255274 0.000000 
-0.375083 1.381821 0.000000 
-0.375166 1.129085 0.000000 
-0.500000 1.125113 0.000000 
-1.000000 1.875000 0.000000 
-0.875000 1.750000 0.000000 
-0.875000 1.875000 0.000000 
-0.875000 1.500000 0.000000 
-0.875000 1.625000 0.000000 
-1.000000 1.625000 0.000000 
-0.625000 1.625001 0.000000 
-0.750000 1.625000 0.000000 
-0.625000 1.500000 0.000000 
-0.625000 1.250000 0.000000 
-0.625000 1.375000 0.000000 
-0.750000 1.375000 0.000000 
0.000000 1.164346 0.000000 
-0.123380 1.285757 0.000000 
-0.125000 1.544495 0.000000 
-0.124065 1.414826 0.000000 
0.000000 1.422419 0.000000 
-0.249753 1.397425 0.000000 
-0.375000 1.508789 0.000000 
-0.126620 2.065544 0.000000 
-0.126871 1.935628 0.000000 
0.000000 1.944143 0.000000 
-0.374834 1.892484 0.000000 
-0.250494 1.914744 0.000000 
-0.374856 2.021067 0.000000 
0.000000 1.682841 0.000000 
-0.126620 1.805160 0.000000 
-0.125935 1.674670 0.000000 
-0.750000 1.875000 0.000000 
-0.875000 2.000000 0.000000 
-0.500000 1.626514 0.000000 
-0.625000 1.750018 0.000000 
-0.625000 2.000294 0.000000 
-0.625000 1.875094 0.000000 
-0.500000 1.878760 0.000000 
-0.250247 1.655273 0.000000 
-0.374856 1.764146 0.000000 
-0.374917 1.636227 0.000000 
0.123129 1.157313 0.000000 
0.375166 1.129085 0.000000 
0.249506 1.141758 0.000000 
0.123380 1.285757 0.000000 
0.124065 1.414826 0.000000 
0.875000 1.125000 0.000000 
0.750000 1.125000 0.000000 
0.500000 1.375479 0.000000 
0.625000 1.250000 0.000000 
0.625000 1.375000 0.000000 
0.625000 1.125000 0.000000 
0.500000 1.125113 0.000000 
0.126620 1.805160 0.000000 
0.126871 1.935628 0.000000 
0.125000 1.544495 0.000000 
0.125935 1.674670 0.000000 
0.374917 1.636227 0.000000 
0.250247 1.655273 0.000000 
0.375000 1.508789 0.000000 
0.375144 1.255274 0.000000 
0.375083 1.381821 0.000000 
0.249753 1.397425 0.000000 
1.000000 1.125000 0.000000 
0.875000 1.250000 0.000000 
0.875000 1.500000 0.000000 
0.875000 1.375000 0.000000 
1.000000 1.375000 0.000000 
0.750000 1.375000 0.000000 
0.625000 1.500000 0.000000 
0.875000 2.000000 0.000000 
0.875000 1.875000 0.000000 
1.000000 1.875000 0.000000 
0.625000 1.875094 0.000000 
0.750000 1.875000 0.000000 
0.625000 2.000294 0.000000 
1.000000 1.625000 0.000000 
0.875000 1.750000 0.000000 
0.875000 1.625000 0.000000 
0.250494 1.914744 0.000000 
0.126620 2.065544 0.000000 
0.500000 1.626514 0.000000 
0.374856 1.764146 0.000000 
0.374856 2.021067 0.000000 
0.374834 1.892484 0.000000 
0.500000 1.878760 0.000000 
0.750000 1.625000 0.000000 
0.625000 1.750018 0.000000 
0.625000 1.625001 0.000000 
-0.875000 2.125000 0.000000 
-1.000000 2.125000 0.000000 
-0.625000 2.125689 0.000000 
-0.750000 2.125000 0.000000 
-1.000000 2.375000 0.000000 
-0.875000 2.250000 0.000000 
-0.875000 2.375000 0.000000 
-0.125935 2.194136 0.000000 
-0.250247 2.173352 0.000000 
-0.500000 2.386208 0.000000 
-0.375000 2.277384 0.000000 
-0.375083 2.403769 0.000000 
-0.374917 2.149553 0.000000 
-0.500000 2.132424 0.000000 
-1.000000 2.875000 0.000000 
-0.875000 2.750003 0.000000 
-0.875000 2.875009 0.000000 
-0.875000 2.500000 0.000000 
-0.875000 2.625000 0.000000 
-1.000000 2.625000 0.000000 
-0.625000 2.628211 0.000000 
-0.750000 2.625311 0.000000 
[...]
POINT_DATA 6305

SCALARS u_h float 2
LOOKUP_TABLE default
0.000000 0.000000 
-0.000000 0.035156 
0.000000 0.000000 
0.000000 0.000000 
0.000000 0.036298 
0.000000 0.000000 
0.000000 0.000000 
-0.000000 0.074023 
0.000000 0.000000 
0.000000 0.000000 
0.000000 0.000000 
0.000000 0.000000 
0.000000 0.000000 
0.000000 0.000000 
0.000000 0.000000 
-0.000000 0.030397 
0.000000 0.000047 
0.000000 0.000000 
0.000000 0.000000 
0.000000 0.000000 
0.000000 0.000047 
0.000000 0.000880 
0.000000 0.000000 
-0.000000 0.052387 
0.000000 0.005442 
0.000000 0.000880 
0.000000 0.000000 
0.000000 0.005442 
0.000000 0.011971 
0.000000 0.000000 
0.000000 0.066362 
0.000000 0.000000 
0.000000 0.011971 
0.000000 0.000000 
0.000000 0.000000 
0.000000 0.000000 
0.000000 0.000000 
0.000000 0.000000 
-0.000427 0.010061 
0.000000 0.000000 
-0.000000 0.011124 
0.000000 0.000000 
0.000000 0.000000 
0.000000 0.000000 
-0.000000 0.031223 
-0.000427 0.010320 
0.000427 0.014683 
0.000000 0.011800 
0.000000 0.032119 
0.000000 0.000005 
0.000000 0.000000 
0.000000 0.011124 
0.000427 0.010061 
0.000000 0.000000 
0.000000 0.000000 
0.000000 0.000000 
0.000427 0.010320 
-0.000000 0.011800 
0.000000 0.000000 
0.000000 0.000000 
0.000000 0.000000 
0.000000 0.000000 
0.000000 0.000000 
0.000000 0.000005 
-0.000427 0.014683 
0.000000 0.000000 
0.000000 0.000000 
0.000427 0.019324 
0.000000 0.000243 
0.000000 0.000000 
0.000000 0.000000 
0.000000 0.000000 
0.000000 0.043056 
-0.000000 0.026082 
-0.000427 0.044427 
-0.000427 0.034898 
-0.000000 0.063553 
0.000000 0.002455 
0.000000 0.000000 
-0.000427 0.019324 
0.000000 0.000000 
0.000000 0.000243 
0.000000 0.026082 
0.000427 0.034898 
0.000000 0.000000 
0.000000 0.000000 
0.000000 0.000000 
0.000000 0.000000 
0.000000 0.000000 
0.000000 0.002455 
0.000427 0.044427 
0.000000 0.000003 
0.000000 0.000000 
0.000000 0.050673 
0.000000 0.009485 
0.000000 0.000000 
0.000000 0.000145 
0.000000 0.000407 
0.000000 0.078063 
0.000427 0.046096 
0.000000 0.000000 
0.000427 0.023631 
0.000000 0.032115 
0.000000 0.007921 
0.000000 0.000000 
-0.000000 0.050673 
0.000000 0.000003 
0.000000 0.009485 
-0.000427 0.046096 
-0.000427 0.023631 
0.000000 0.000000 
0.000000 0.000145 
0.000000 0.000000 
0.000000 0.000407 
0.000000 0.000000 
0.000000 0.007921 
-0.000000 0.000000 
0.000000 0.000000 
0.000000 0.000000 
0.000000 0.000000 
0.000000 0.000000 
0.000000 0.000000 
0.000000 0.000000 
0.000000 0.000000 
0.000000 0.000000 
0.000000 0.000000 
-0.000935 0.025313 
-0.000247 0.010407 
-0.000000 0.027157 
0.000000 0.000000 
0.000144 0.001227 
0.000166 0.001302 
0.000000 0.001288 
0.000083 0.001221 
0.000000 0.000000 
0.000000 0.000000 
0.000000 0.000000 
0.000000 0.000000 
0.000000 0.000000 
0.000000 0.000000 
0.000000 0.000000 
0.000000 0.000000 
0.000000 0.000000 
0.000000 0.000000 
0.000000 0.000000 
0.000000 0.000000 
0.000000 0.000000 
-0.000000 0.032739 
-0.001620 0.024207 
-0.001620 0.023817 
-0.001871 0.023730 
-0.000000 0.030471 
-0.000494 0.010040 
0.000144 0.001452 
0.001620 0.029487 
0.000935 0.027251 
0.000000 0.033895 
-0.000083 0.002521 
0.000247 0.013047 
-0.000144 0.003188 
-0.000000 0.030953 
0.000000 0.025575 
-0.000935 0.024434 
0.000000 0.000000 
0.000000 0.000000 
0.000000 0.000001 
0.000000 0.000000 
0.000000 0.000000 
0.000000 0.000000 
0.000000 0.000017 
-0.000247 0.010902 
-0.000000 0.002035 
0.000083 0.001689 
0.000000 0.027157 
0.000935 0.025313 
-0.000083 0.001221 
0.000247 0.010407 
-0.000000 0.001288 
0.001620 0.024207 
0.001871 0.023730 
0.000000 0.000000 
0.000000 0.000000 
0.000000 0.000000 
0.000000 0.000000 
0.000000 0.000000 
0.000000 0.000000 
0.000000 0.000000 
0.000000 0.000000 
0.000000 0.000000 
-0.000000 0.025575 
-0.000935 0.027251 
0.001620 0.023817 
0.000935 0.024434 
-0.000083 0.001689 
0.000247 0.010902 
-0.000144 0.001452 
-0.000144 0.001227 
-0.000166 0.001302 
0.000494 0.010040 
0.000000 0.000000 
0.000000 0.000000 
0.000000 0.000000 
0.000000 0.000000 
0.000000 0.000000 
0.000000 0.000000 
0.000000 0.000000 
0.000000 0.000000 
0.000000 0.000000 
0.000000 0.000000 
0.000000 0.000000 
0.000000 0.000000 
0.000000 0.000000 
0.000000 0.000000 
0.000000 0.000000 
0.000000 0.000000 
-0.000247 0.013047 
-0.001620 0.029487 
0.000000 0.000001 
0.000000 0.002035 
0.000144 0.003188 
0.000083 0.002521 
0.000000 0.000017 
0.000000 0.000000 
0.000000 0.000000 
0.000000 0.000000 
0.000000 0.000000 
0.000000 0.000000 
0.000000 0.000000 
0.000000 0.000000 
0.000000 0.000000 
0.000000 0.000000 
0.000000 0.000000 
0.001871 0.032313 
0.000494 0.016758 
0.000000 0.000479 
-0.000144 0.005274 
-0.000083 0.006821 
-0.000166 0.004085 
0.000000 0.000113 
0.000000 0.000000 
0.000000 0.000000 
0.000000 0.000000 
0.000000 0.000000 
0.000000 0.000000 
0.000000 0.000000 
0.000000 0.000001 
0.000000 0.000000 
0.000000 0.000000 
0.000000 0.000000 
0.000000 0.000000 
0.000000 0.000000 
0.000000 0.039346 
0.001620 0.035757 
-0.000000 0.044495 
0.000935 0.039826 
0.000000 0.047419 
0.000247 0.022425 
0.000000 0.008789 
-0.001620 0.065544 
-0.001871 0.060628 
-0.000000 0.069143 
0.000166 0.017484 
-0.000494 0.039744 
0.000144 0.021067 
-0.000000 0.057841 
-0.001620 0.055160 
-0.000935 0.049670 
0.000000 0.000000 
0.000000 0.000000 
0.000000 0.001514 
0.000000 0.000018 
0.000000 0.000294 
0.000000 0.000094 
0.000000 0.003760 
-0.000247 0.030273 
0.000144 0.014146 
0.000083 0.011227 
-0.001871 0.032313 
0.000166 0.004085 
-0.000494 0.016758 
-0.001620 0.035757 
-0.000935 0.039826 
0.000000 0.000000 
0.000000 0.000000 
0.000000 0.000479 
0.000000 0.000000 
0.000000 0.000000 
0.000000 0.000000 
0.000000 0.000113 
0.001620 0.055160 
0.001871 0.060628 
0.000000 0.044495 
0.000935 0.049670 
-0.000083 0.011227 
0.000247 0.030273 
-0.000000 0.008789 
0.000144 0.005274 
0.000083 0.006821 
-0.000247 0.022425 
0.000000 0.000000 
0.000000 0.000000 
0.000000 0.000000 
0.000000 0.000000 
0.000000 0.000000 
0.000000 0.000000 
0.000000 0.000000 
0.000000 0.000000 
0.000000 0.000000 
0.000000 0.000000 
0.000000 0.000094 
0.000000 0.000000 
0.000000 0.000294 
0.000000 0.000000 
0.000000 0.000000 
0.000000 0.000000 
0.000494 0.039744 
0.001620 0.065544 
0.000000 0.001514 
-0.000144 0.014146 
-0.000144 0.021067 
-0.000166 0.017484 
0.000000 0.003760 
0.000000 0.000000 
0.000000 0.000018 
0.000000 0.000001 
0.000000 0.000000 
0.000000 0.000000 
0.000000 0.000689 
0.000000 0.000000 
0.000000 0.000000 
0.000000 0.000000 
0.000000 0.000000 
-0.000935 0.069136 
-0.000247 0.048352 
0.000000 0.011208 
-0.000000 0.027384 
-0.000083 0.028769 
0.000083 0.024553 
0.000000 0.007424 
0.000000 0.000000 
0.000000 0.000003 
0.000000 0.000009 
0.000000 0.000000 
0.000000 0.000000 
0.000000 0.000000 
0.000000 0.003211 
0.000000 0.000311 
0.000000 0.002864 
0.000000 0.001311 
0.000000 0.002105 
0.000000 0.000038 
-0.000000 0.077362 
0.000000 0.070371 
0.001620 0.060769 
0.000935 0.068004 
0.000000 0.074827 
0.000247 0.050311 
-0.000144 0.027741 
0.000000 0.000000 
0.000935 0.010455 
0.000000 0.011197 
-0.000083 0.005767 
0.000247 0.008451 
-0.000000 0.000000 
0.000000 0.051881 
0.001620 0.029809 
0.001871 0.047844 
0.000000 0.000255 
0.000000 0.000000 
0.000000 0.011042 
0.000000 0.002703 
0.000000 0.000000 
0.000000 0.001228 
0.000000 0.003150 
0.000494 0.037136 
-0.000144 0.015530 
-0.000166 0.023407 
0.000935 0.069136 
-0.000083 0.024553 
0.000247 0.048352 
-0.000000 0.070371 
-0.000935 0.068004 
0.000000 0.000000 
0.000000 0.000000 
0.000000 0.011208 
0.000000 0.001311 
0.000000 0.002105 
0.000000 0.000689 
0.000000 0.007424 
-0.001620 0.029809 
-0.000935 0.010455 
-0.001620 0.060769 
-0.001871 0.047844 
0.000166 0.023407 
-0.000494 0.037136 
0.000144 0.027741 
0.000000 0.027384 
0.000083 0.028769 
-0.000247 0.050311 
0.000000 0.000000 
0.000000 0.000000 
0.000000 0.000000 
0.000000 0.000000 
0.000000 0.000000 
0.000000 0.000038 
0.000000 0.002864 
0.000000 0.000000 
0.000000 0.000009 
0.000000 0.000000 
0.000000 0.001228 
0.000000 0.000255 
0.000000 0.000000 
0.000000 0.000000 
0.000000 0.000003 
0.000000 0.000000 
-0.000247 0.008451 
-0.000000 0.000000 
0.000000 0.011042 
0.000144 0.015530 
0.000000 0.000000 
0.000083 0.005767 
0.000000 0.003150 
0.000000 0.000311 
0.000000 0.002703 
0.000000 0.003211 
0.000000 0.000000 
0.000000 0.000000 
0.000000 0.000000 
0.000000 0.000000 
0.000000 0.000000 
0.000000 0.000000 
0.000000 0.000000 
0.000000 0.000000 
0.000000 0.000000 
0.000000 0.000000 
0.000000 0.000000 
0.000000 0.000000 
0.000000 0.000000 
0.000000 0.000000 
0.000000 0.000000 
0.000000 0.000000 
0.000000 0.000000 
0.000000 0.000000 
0.000000 0.000000 
0.000000 0.000000 
0.000000 0.000000 
0.000000 0.000000 
0.000000 0.000000 
0.000000 0.000000 
0.000000 0.000000 
0.000000 0.000000 
0.000000 0.000000 
0.000000 0.000000 
0.000000 0.000000 
0.000000 0.000000 
-0.000343 0.031761 
-0.000484 0.026134 
-0.000000 0.033010 
-0.000349 0.010191 
-0.000706 0.017897 
-0.000999 0.017475 
-0.000000 0.019175 
-0.000366 0.018459 
-0.000128 0.010714 
0.000000 0.000000 
0.003893 0.000134 
0.003760 0.000152 
0.003371 0.000112 
0.003760 0.000122 
0.000000 0.000000 
-0.000013 0.004478 
0.000160 0.001256 
-0.000011 0.004459 
0.000000 0.000106 
0.001008 0.000103 
0.000000 0.000000 
-0.000003 0.004674 
0.000043 0.001245 
-0.000000 0.004848 
0.000000 0.000000 
0.001947 0.000103 
0.002753 0.000106 
-0.000009 0.004484 
0.000117 0.001215 
-0.000007 0.004555 
0.000000 0.000000 
0.000000 0.000000 
0.000000 0.000000 
0.000000 0.000000 
0.000000 0.000000 
0.000000 0.000000 
0.000000 0.000000 
0.000000 0.000000 
0.000000 0.000000 
0.000000 0.000000 
0.000000 0.000000 
0.000000 0.000000 
0.000000 0.000000 
0.000000 0.000000 
0.000000 0.000000 
0.000000 0.000000 
0.000000 0.000000 
0.000000 0.000000 
0.000000 0.000000 
0.000000 0.000000 
0.000000 0.000000 
0.000000 0.000000 
0.000000 0.000000 
0.000000 0.000000 
0.000000 0.000000 
0.000000 0.000000 
0.000000 0.000000 
0.000000 0.000000 
0.000000 0.000000 
0.000000 0.000000 
0.000000 0.000000 
0.000000 0.000000 
0.000000 0.000000 
0.000000 0.000000 
0.000000 0.000000 
0.000000 0.000000 
0.000000 0.000000 
0.000000 0.000000 
0.000000 0.000000 
0.000000 0.000000 
0.000000 0.000000 
0.000000 0.000000 
0.000000 0.000000 
0.000000 0.000000 
0.000000 0.000000 
0.000000 0.000000 
0.000000 0.000000 
0.000000 0.000000 
-0.000000 0.033824 
-0.000662 0.030747 
-0.001146 0.029342 
-0.000936 0.029947 
-0.000000 0.031878 
-0.001323 0.024676 
-0.001223 0.017183 
-0.001146 0.028638 
-0.001279 0.028575 
-0.000000 0.030353 
-0.001364 0.017006 
-0.001807 0.023706 
-0.001223 0.017166 
-0.000000 0.030758 
-0.001324 0.028666 
-0.001279 0.028919 
0.000160 0.001367 
0.003371 0.000174 
-0.000477 0.010012 
-0.000013 0.004540 
-0.000011 0.004795 
-0.000013 0.004646 
-0.000477 0.010143 
-0.001807 0.023895 
-0.001412 0.016954 
-0.001364 0.017012 
0.001146 0.034495 
0.000936 0.033236 
0.000000 0.035017 
0.000999 0.021315 
0.001323 0.028297 
0.001223 0.022377 
0.000000 0.032930 
0.000662 0.032131 
0.000343 0.031179 
-0.002753 0.000618 
-0.000117 0.002829 
-0.003371 0.000756 
0.000128 0.012378 
0.000007 0.006758 
0.000003 0.006284 
0.000011 0.007926 
0.000009 0.007303 
0.000349 0.013813 
-0.000000 0.030598 
-0.000662 0.029214 
-0.000936 0.028852 
0.000000 0.030377 
-0.000343 0.029722 
-0.000000 0.031460 
-0.000366 0.018278 
-0.000484 0.024939 
0.000000 0.018865 
0.000706 0.020379 
0.000366 0.019563 
0.000484 0.026345 
0.000000 0.000000 
0.000000 0.000000 
0.000000 0.000000 
0.000000 0.000000 
0.000000 0.000000 
0.000000 0.000000 
0.000000 0.000000 
0.000000 0.000001 
0.000000 0.000000 
0.000000 0.000000 
0.000000 0.000000 
0.000000 0.000003 
0.000000 0.000000 
0.000000 0.000000 
0.000000 0.000000 
0.000000 0.000000 
0.000000 0.000029 
0.000000 0.000000 
0.000000 0.000000 
0.000000 0.000000 
0.000000 0.000010 
0.000000 0.000000 
0.000000 0.000000 
0.000000 0.000000 
0.000000 0.000000 
0.000000 0.000000 
-0.001323 0.024060 
-0.000128 0.011310 
-0.000706 0.017801 
-0.000999 0.017430 
-0.000349 0.010573 
-0.001947 0.000507 
-0.000000 0.000344 
-0.001008 0.000417 
-0.000043 0.002259 
0.000000 0.005875 
0.002753 0.000203 
-0.000009 0.004989 
0.000117 0.001558 
0.001947 0.000240 
0.001008 0.000286 
-0.000003 0.005526 
0.000043 0.001847 
-0.000007 0.005232 
0.000000 0.033010 
0.000343 0.031761 
0.000366 0.018459 
0.000484 0.026134 
0.000000 0.019175 
0.000662 0.030747 
0.000936 0.029947 
-0.001008 0.000103 
-0.000043 0.001245 
-0.000000 0.000106 
0.000349 0.010191 
0.000007 0.004555 
0.000009 0.004484 
0.000000 0.004848 
0.000003 0.004674 
0.000128 0.010714 
0.001324 0.028666 
0.001279 0.028575 
0.001146 0.029342 
0.001279 0.028919 
0.001364 0.017012 
0.001807 0.023895 
0.001223 0.017183 
0.000706 0.017897 
0.000999 0.017475 
0.001323 0.024676 
0.000000 0.000000 
0.000000 0.000000 
0.000000 0.000000 
0.000000 0.000000 
0.000000 0.000000 
0.000000 0.000000 
0.000000 0.000000 
0.000000 0.000000 
0.000000 0.000000 
0.000000 0.000000 
0.000000 0.000000 
0.000000 0.000000 
0.000000 0.000000 
0.000000 0.000000 
0.000000 0.000000 
0.000000 0.000000 
0.000000 0.000000 
0.000000 0.000000 
0.000000 0.000000 
0.000000 0.000000 
0.000000 0.000000 
0.000000 0.000000 
0.000000 0.000000 
0.000000 0.000000 
0.000000 0.000000 
0.000000 0.000000 
0.000000 0.000000 
0.000000 0.000000 
0.000000 0.000000 
0.000000 0.000000 
-0.000662 0.032131 
-0.000936 0.033236 
-0.000000 0.030377 
-0.000343 0.031179 
-0.000366 0.019563 
-0.000484 0.026345 
-0.000000 0.018865 
0.001146 0.028638 
0.000936 0.028852 
0.000999 0.017430 
0.001323 0.024060 
0.001223 0.017166 
0.000662 0.029214 
0.000343 0.029722 
-0.002753 0.000203 
-0.000117 0.001558 
-0.003371 0.000174 
0.000128 0.011310 
0.000007 0.005232 
0.000003 0.005526 
0.000011 0.004795 
0.000009 0.004989 
0.000349 0.010573 
0.000484 0.024939 
0.000706 0.017801 
0.000366 0.018278 
-0.001947 0.000103 
-0.003371 0.000112 
-0.002753 0.000106 
-0.000117 0.001215 
0.000011 0.004459 
-0.003760 0.000152 
0.000013 0.004646 
-0.000160 0.001367 
-0.003893 0.000134 
-0.003760 0.000122 
0.001807 0.023706 
0.000477 0.010012 
0.001412 0.016954 
0.001364 0.017006 
0.000477 0.010143 
-0.000160 0.001256 
0.000013 0.004540 
0.000013 0.004478 
0.000000 0.000000 
0.000000 0.000000 
0.000000 0.000000 
0.000000 0.000000 
0.000000 0.000000 
0.000000 0.000000 
0.000000 0.000000 
0.000000 0.000000 
0.000000 0.000000 
0.000000 0.000000 
0.000000 0.000000 
0.000000 0.000000 
0.000000 0.000000 
0.000000 0.000000 
0.000000 0.000000 
0.000000 0.000000 
0.000000 0.000000 
0.000000 0.000000 
0.000000 0.000000 
0.000000 0.000000 
0.000000 0.000000 
0.000000 0.000000 
0.000000 0.000000 
0.000000 0.000000 
0.000000 0.000000 
0.000000 0.000000 
0.000000 0.000000 
0.000000 0.000000 
0.000000 0.000000 
0.000000 0.000000 
0.000000 0.000000 
0.000000 0.000000 
0.000000 0.000000 
0.000000 0.000000 
0.000000 0.000000 
0.000000 0.000000 
0.000000 0.000000 
0.000000 0.000000 
0.000000 0.000000 
0.000000 0.000000 
0.000000 0.000000 
0.000000 0.000000 
0.000000 0.000000 
0.000000 0.000000 
0.000000 0.000000 
0.000000 0.000000 
0.000000 0.000000 
0.000000 0.000000 
0.000000 0.000000 
0.000000 0.000000 
0.000000 0.000000 
0.000000 0.000000 
0.000000 0.000000 
0.000000 0.000000 
0.000000 0.000000 
0.000000 0.000000 
-0.001323 0.028297 
-0.001146 0.034495 
-0.000128 0.012378 
-0.000706 0.020379 
-0.001223 0.022377 
-0.000999 0.021315 
-0.000349 0.013813 
0.000000 0.000001 
-0.001947 0.000240 
0.000000 0.000344 
-0.001008 0.000286 
0.000000 0.000003 
-0.000043 0.001847 
-0.000000 0.005875 
0.003371 0.000756 
0.002753 0.000618 
0.000000 0.000029 
-0.000009 0.007303 
0.000117 0.002829 
-0.000011 0.007926 
0.000000 0.000010 
0.001947 0.000507 
0.001008 0.000417 
-0.000003 0.006284 
0.000043 0.002259 
-0.000007 0.006758 
0.000000 0.000000 
0.000000 0.000000 
0.000000 0.000000 
0.000000 0.000000 
0.000000 0.000000 
0.000000 0.000000 
0.000000 0.000000 
0.000000 0.000000 
0.000000 0.000000 
0.000000 0.000000 
0.000000 0.000000 
0.000000 0.000000 
0.000000 0.000000 
0.000000 0.000000 
0.000000 0.000000 
0.000000 0.000000 
0.000000 0.000000 
0.000000 0.000000 
0.000000 0.000000 
0.000000 0.000000 
0.000000 0.000000 
0.000000 0.000000 
0.000000 0.000000 
0.000000 0.000000 
0.000000 0.000000 
0.000000 0.000000 
0.000000 0.000000 
0.000000 0.000000 
0.000000 0.000000 
0.000000 0.000000 
0.000000 0.000000 
0.000000 0.000000 
0.000000 0.000000 
0.000000 0.000000 
0.000000 0.000000 
0.000000 0.000000 
0.000000 0.000000 
0.000000 0.000000 
0.000000 0.000000 
0.000000 0.000000 
0.000000 0.000000 
0.000000 0.000000 
0.000000 0.000000 
0.000000 0.000000 
0.001279 0.035912 
0.001807 0.030825 
0.000477 0.017976 
0.001412 0.024900 
0.001364 0.026370 
0.001364 0.023570 
0.000477 0.015662 
0.000000 0.000655 
-0.001947 0.002457 
-0.001008 0.002958 
-0.003371 0.001675 
-0.002753 0.002033 
0.000000 0.000344 
0.000009 0.012463 
-0.000117 0.005999 
0.000011 0.011341 
-0.003760 0.000924 
0.000000 0.000074 
0.000013 0.008634 
-0.000160 0.003604 
0.000000 0.000167 
-0.003893 0.001128 
-0.003760 0.001377 
0.000013 0.010334 
-0.000160 0.004639 
0.000013 0.009434 
0.000000 0.000000 
0.000000 0.000000 
0.000000 0.000000 
0.000000 0.000000 
0.000000 0.000000 
0.000000 0.000000 
0.000000 0.000000 
0.000000 0.000000 
0.000000 0.000000 
0.000000 0.000000 
0.000000 0.000000 
0.000000 0.000000 
0.000000 0.000000 
0.000000 0.000000 
0.000000 0.000000 
0.000000 0.000000 
0.000000 0.000000 
0.000000 0.000000 
0.000000 0.000122 
0.000000 0.000000 
0.000000 0.000068 
0.000000 0.000000 
0.000000 0.000000 
0.000000 0.000000 
0.000000 0.000000 
0.000000 0.000000 
0.000000 0.000000 
0.000000 0.000000 
0.000000 0.000000 
0.000000 0.000000 
0.000000 0.000000 
0.000000 0.000002 
0.000000 0.000000 
0.000000 0.000000 
0.000000 0.000000 
0.000000 0.000035 
0.000000 0.000000 
0.000000 0.000000 
0.000000 0.000016 
0.000000 0.000006 
0.000000 0.000000 
0.000000 0.000000 
0.000000 0.000000 
0.000000 0.000000 
0.000000 0.000000 
0.000000 0.000000 
0.000000 0.000000 
0.000000 0.000000 
0.000000 0.037740 
0.001324 0.037490 
0.001146 0.041135 
0.001279 0.039231 
0.000000 0.041118 
0.001807 0.033957 
0.001223 0.027986 
-0.000000 0.050323 
0.000343 0.047804 
0.000000 0.049833 
0.000366 0.033723 
0.000484 0.042090 
-0.000000 0.035924 
0.000000 0.045157 
0.000662 0.045427 
0.000936 0.043201 
-0.000043 0.007749 
0.000000 0.003544 
0.000349 0.020805 
0.000007 0.013706 
-0.000000 0.016576 
0.000003 0.015076 
0.000128 0.024184 
0.001323 0.037714 
0.000706 0.031663 
0.000999 0.029750 
-0.001146 0.071830 
-0.001279 0.069511 
-0.000000 0.071717 
-0.001364 0.053642 
-0.001807 0.063197 
-0.001223 0.055995 
-0.000000 0.066395 
-0.001324 0.066935 
-0.001279 0.064195 
0.003760 0.010512 
0.000160 0.019262 
0.003371 0.011888 
-0.000477 0.037313 
-0.000013 0.028039 
-0.000013 0.025907 
-0.000011 0.032304 
-0.000013 0.030189 
-0.000477 0.042137 
-0.000000 0.055064 
-0.000662 0.055710 
-0.000343 0.052966 
-0.001146 0.061371 
-0.000936 0.058525 
-0.000000 0.060685 
-0.000999 0.043257 
-0.001323 0.052392 
-0.001223 0.045870 
-0.001412 0.051120 
-0.001364 0.048508 
-0.001807 0.057925 
0.000000 0.000000 
0.000000 0.000000 
0.000000 0.000000 
0.000000 0.000000 
0.000000 0.000000 
0.000000 0.000000 
0.000000 0.000000 
0.000000 0.001163 
0.000000 0.000203 
0.000000 0.000484 
0.000000 0.000321 
0.000000 0.001942 
0.000000 0.000006 
0.000000 0.000000 
0.000000 0.001773 
0.000000 0.001341 
0.000000 0.004556 
0.000000 0.000001 
0.000000 0.000174 
0.000000 0.000006 
0.000000 0.003059 
0.000000 0.000986 
0.000000 0.000703 
0.000000 0.000000 
0.000000 0.000045 
0.000000 0.000000 
-0.000484 0.047028 
-0.000349 0.032541 
-0.000706 0.040710 
-0.000366 0.038258 
-0.000128 0.028115 
0.003893 0.009208 
0.003371 0.006889 
0.003760 0.007996 
0.000160 0.015770 
-0.000011 0.023833 
0.001008 0.004223 
-0.000003 0.018206 
0.000043 0.009947 
0.001947 0.005004 
0.002753 0.005891 
-0.000009 0.021845 
0.000117 0.012628 
-0.000007 0.019965 
-0.001279 0.035912 
-0.001364 0.023570 
-0.001807 0.030825 
-0.001324 0.037490 