# vtk DataFile Version 2.0
Unstructured Grid Example
ASCII
DATASET UNSTRUCTURED_GRID

POINTS 35 float
-1.000000 0.000000 0.000000 
0.000000 0.035156 0.000000 
1.000000 0.000000 0.000000 
-1.000000 1.000000 0.000000 
0.000000 1.036298 0.000000 
1.000000 1.000000 0.000000 
-1.000000 2.000000 0.000000 
0.000000 2.074023 0.000000 
1.000000 2.000000 0.000000 
-1.000000 3.000000 0.000000 
0.000000 3.000000 0.000000 
1.000000 3.000000 0.000000 
-0.500000 0.000000 0.000000 
-0.500000 0.500000 0.000000 
-1.000000 0.500000 0.000000 
0.000000 0.530397 0.000000 
-0.500000 1.000047 0.000000 
0.500000 0.000000 0.000000 
0.500000 0.500000 0.000000 
1.000000 0.500000 0.000000 
0.500000 1.000047 0.000000 
-0.500000 1.500880 0.000000 
-1.000000 1.500000 0.000000 
0.000000 1.552387 0.000000 
-0.500000 2.005442 0.000000 
0.500000 1.500880 0.000000 
1.000000 1.500000 0.000000 
0.500000 2.005442 0.000000 
-0.500000 2.511971 0.000000 
-1.000000 2.500000 0.000000 
0.000000 2.566362 0.000000 
-0.500000 3.000000 0.000000 
0.500000 2.511971 0.000000 
1.000000 2.500000 0.000000 
0.500000 3.000000 0.000000 

CELLS 48 192
3  0 12 14 
3  1 13 12 
3  3 14 13 
3  12 13 14 
3  1 15 13 
3  4 16 15 
3  3 13 16 
3  15 16 13 
3  1 17 15 
3  2 18 17 
3  4 15 18 
3  17 18 15 
3  2 19 18 
3  5 20 19 
3  4 18 20 
3  19 20 18 
3  3 16 22 
3  4 21 16 
3  6 22 21 
3  16 21 22 
3  4 23 21 
3  7 24 23 
3  6 21 24 
3  23 24 21 
3  4 20 23 
3  5 25 20 
3  7 23 25 
3  20 25 23 
3  5 26 25 
3  8 27 26 
3  7 25 27 
3  26 27 25 
3  6 24 29 
3  7 28 24 
3  9 29 28 
3  24 28 29 
3  7 30 28 
3  10 31 30 
3  9 28 31 
3  30 31 28 
3  7 27 30 
3  8 32 27 
3  10 30 32 
3  27 32 30 
3  8 33 32 
3  11 34 33 
3  10 32 34 
3  33 34 32 

CELL_TYPES 48
5
5
5
5
5
5
5
5
5
5
5
5
5
5
5
5
5
5
5
5
5
5
5
5
5
5
5
5
5
5
5
5
5
5
5
5
5
5
5
5
5
5
5
5
5
5
5
5

POINT_DATA 35

SCALARS u_h float 2
LOOKUP_TABLE default
0.000000 0.000000 
-0.000000 0.035156 
0.000000 0.000000 
0.000000 0.000000 
0.000000 0.036298 
0.000000 0.000000 
0.000000 0.000000 
-0.000000 0.074023 
0.000000 0.000000 
0.000000 0.000000 
0.000000 0.000000 
0.000000 0.000000 
0.000000 0.000000 
0.000000 0.000000 
0.000000 0.000000 
-0.000000 0.030397 
0.000000 0.000047 
0.000000 0.000000 
0.000000 0.000000 
0.000000 0.000000 
0.000000 0.000047 
0.000000 0.000880 
0.000000 0.000000 
-0.000000 0.052387 
0.000000 0.005442 
0.000000 0.000880 
0.000000 0.000000 
0.000000 0.005442 
0.000000 0.011971 
0.000000 0.000000 
0.000000 0.066362 
0.000000 0.000000 
0.000000 0.011971 
0.000000 0.000000 
0.000000 0.000000 

CELL_DATA 48

SCALARS epsilon float 4
LOOKUP_TABLE default
0.000000 0.000000 0.000000 0.000000
0.000000 0.000000 0.000000 0.035156
0.000000 0.000000 0.000000 0.000000
0.000000 0.000000 0.000000 0.000000
0.000000 -0.009610 0.000000 0.030689
0.000000 0.011663 0.000000 0.035828
0.000000 0.000094 0.000000 0.000047
0.000000 0.000094 0.000000 0.030394
0.000000 -0.009610 0.000000 -0.035494
0.000000 0.000000 0.000000 0.000000
0.000000 0.011663 0.000000 -0.030042
0.000000 0.000000 0.000000 -0.030397
0.000000 0.000000 0.000000 -0.000000
0.000000 0.000000 0.000000 -0.000047
0.000000 0.000094 0.000000 -0.036247
0.000000 0.000094 0.000000 -0.000000
0.000000 0.000000 0.000000 0.000047
0.000000 0.001662 0.000000 0.036190
0.000000 0.000000 0.000000 0.000880
0.000000 0.001662 0.000000 0.000878
0.000000 0.031175 0.000000 0.049901
0.000000 0.041477 0.000000 0.065737
0.000000 0.009042 0.000000 0.005393
0.000000 0.009042 0.000000 0.051041
0.000000 0.031175 0.000000 -0.035120
0.000000 0.001662 0.000000 -0.000047
0.000000 0.041477 0.000000 -0.049371
0.000000 0.001662 0.000000 -0.051421
0.000000 0.000000 0.000000 -0.000880
0.000000 0.000000 0.000000 -0.005442
0.000000 0.009042 0.000000 -0.067961
0.000000 0.009042 0.000000 -0.000872
0.000000 0.000000 0.000000 0.005442
0.000000 0.012890 0.000000 0.067697
0.000000 0.000000 0.000000 0.011971
0.000000 0.012890 0.000000 0.011817
0.000000 -0.015561 0.000000 0.055237
0.000000 -0.153035 0.000000 0.000000
0.000000 -0.024529 0.000000 0.000000
0.000000 -0.024529 0.000000 0.055725
0.000000 -0.015561 0.000000 -0.069648
0.000000 0.012890 0.000000 -0.005372
0.000000 -0.153035 0.000000 -0.062715
0.000000 0.012890 0.000000 -0.053690
0.000000 0.000000 0.000000 -0.011971
0.000000 0.000000 0.000000 0.000000
0.000000 -0.024529 0.000000 0.000000
0.000000 -0.024529 0.000000 -0.012265

SCALARS sigma float 4
LOOKUP_TABLE default
0.000000 0.000000 0.000000 0.000000
0.000003 0.000007 0.000003 0.270433
0.000000 0.000000 0.000000 0.000002
0.000003 0.000007 0.000003 0.000002
-0.055440 -0.129359 -0.055440 0.236070
0.067289 0.157008 0.067289 0.275597
0.000543 0.001267 0.000543 0.000364
0.000543 0.001267 0.000543 0.233801
-0.055440 -0.129359 -0.055440 -0.273031
0.000003 0.000007 0.000003 0.000000
0.067289 0.157008 0.067289 -0.231096
0.000003 0.000007 0.000003 -0.233823
0.000000 0.000000 0.000000 -0.000002
0.000000 0.000000 0.000000 -0.000364
0.000543 0.001267 0.000543 -0.278824
0.000543 0.001267 0.000543 -0.000002
0.000000 0.000000 0.000000 0.000364
0.009591 0.022379 0.009591 0.278386
0.000000 0.000000 0.000000 0.006768
0.009591 0.022379 0.009591 0.006757
0.179856 0.419665 0.179856 0.383856
0.239293 0.558350 0.239293 0.505666
0.052163 0.121713 0.052163 0.041482
0.052163 0.121713 0.052163 0.392625
0.179856 0.419665 0.179856 -0.270157
0.009591 0.022379 0.009591 -0.000363
0.239293 0.558350 0.239293 -0.379774
0.009591 0.022379 0.009591 -0.395549
0.000000 0.000000 0.000000 -0.006768
0.000000 0.000000 0.000000 -0.041861
0.052163 0.121713 0.052163 -0.522777
0.052163 0.121713 0.052163 -0.006707
0.000000 0.000000 0.000000 0.041861
0.074364 0.173515 0.074364 0.520747
0.000000 0.000000 0.000000 0.092084
0.074364 0.173515 0.074364 0.090897
-0.089773 -0.209471 -0.089773 0.424903
-0.882895 -2.060089 -0.882895 0.000000
-0.141514 -0.330199 -0.141514 0.000000
-0.141514 -0.330199 -0.141514 0.428655
-0.089773 -0.209471 -0.089773 -0.535756
0.074364 0.173515 0.074364 -0.041321
-0.882895 -2.060089 -0.882895 -0.482421
0.074364 0.173515 0.074364 -0.412999
0.000000 0.000000 0.000000 -0.092084
0.000000 0.000000 0.000000 0.000000
-0.141514 -0.330199 -0.141514 0.000000
-0.141514 -0.330199 -0.141514 -0.094343

