# vtk DataFile Version 2.0
Unstructured Grid Example
ASCII
DATASET UNSTRUCTURED_GRID

POINTS 12 float
-1.000000 0.000000 0.000000 
0.000000 0.035156 0.000000 
1.000000 0.000000 0.000000 
-1.000000 1.000000 0.000000 
0.000000 1.036298 0.000000 
1.000000 1.000000 0.000000 
-1.000000 2.000000 0.000000 
0.000000 2.074023 0.000000 
1.000000 2.000000 0.000000 
-1.000000 3.000000 0.000000 
0.000000 3.000000 0.000000 
1.000000 3.000000 0.000000 

CELLS 12 48
3  0 1 3 
3  1 4 3 
3  1 2 4 
3  2 5 4 
3  3 4 6 
3  4 7 6 
3  4 5 7 
3  5 8 7 
3  6 7 9 
3  7 10 9 
3  7 8 10 
3  8 11 10 

CELL_TYPES 12
5
5
5
5
5
5
5
5
5
5
5
5

POINT_DATA 12

SCALARS u_h float 2
LOOKUP_TABLE default
0.000000 0.000000 
-0.000000 0.035156 
0.000000 0.000000 
0.000000 0.000000 
0.000000 0.036298 
0.000000 0.000000 
0.000000 0.000000 
-0.000000 0.074023 
0.000000 0.000000 
0.000000 0.000000 
0.000000 0.000000 
0.000000 0.000000 

CELL_DATA 12

SCALARS epsilon float 4
LOOKUP_TABLE default
0.000000 0.000000 0.000000 0.017578
0.000000 0.001140 0.000000 0.018128
0.000000 0.001140 0.000000 -0.017558
0.000000 0.000000 0.000000 -0.018149
0.000000 0.000000 0.000000 0.018149
0.000000 0.036354 0.000000 0.035666
0.000000 0.036354 0.000000 -0.017489
0.000000 0.000000 0.000000 -0.037012
0.000000 0.000000 0.000000 0.037012
0.000000 -0.079940 0.000000 0.000000
0.000000 -0.079940 0.000000 -0.039970
0.000000 0.000000 0.000000 0.000000

SCALARS sigma float 4
LOOKUP_TABLE default
0.000000 0.000000 0.000000 0.135216
0.006578 0.015349 0.006578 0.139448
0.006578 0.015349 0.006578 -0.135062
0.000000 0.000000 0.000000 -0.139607
0.000000 0.000000 0.000000 0.139607
0.209733 0.489378 0.209733 0.274354
0.209733 0.489378 0.209733 -0.134532
0.000000 0.000000 0.000000 -0.284704
0.000000 0.000000 0.000000 0.284704
-0.461195 -1.076121 -0.461195 0.000000
-0.461195 -1.076121 -0.461195 -0.307463
0.000000 0.000000 0.000000 0.000000

