# vtk DataFile Version 2.0
Unstructured Grid Example
ASCII
DATASET UNSTRUCTURED_GRID

POINTS 425 float
-1.000000 0.000000 0.000000 
0.000000 0.035156 0.000000 
1.000000 0.000000 0.000000 
-1.000000 1.000000 0.000000 
0.000000 1.036298 0.000000 
1.000000 1.000000 0.000000 
-1.000000 2.000000 0.000000 
0.000000 2.074023 0.000000 
1.000000 2.000000 0.000000 
-1.000000 3.000000 0.000000 
0.000000 3.000000 0.000000 
1.000000 3.000000 0.000000 
-0.500000 0.000000 0.000000 
-0.500000 0.500000 0.000000 
-1.000000 0.500000 0.000000 
0.000000 0.530397 0.000000 
-0.500000 1.000047 0.000000 
0.500000 0.000000 0.000000 
0.500000 0.500000 0.000000 
1.000000 0.500000 0.000000 
0.500000 1.000047 0.000000 
-0.500000 1.500880 0.000000 
-1.000000 1.500000 0.000000 
0.000000 1.552387 0.000000 
-0.500000 2.005442 0.000000 
0.500000 1.500880 0.000000 
1.000000 1.500000 0.000000 
0.500000 2.005442 0.000000 
-0.500000 2.511971 0.000000 
-1.000000 2.500000 0.000000 
0.000000 2.566362 0.000000 
-0.500000 3.000000 0.000000 
0.500000 2.511971 0.000000 
1.000000 2.500000 0.000000 
0.500000 3.000000 0.000000 
-0.750000 0.000000 0.000000 
-0.750000 0.250000 0.000000 
-1.000000 0.250000 0.000000 
-0.250427 0.260061 0.000000 
-0.500000 0.250000 0.000000 
-0.250000 0.011124 0.000000 
-1.000000 0.750000 0.000000 
-0.750000 0.500000 0.000000 
-0.750000 0.750000 0.000000 
0.000000 0.281223 0.000000 
-0.250427 0.510320 0.000000 
-0.249573 1.014683 0.000000 
-0.250000 0.761800 0.000000 
0.000000 0.782119 0.000000 
-0.500000 0.750005 0.000000 
-0.750000 1.000000 0.000000 
0.250000 0.011124 0.000000 
0.250427 0.260061 0.000000 
0.750000 0.250000 0.000000 
0.500000 0.250000 0.000000 
0.750000 0.000000 0.000000 
0.250427 0.510320 0.000000 
0.250000 0.761800 0.000000 
1.000000 0.250000 0.000000 
0.750000 0.500000 0.000000 
0.750000 1.000000 0.000000 
0.750000 0.750000 0.000000 
1.000000 0.750000 0.000000 
0.500000 0.750005 0.000000 
0.249573 1.014683 0.000000 
-0.750000 1.250000 0.000000 
-1.000000 1.250000 0.000000 
-0.249573 1.269324 0.000000 
-0.500000 1.250243 0.000000 
-1.000000 1.750000 0.000000 
-0.750000 1.500000 0.000000 
-0.750000 1.750000 0.000000 
0.000000 1.293056 0.000000 
-0.250000 1.526082 0.000000 
-0.250427 2.044427 0.000000 
-0.250427 1.784898 0.000000 
0.000000 1.813553 0.000000 
-0.500000 1.752455 0.000000 
-0.750000 2.000000 0.000000 
0.249573 1.269324 0.000000 
0.750000 1.250000 0.000000 
0.500000 1.250243 0.000000 
0.250000 1.526082 0.000000 
0.250427 1.784898 0.000000 
1.000000 1.250000 0.000000 
0.750000 1.500000 0.000000 
0.750000 2.000000 0.000000 
0.750000 1.750000 0.000000 
1.000000 1.750000 0.000000 
0.500000 1.752455 0.000000 
0.250427 2.044427 0.000000 
-0.750000 2.250003 0.000000 
-1.000000 2.250000 0.000000 
-0.250000 2.300673 0.000000 
-0.500000 2.259485 0.000000 
-1.000000 2.750000 0.000000 
-0.750000 2.500145 0.000000 
-0.750000 2.750407 0.000000 
0.000000 2.328063 0.000000 
-0.249573 2.546096 0.000000 
-0.250000 3.000000 0.000000 
-0.249573 2.773631 0.000000 
0.000000 2.782115 0.000000 
-0.500000 2.757921 0.000000 
-0.750000 3.000000 0.000000 
0.250000 2.300673 0.000000 
0.750000 2.250003 0.000000 
0.500000 2.259485 0.000000 
0.249573 2.546096 0.000000 
0.249573 2.773631 0.000000 
1.000000 2.250000 0.000000 
0.750000 2.500145 0.000000 
0.750000 3.000000 0.000000 
0.750000 2.750407 0.000000 
1.000000 2.750000 0.000000 
0.500000 2.757921 0.000000 
0.250000 3.000000 0.000000 
-0.875000 0.000000 0.000000 
-0.875000 0.125000 0.000000 
-1.000000 0.125000 0.000000 
-0.625000 0.125000 0.000000 
-0.750000 0.125000 0.000000 
-0.625000 0.000000 0.000000 
-1.000000 0.375000 0.000000 
-0.875000 0.250000 0.000000 
-0.875000 0.375000 0.000000 
-0.125935 0.150313 0.000000 
-0.250247 0.135407 0.000000 
-0.125000 0.027157 0.000000 
-0.500000 0.375000 0.000000 
-0.374856 0.251227 0.000000 
-0.374834 0.376302 0.000000 
-0.375000 0.001288 0.000000 
-0.374917 0.126221 0.000000 
-0.500000 0.125000 0.000000 
-1.000000 0.875000 0.000000 
-0.875000 0.750000 0.000000 
-0.875000 0.875000 0.000000 
-0.875000 0.500000 0.000000 
-0.875000 0.625000 0.000000 
-1.000000 0.625000 0.000000 
-0.625000 0.625000 0.000000 
-0.750000 0.625000 0.000000 
-0.625000 0.500000 0.000000 
-0.625000 0.250000 0.000000 
-0.625000 0.375000 0.000000 
-0.750000 0.375000 0.000000 
0.000000 0.157739 0.000000 
-0.126620 0.274207 0.000000 
-0.126620 0.523817 0.000000 
-0.126871 0.398730 0.000000 
0.000000 0.405471 0.000000 
-0.250494 0.385040 0.000000 
-0.374856 0.501452 0.000000 
-0.123380 1.029487 0.000000 
-0.124065 0.902251 0.000000 
0.000000 0.908895 0.000000 
-0.375083 0.877521 0.000000 
-0.249753 0.888047 0.000000 
-0.375144 1.003188 0.000000 
0.000000 0.655953 0.000000 
-0.125000 0.775575 0.000000 
-0.125935 0.649434 0.000000 
-0.750000 0.875000 0.000000 
-0.875000 1.000000 0.000000 
-0.500000 0.625001 0.000000 
-0.625000 0.750000 0.000000 
-0.625000 1.000000 0.000000 
-0.625000 0.875000 0.000000 
-0.500000 0.875017 0.000000 
-0.250247 0.635902 0.000000 
-0.375000 0.752035 0.000000 
-0.374917 0.626689 0.000000 
0.125000 0.027157 0.000000 
0.125935 0.150313 0.000000 
0.374917 0.126221 0.000000 
0.250247 0.135407 0.000000 
0.375000 0.001288 0.000000 
0.126620 0.274207 0.000000 
0.126871 0.398730 0.000000 
0.875000 0.125000 0.000000 
0.750000 0.125000 0.000000 
0.875000 0.000000 0.000000 
0.500000 0.375000 0.000000 
0.625000 0.250000 0.000000 
0.625000 0.375000 0.000000 
0.625000 0.000000 0.000000 
0.625000 0.125000 0.000000 
0.500000 0.125000 0.000000 
0.125000 0.775575 0.000000 
0.124065 0.902251 0.000000 
0.126620 0.523817 0.000000 
0.125935 0.649434 0.000000 
0.374917 0.626689 0.000000 
0.250247 0.635902 0.000000 
0.374856 0.501452 0.000000 
0.374856 0.251227 0.000000 
0.374834 0.376302 0.000000 
0.250494 0.385040 0.000000 
1.000000 0.125000 0.000000 
0.875000 0.250000 0.000000 
0.875000 0.500000 0.000000 
0.875000 0.375000 0.000000 
1.000000 0.375000 0.000000 
0.750000 0.375000 0.000000 
0.625000 0.500000 0.000000 
0.875000 1.000000 0.000000 
0.875000 0.875000 0.000000 
1.000000 0.875000 0.000000 
0.625000 0.875000 0.000000 
0.750000 0.875000 0.000000 
0.625000 1.000000 0.000000 
1.000000 0.625000 0.000000 
0.875000 0.750000 0.000000 
0.875000 0.625000 0.000000 
0.249753 0.888047 0.000000 
0.123380 1.029487 0.000000 
0.500000 0.625001 0.000000 
0.375000 0.752035 0.000000 
0.375144 1.003188 0.000000 
0.375083 0.877521 0.000000 
0.500000 0.875017 0.000000 
0.750000 0.625000 0.000000 
0.625000 0.750000 0.000000 
0.625000 0.625000 0.000000 
-0.875000 1.125000 0.000000 
-1.000000 1.125000 0.000000 
-0.625000 1.125000 0.000000 
-0.750000 1.125000 0.000000 
-1.000000 1.375000 0.000000 
-0.875000 1.250000 0.000000 
-0.875000 1.375000 0.000000 
-0.123129 1.157313 0.000000 
-0.249506 1.141758 0.000000 
-0.500000 1.375479 0.000000 
-0.375144 1.255274 0.000000 
-0.375083 1.381821 0.000000 
-0.375166 1.129085 0.000000 
-0.500000 1.125113 0.000000 
-1.000000 1.875000 0.000000 
-0.875000 1.750000 0.000000 
-0.875000 1.875000 0.000000 
-0.875000 1.500000 0.000000 
-0.875000 1.625000 0.000000 
-1.000000 1.625000 0.000000 
-0.625000 1.625001 0.000000 
-0.750000 1.625000 0.000000 
-0.625000 1.500000 0.000000 
-0.625000 1.250000 0.000000 
-0.625000 1.375000 0.000000 
-0.750000 1.375000 0.000000 
0.000000 1.164346 0.000000 
-0.123380 1.285757 0.000000 
-0.125000 1.544495 0.000000 
-0.124065 1.414826 0.000000 
0.000000 1.422419 0.000000 
-0.249753 1.397425 0.000000 
-0.375000 1.508789 0.000000 
-0.126620 2.065544 0.000000 
-0.126871 1.935628 0.000000 
0.000000 1.944143 0.000000 
-0.374834 1.892484 0.000000 
-0.250494 1.914744 0.000000 
-0.374856 2.021067 0.000000 
0.000000 1.682841 0.000000 
-0.126620 1.805160 0.000000 
-0.125935 1.674670 0.000000 
-0.750000 1.875000 0.000000 
-0.875000 2.000000 0.000000 
-0.500000 1.626514 0.000000 
-0.625000 1.750018 0.000000 
-0.625000 2.000294 0.000000 
-0.625000 1.875094 0.000000 
-0.500000 1.878760 0.000000 
-0.250247 1.655273 0.000000 
-0.374856 1.764146 0.000000 
-0.374917 1.636227 0.000000 
0.123129 1.157313 0.000000 
0.375166 1.129085 0.000000 
0.249506 1.141758 0.000000 
0.123380 1.285757 0.000000 
0.124065 1.414826 0.000000 
0.875000 1.125000 0.000000 
0.750000 1.125000 0.000000 
0.500000 1.375479 0.000000 
0.625000 1.250000 0.000000 
0.625000 1.375000 0.000000 
0.625000 1.125000 0.000000 
0.500000 1.125113 0.000000 
0.126620 1.805160 0.000000 
0.126871 1.935628 0.000000 
0.125000 1.544495 0.000000 
0.125935 1.674670 0.000000 
0.374917 1.636227 0.000000 
0.250247 1.655273 0.000000 
0.375000 1.508789 0.000000 
0.375144 1.255274 0.000000 
0.375083 1.381821 0.000000 
0.249753 1.397425 0.000000 
1.000000 1.125000 0.000000 
0.875000 1.250000 0.000000 
0.875000 1.500000 0.000000 
0.875000 1.375000 0.000000 
1.000000 1.375000 0.000000 
0.750000 1.375000 0.000000 
0.625000 1.500000 0.000000 
0.875000 2.000000 0.000000 
0.875000 1.875000 0.000000 
1.000000 1.875000 0.000000 
0.625000 1.875094 0.000000 
0.750000 1.875000 0.000000 
0.625000 2.000294 0.000000 
1.000000 1.625000 0.000000 
0.875000 1.750000 0.000000 
0.875000 1.625000 0.000000 
0.250494 1.914744 0.000000 
0.126620 2.065544 0.000000 
0.500000 1.626514 0.000000 
0.374856 1.764146 0.000000 
0.374856 2.021067 0.000000 
0.374834 1.892484 0.000000 
0.500000 1.878760 0.000000 
0.750000 1.625000 0.000000 
0.625000 1.750018 0.000000 
0.625000 1.625001 0.000000 
-0.875000 2.125000 0.000000 
-1.000000 2.125000 0.000000 
-0.625000 2.125689 0.000000 
-0.750000 2.125000 0.000000 
-1.000000 2.375000 0.000000 
-0.875000 2.250000 0.000000 
-0.875000 2.375000 0.000000 
-0.125935 2.194136 0.000000 
-0.250247 2.173352 0.000000 
-0.500000 2.386208 0.000000 
-0.375000 2.277384 0.000000 
-0.375083 2.403769 0.000000 
-0.374917 2.149553 0.000000 
-0.500000 2.132424 0.000000 
-1.000000 2.875000 0.000000 
-0.875000 2.750003 0.000000 
-0.875000 2.875009 0.000000 
-0.875000 2.500000 0.000000 
-0.875000 2.625000 0.000000 
-1.000000 2.625000 0.000000 
-0.625000 2.628211 0.000000 
-0.750000 2.625311 0.000000 
[...]
POINT_DATA 425

SCALARS u_h float 2
LOOKUP_TABLE default
0.000000 0.000000 
-0.000000 0.035156 
0.000000 0.000000 
0.000000 0.000000 
0.000000 0.036298 
0.000000 0.000000 
0.000000 0.000000 
-0.000000 0.074023 
0.000000 0.000000 
0.000000 0.000000 
0.000000 0.000000 
0.000000 0.000000 
0.000000 0.000000 
0.000000 0.000000 
0.000000 0.000000 
-0.000000 0.030397 
0.000000 0.000047 
0.000000 0.000000 
0.000000 0.000000 
0.000000 0.000000 
0.000000 0.000047 
0.000000 0.000880 
0.000000 0.000000 
-0.000000 0.052387 
0.000000 0.005442 
0.000000 0.000880 
0.000000 0.000000 
0.000000 0.005442 
0.000000 0.011971 
0.000000 0.000000 
0.000000 0.066362 
0.000000 0.000000 
0.000000 0.011971 
0.000000 0.000000 
0.000000 0.000000 
0.000000 0.000000 
0.000000 0.000000 
0.000000 0.000000 
-0.000427 0.010061 
0.000000 0.000000 
-0.000000 0.011124 
0.000000 0.000000 
0.000000 0.000000 
0.000000 0.000000 
-0.000000 0.031223 
-0.000427 0.010320 
0.000427 0.014683 
0.000000 0.011800 
0.000000 0.032119 
0.000000 0.000005 
0.000000 0.000000 
0.000000 0.011124 
0.000427 0.010061 
0.000000 0.000000 
0.000000 0.000000 
0.000000 0.000000 
0.000427 0.010320 
-0.000000 0.011800 
0.000000 0.000000 
0.000000 0.000000 
0.000000 0.000000 
0.000000 0.000000 
0.000000 0.000000 
0.000000 0.000005 
-0.000427 0.014683 
0.000000 0.000000 
0.000000 0.000000 
0.000427 0.019324 
0.000000 0.000243 
0.000000 0.000000 
0.000000 0.000000 
0.000000 0.000000 
0.000000 0.043056 
-0.000000 0.026082 
-0.000427 0.044427 
-0.000427 0.034898 
-0.000000 0.063553 
0.000000 0.002455 
0.000000 0.000000 
-0.000427 0.019324 
0.000000 0.000000 
0.000000 0.000243 
0.000000 0.026082 
0.000427 0.034898 
0.000000 0.000000 
0.000000 0.000000 
0.000000 0.000000 
0.000000 0.000000 
0.000000 0.000000 
0.000000 0.002455 
0.000427 0.044427 
0.000000 0.000003 
0.000000 0.000000 
0.000000 0.050673 
0.000000 0.009485 
0.000000 0.000000 
0.000000 0.000145 
0.000000 0.000407 
0.000000 0.078063 
0.000427 0.046096 
0.000000 0.000000 
0.000427 0.023631 
0.000000 0.032115 
0.000000 0.007921 
0.000000 0.000000 
-0.000000 0.050673 
0.000000 0.000003 
0.000000 0.009485 
-0.000427 0.046096 
-0.000427 0.023631 
0.000000 0.000000 
0.000000 0.000145 
0.000000 0.000000 
0.000000 0.000407 
0.000000 0.000000 
0.000000 0.007921 
-0.000000 0.000000 
0.000000 0.000000 
0.000000 0.000000 
0.000000 0.000000 
0.000000 0.000000 
0.000000 0.000000 
0.000000 0.000000 
0.000000 0.000000 
0.000000 0.000000 
0.000000 0.000000 
-0.000935 0.025313 
-0.000247 0.010407 
-0.000000 0.027157 
0.000000 0.000000 
0.000144 0.001227 
0.000166 0.001302 
0.000000 0.001288 
0.000083 0.001221 
0.000000 0.000000 
0.000000 0.000000 
0.000000 0.000000 
0.000000 0.000000 
0.000000 0.000000 
0.000000 0.000000 
0.000000 0.000000 
0.000000 0.000000 
0.000000 0.000000 
0.000000 0.000000 
0.000000 0.000000 
0.000000 0.000000 
0.000000 0.000000 
-0.000000 0.032739 
-0.001620 0.024207 
-0.001620 0.023817 
-0.001871 0.023730 
-0.000000 0.030471 
-0.000494 0.010040 
0.000144 0.001452 
0.001620 0.029487 
0.000935 0.027251 
0.000000 0.033895 
-0.000083 0.002521 
0.000247 0.013047 
-0.000144 0.003188 
-0.000000 0.030953 
0.000000 0.025575 
-0.000935 0.024434 
0.000000 0.000000 
0.000000 0.000000 
0.000000 0.000001 
0.000000 0.000000 
0.000000 0.000000 
0.000000 0.000000 
0.000000 0.000017 
-0.000247 0.010902 
-0.000000 0.002035 
0.000083 0.001689 
0.000000 0.027157 
0.000935 0.025313 
-0.000083 0.001221 
0.000247 0.010407 
-0.000000 0.001288 
0.001620 0.024207 
0.001871 0.023730 
0.000000 0.000000 
0.000000 0.000000 
0.000000 0.000000 
0.000000 0.000000 
0.000000 0.000000 
0.000000 0.000000 
0.000000 0.000000 
0.000000 0.000000 
0.000000 0.000000 
-0.000000 0.025575 
-0.000935 0.027251 
0.001620 0.023817 
0.000935 0.024434 
-0.000083 0.001689 
0.000247 0.010902 
-0.000144 0.001452 
-0.000144 0.001227 
-0.000166 0.001302 
0.000494 0.010040 
0.000000 0.000000 
0.000000 0.000000 
0.000000 0.000000 
0.000000 0.000000 
0.000000 0.000000 
0.000000 0.000000 
0.000000 0.000000 
0.000000 0.000000 
0.000000 0.000000 
0.000000 0.000000 
0.000000 0.000000 
0.000000 0.000000 
0.000000 0.000000 
0.000000 0.000000 
0.000000 0.000000 
0.000000 0.000000 
-0.000247 0.013047 
-0.001620 0.029487 
0.000000 0.000001 
0.000000 0.002035 
0.000144 0.003188 
0.000083 0.002521 
0.000000 0.000017 
0.000000 0.000000 
0.000000 0.000000 
0.000000 0.000000 
0.000000 0.000000 
0.000000 0.000000 
0.000000 0.000000 
0.000000 0.000000 
0.000000 0.000000 
0.000000 0.000000 
0.000000 0.000000 
0.001871 0.032313 
0.000494 0.016758 
0.000000 0.000479 
-0.000144 0.005274 
-0.000083 0.006821 
-0.000166 0.004085 
0.000000 0.000113 
0.000000 0.000000 
0.000000 0.000000 
0.000000 0.000000 
0.000000 0.000000 
0.000000 0.000000 
0.000000 0.000000 
0.000000 0.000001 
0.000000 0.000000 
0.000000 0.000000 
0.000000 0.000000 
0.000000 0.000000 
0.000000 0.000000 
0.000000 0.039346 
0.001620 0.035757 
-0.000000 0.044495 
0.000935 0.039826 
0.000000 0.047419 
0.000247 0.022425 
0.000000 0.008789 
-0.001620 0.065544 
-0.001871 0.060628 
-0.000000 0.069143 
0.000166 0.017484 
-0.000494 0.039744 
0.000144 0.021067 
-0.000000 0.057841 
-0.001620 0.055160 
-0.000935 0.049670 
0.000000 0.000000 
0.000000 0.000000 
0.000000 0.001514 
0.000000 0.000018 
0.000000 0.000294 
0.000000 0.000094 
0.000000 0.003760 
-0.000247 0.030273 
0.000144 0.014146 
0.000083 0.011227 
-0.001871 0.032313 
0.000166 0.004085 
-0.000494 0.016758 
-0.001620 0.035757 
-0.000935 0.039826 
0.000000 0.000000 
0.000000 0.000000 
0.000000 0.000479 
0.000000 0.000000 
0.000000 0.000000 
0.000000 0.000000 
0.000000 0.000113 
0.001620 0.055160 
0.001871 0.060628 
0.000000 0.044495 
0.000935 0.049670 
-0.000083 0.011227 
0.000247 0.030273 
-0.000000 0.008789 
0.000144 0.005274 
0.000083 0.006821 
-0.000247 0.022425 
0.000000 0.000000 
0.000000 0.000000 
0.000000 0.000000 
0.000000 0.000000 
0.000000 0.000000 
0.000000 0.000000 
0.000000 0.000000 
0.000000 0.000000 
0.000000 0.000000 
0.000000 0.000000 
0.000000 0.000094 
0.000000 0.000000 
0.000000 0.000294 
0.000000 0.000000 
0.000000 0.000000 
0.000000 0.000000 
0.000494 0.039744 
0.001620 0.065544 
0.000000 0.001514 
-0.000144 0.014146 
-0.000144 0.021067 
-0.000166 0.017484 
0.000000 0.003760 
0.000000 0.000000 
0.000000 0.000018 
0.000000 0.000001 
0.000000 0.000000 
0.000000 0.000000 
0.000000 0.000689 
0.000000 0.000000 
0.000000 0.000000 
0.000000 0.000000 
0.000000 0.000000 
-0.000935 0.069136 
-0.000247 0.048352 
0.000000 0.011208 
-0.000000 0.027384 
-0.000083 0.028769 
0.000083 0.024553 
0.000000 0.007424 
0.000000 0.000000 
0.000000 0.000003 
0.000000 0.000009 
0.000000 0.000000 
0.000000 0.000000 
0.000000 0.000000 
0.000000 0.003211 
0.000000 0.000311 
0.000000 0.002864 
0.000000 0.001311 
0.000000 0.002105 
0.000000 0.000038 
-0.000000 0.077362 
0.000000 0.070371 
0.001620 0.060769 
0.000935 0.068004 
0.000000 0.074827 
0.000247 0.050311 
-0.000144 0.027741 
0.000000 0.000000 
0.000935 0.010455 
0.000000 0.011197 
-0.000083 0.005767 
0.000247 0.008451 
-0.000000 0.000000 
0.000000 0.051881 
0.001620 0.029809 
0.001871 0.047844 
0.000000 0.000255 
0.000000 0.000000 
0.000000 0.011042 
0.000000 0.002703 
0.000000 0.000000 
0.000000 0.001228 
0.000000 0.003150 
0.000494 0.037136 
-0.000144 0.015530 
-0.000166 0.023407 
0.000935 0.069136 
-0.000083 0.024553 
0.000247 0.048352 
-0.000000 0.070371 
-0.000935 0.068004 
0.000000 0.000000 
0.000000 0.000000 
0.000000 0.011208 
0.000000 0.001311 
0.000000 0.002105 
0.000000 0.000689 
0.000000 0.007424 
-0.001620 0.029809 
-0.000935 0.010455 
-0.001620 0.060769 
-0.001871 0.047844 
0.000166 0.023407 
-0.000494 0.037136 
0.000144 0.027741 
0.000000 0.027384 
0.000083 0.028769 
-0.000247 0.050311 
0.000000 0.000000 
0.000000 0.000000 
0.000000 0.000000 
0.000000 0.000000 
0.000000 0.000000 
0.000000 0.000038 
0.000000 0.002864 
0.000000 0.000000 
0.000000 0.000009 
0.000000 0.000000 
0.000000 0.001228 
0.000000 0.000255 
0.000000 0.000000 
0.000000 0.000000 
0.000000 0.000003 
0.000000 0.000000 
-0.000247 0.008451 
-0.000000 0.000000 
0.000000 0.011042 
0.000144 0.015530 
0.000000 0.000000 
0.000083 0.005767 
0.000000 0.003150 
0.000000 0.000311 
0.000000 0.002703 
0.000000 0.003211 

CELL_DATA 768

SCALARS epsilon float 4
LOOKUP_TABLE default
0.000000 0.000000 0.000000 0.000000
0.000000 0.000000 0.000000 0.000000
0.000000 0.000000 0.000000 0.000000
0.000000 0.000000 0.000000 0.000000
0.000000 0.000000 0.000000 0.000000
0.000000 0.000000 0.000000 0.000000
0.000000 0.000000 0.000000 0.000000
0.000000 0.000000 0.000000 0.000000
0.000000 0.000000 0.000000 0.000000
0.000000 0.000000 0.000000 0.000000
0.000000 0.000000 0.000000 0.000000
0.000000 0.000000 0.000000 0.000000
0.000000 0.000000 0.000000 0.000000
0.000000 0.000000 0.000000 0.000000
0.000000 0.000000 0.000000 0.000000
0.000000 0.000000 0.000000 0.000000
0.000486 -0.014481 0.000000 0.028664
-0.005364 -0.002596 0.000000 0.059384
0.000255 -0.005513 0.000000 0.063496
-0.004623 -0.014050 0.000000 0.056984
0.001324 0.000002 0.000000 0.005202
0.001147 0.000000 0.000000 0.004902
-0.004602 0.000590 0.000000 0.035568
0.001322 0.000600 0.000000 0.005287
0.000000 0.000000 0.000000 0.005152
-0.000052 -0.000589 0.000000 0.039697
0.000662 0.000000 0.000000 0.004881
0.000656 -0.000543 0.000000 0.005215
-0.004486 -0.002667 0.000000 0.034867
0.001142 0.000043 0.000000 0.005144
-0.002498 -0.005622 0.000000 0.036052
-0.002680 0.000012 0.000000 0.037083
0.000000 0.000000 0.000000 0.000000
0.000000 0.000000 0.000000 0.000000
0.000000 0.000000 0.000000 0.000000
0.000000 0.000000 0.000000 0.000000
0.000000 0.000000 0.000000 0.000000
0.000000 0.000000 0.000000 0.000000
0.000000 0.000000 0.000000 0.000000
0.000000 0.000000 0.000000 0.000000
0.000000 0.000000 0.000000 0.000001
0.000000 0.000000 0.000000 0.000000
0.000000 0.000000 0.000000 0.000000
0.000000 0.000000 0.000000 0.000000
0.000000 0.000000 0.000000 0.000000
0.000000 0.000000 0.000000 0.000000
0.000000 0.000000 0.000000 0.000000
0.000000 0.000000 0.000000 0.000000
0.000000 0.000000 0.000000 0.000000
0.000000 0.000000 0.000000 0.000000
0.000000 0.000000 0.000000 0.000000
0.000000 0.000000 0.000000 0.000000
0.000000 0.000002 0.000000 0.000001
0.000000 0.000000 0.000000 0.000000
0.000000 0.000000 0.000000 0.000000
0.000000 0.000000 0.000000 0.000000
0.000000 0.000000 0.000000 0.000000
0.000000 0.000000 0.000000 0.000000
0.000000 0.000000 0.000000 0.000000
0.000000 0.000000 0.000000 0.000000
0.000000 0.000000 0.000000 0.000000
0.000000 0.000000 0.000000 0.000000
0.000000 0.000000 0.000000 0.000000
0.000000 0.000000 0.000000 0.000000
0.007427 -0.019721 0.000000 0.030063
0.012794 -0.012278 0.000000 0.028043
-0.008995 -0.008290 0.000000 0.054814
0.007750 -0.008598 0.000000 0.026993
0.012794 -0.000590 0.000000 0.026000
-0.009852 0.000473 0.000000 0.055492
0.014744 -0.006050 0.000000 0.026726
0.014639 0.000585 0.000000 0.027537
0.001149 0.001198 0.000000 0.005704
-0.005265 -0.000136 0.000000 0.034874
-0.004627 0.002201 0.000000 0.035822
-0.005290 0.001208 0.000000 0.035004
0.012904 -0.003718 0.000000 0.026812
-0.011197 0.002180 0.000000 0.055518
-0.009571 -0.000113 0.000000 0.056868
-0.010913 -0.003607 0.000000 0.054555
-0.013130 0.018858 0.000000 0.027080
0.008824 0.016953 0.000000 0.060331
-0.007539 0.014014 0.000000 0.026402
-0.007829 0.017290 0.000000 0.029025
-0.001137 0.005315 0.000000 0.012267
0.002467 0.009710 0.000000 0.042558
0.004417 0.012789 0.000000 0.045895
0.002671 0.005343 0.000000 0.041526
0.007427 0.004427 0.000000 0.025767
-0.000000 0.009238 0.000000 0.025933
-0.000818 0.008234 0.000000 0.058355
0.007046 0.008664 0.000000 0.029339
0.005317 0.012759 0.000000 0.056495
-0.000215 0.009659 0.000000 0.055544
-0.000387 0.012850 0.000000 0.029531
0.004647 0.012407 0.000000 0.059480
0.000000 0.000000 0.000000 0.000000
0.000000 0.000000 0.000000 0.000000
0.000000 0.000000 0.000000 0.000000
0.000000 0.000000 0.000000 0.000000
0.000000 0.000009 0.000000 0.000005
0.000000 0.000033 0.000000 0.000022
0.000000 0.000000 0.000000 0.000000
0.000000 0.000000 0.000000 0.000005
0.000000 0.000239 0.000000 0.000189
0.000000 0.000000 0.000000 0.000000
0.000000 0.000096 0.000000 0.000070
0.000000 0.000000 0.000000 0.000070
0.000000 0.000000 0.000000 0.000000
0.000000 0.000000 0.000000 0.000022
0.000000 0.000000 0.000000 0.000000
0.000000 0.000000 0.000000 0.000000
0.012514 0.004633 0.000000 0.028556
-0.005753 0.006927 0.000000 0.055039
-0.009790 0.004474 0.000000 0.054989
-0.006135 0.004324 0.000000 0.056936
-0.000663 0.000239 0.000000 0.010020
-0.000000 0.000096 0.000000 0.008119
0.000052 0.003924 0.000000 0.038577
-0.000650 0.003886 0.000000 0.009653
0.001147 0.000009 0.000000 0.005800
-0.004554 0.001928 0.000000 0.035324
0.000662 0.000033 0.000000 0.006746
0.000669 0.001900 0.000000 0.006492
-0.000153 0.006986 0.000000 0.039768
0.000011 0.002773 0.000000 0.007767
-0.002751 0.004525 0.000000 0.037502
-0.002595 0.002811 0.000000 0.036512
0.000000 -0.019721 0.000000 -0.032627
0.000973 -0.013986 0.000000 -0.061238
0.007427 -0.012278 0.000000 -0.029843
0.007871 -0.014519 0.000000 -0.026142
-0.000007 -0.000544 0.000000 -0.005486
-0.002537 -0.002663 0.000000 -0.036212
0.000156 -0.005612 0.000000 -0.038571
-0.002693 -0.000586 0.000000 -0.037194
0.014744 -0.000590 0.000000 -0.026581
0.012794 -0.006050 0.000000 -0.027870
-0.009400 -0.003600 0.000000 -0.056319
0.014849 -0.003723 0.000000 -0.025673
-0.005299 -0.005530 0.000000 -0.059290
-0.009465 -0.002604 0.000000 -0.056546
0.013096 -0.008618 0.000000 -0.025214
-0.004872 -0.008259 0.000000 -0.057675
0.000000 0.000000 0.000000 0.000000
0.000000 0.000000 0.000000 0.000000
0.000000 0.000000 0.000000 0.000000
0.000000 0.000000 0.000000 0.000000
0.000000 0.000002 0.000000 -0.000000
0.000000 0.000000 0.000000 -0.000000
0.000000 0.000000 0.000000 0.000000
0.000000 0.000000 0.000000 -0.000000
0.000000 0.000000 0.000000 0.000000
0.000000 0.000000 0.000000 0.000000
0.000000 0.000000 0.000000 -0.000000
0.000000 0.000000 0.000000 -0.000000
0.000000 0.000000 0.000000 0.000000
0.000000 0.000000 0.000000 -0.000000
0.000000 0.000000 0.000000 0.000000
0.000000 0.000000 0.000000 0.000000
-0.007539 0.018858 0.000000 -0.026272
-0.000000 0.014014 0.000000 -0.025808
-0.000814 0.012428 0.000000 -0.058108
-0.007937 0.012841 0.000000 -0.030154
0.012794 0.004427 0.000000 -0.025870
-0.010232 0.004323 0.000000 -0.057024
0.007427 0.009238 0.000000 -0.025643
0.007147 0.004634 0.000000 -0.028468
0.001152 0.001900 0.000000 -0.005547
-0.002790 0.006995 0.000000 -0.037672
-0.004692 0.004528 0.000000 -0.036197
-0.002608 0.001930 0.000000 -0.036634
-0.000388 0.008660 0.000000 -0.029656
-0.005696 0.004475 0.000000 -0.054910
-0.000216 0.006924 0.000000 -0.055697
-0.006351 0.008244 0.000000 -0.057712
0.000662 0.000000 0.000000 -0.004881
0.001147 0.000000 0.000000 -0.004902
-0.004624 0.000013 0.000000 -0.035743
0.000658 0.000043 0.000000 -0.005123
0.001147 0.000002 0.000000 -0.005800
-0.004576 0.001209 0.000000 -0.035503
0.001324 0.000000 0.000000 -0.005202
0.001326 0.001198 0.000000 -0.005107
0.012691 0.000587 0.000000 -0.026959
-0.011079 -0.000114 0.000000 -0.055111
-0.009690 0.002181 0.000000 -0.054654
-0.011363 0.000470 0.000000 -0.056359
0.001145 0.000600 0.000000 -0.004988
-0.005340 0.002201 0.000000 -0.035323
-0.004551 -0.000135 0.000000 -0.035239
-0.005315 0.000590 0.000000 -0.035204
0.000000 0.000000 0.000000 0.000000
0.000000 0.000000 0.000000 0.000000
0.000000 0.000000 0.000000 0.000000
0.000000 0.000000 0.000000 0.000000
0.000000 0.000000 0.000000 0.000000
0.000000 0.000000 0.000000 0.000000
0.000000 0.000000 0.000000 0.000000
0.000000 0.000000 0.000000 0.000000
0.000000 0.000000 0.000000 -0.000001
0.000000 0.000000 0.000000 0.000000
0.000000 0.000000 0.000000 0.000000
0.000000 0.000000 0.000000 0.000000
0.000000 0.000000 0.000000 0.000000
0.000000 0.000000 0.000000 0.000000
0.000000 0.000000 0.000000 0.000000
0.000000 0.000000 0.000000 0.000000
0.000000 0.000000 0.000000 0.000000
0.000000 0.000000 0.000000 0.000000
0.000000 0.000000 0.000000 0.000000
0.000000 0.000000 0.000000 0.000000
0.000000 0.000000 0.000000 -0.000189
0.000000 0.000000 0.000000 0.000000
0.000000 0.000000 0.000000 0.000000
0.000000 0.000000 0.000000 0.000000
0.000000 0.000000 0.000000 0.000000
0.000000 0.000000 0.000000 0.000000
0.000000 0.000000 0.000000 0.000000
0.000000 0.000000 0.000000 0.000000
0.000000 0.000000 0.000000 0.000000
0.000000 0.000000 0.000000 0.000000
0.000000 0.000000 0.000000 0.000000
0.000000 0.000000 0.000000 0.000000
-0.013431 0.017281 0.000000 -0.029850
0.005258 0.009653 0.000000 -0.056933
0.009284 0.012753 0.000000 -0.058617
0.004872 0.016975 0.000000 -0.058225
0.000662 0.000009 0.000000 -0.006746
-0.000000 0.000033 0.000000 -0.008119
0.000052 0.002814 0.000000 -0.038620
0.000671 0.002771 0.000000 -0.006397
-0.001149 0.000239 0.000000 -0.012573
0.004591 0.005346 0.000000 -0.045286
-0.000663 0.000096 0.000000 -0.010021
-0.000654 0.005312 0.000000 -0.009727
-0.000153 0.009721 0.000000 -0.039658
0.000011 0.003883 0.000000 -0.007758
0.002511 0.012800 0.000000 -0.042165
0.002686 0.003928 0.000000 -0.041497
0.000000 0.000000 0.000000 0.000000
0.000000 0.000000 0.000000 0.000000
0.000000 0.000000 0.000000 0.000000
0.000000 0.000000 0.000000 0.000000
0.000000 0.000239 0.000000 -0.000070
0.000000 0.000096 0.000000 -0.000022
0.000000 0.000000 0.000000 0.000000
0.000000 0.000000 0.000000 -0.000070
0.000000 0.000009 0.000000 -0.000001
0.000000 0.000000 0.000000 0.000000
0.000000 0.000033 0.000000 -0.000005
0.000000 0.000000 0.000000 -0.000005
0.000000 0.000000 0.000000 0.000000
0.000000 0.000000 0.000000 -0.000022
0.000000 0.000000 0.000000 0.000000
0.000000 0.000000 0.000000 0.000000
0.000000 0.000000 0.000000 0.000000
0.000000 0.000000 0.000000 0.000000
0.000000 0.000000 0.000000 0.000000
0.000000 0.000000 0.000000 0.000000
0.000000 0.000000 0.000000 0.000189
0.000000 0.000000 0.000000 0.000000
0.000000 0.000000 0.000000 0.000000
0.000000 0.000000 0.000000 0.000000
0.000000 0.000000 0.000000 0.000000
0.000000 0.000000 0.000000 0.000000
0.000000 0.000000 0.000000 0.000000
0.000000 0.000000 0.000000 0.000000
0.000000 0.000000 0.000000 0.000000
0.000000 0.000000 0.000000 0.000000
0.000000 0.000000 0.000000 0.000000
0.000000 0.000000 0.000000 0.000000
-0.013240 0.022005 0.000000 0.027987
0.010959 0.020178 0.000000 0.060046
0.009389 0.016270 0.000000 0.057962
0.010657 0.021875 0.000000 0.061168
-0.000663 0.003195 0.000000 0.025303
-0.001149 0.001890 0.000000 0.020112
0.004494 0.012168 0.000000 0.055500
-0.000688 0.012197 0.000000 0.025314
-0.001149 0.000523 0.000000 0.012569
0.004563 0.007146 0.000000 0.045356
-0.001327 0.001038 0.000000 0.015895
-0.001322 0.007135 0.000000 0.015709
0.004605 0.020172 0.000000 0.054555
-0.001157 0.009416 0.000000 0.020049
0.005195 0.016278 0.000000 0.049862
0.005229 0.009406 0.000000 0.050037
0.000000 0.000000 0.000000 0.000000
0.000000 0.000000 0.000000 0.000000
0.000000 0.000000 0.000000 0.000000
0.000000 0.000000 0.000000 0.000000
0.000000 0.000000 0.000000 0.000000
0.000000 0.000000 0.000000 0.000000
0.000000 0.000000 0.000000 0.000000
0.000000 0.000000 0.000000 0.000000
0.000000 0.000009 0.000000 0.003520
0.000000 0.000000 0.000000 0.000004
0.000000 0.000000 0.000000 0.000000
0.000000 0.000009 0.000000 0.000004
0.000000 0.000000 0.000000 0.000000
0.000000 0.000000 0.000000 0.000000
0.000000 0.000000 0.000000 0.000000
0.000000 0.000000 0.000000 0.000000
0.000000 0.000523 0.000000 0.000451
0.000000 0.001038 0.000000 0.000969
0.000000 0.000000 0.000000 0.000000
0.000000 0.000000 0.000000 0.000451
0.000000 0.003195 0.000000 0.003508
0.000000 0.000000 0.000000 0.000000
0.000000 0.001890 0.000000 0.001913
0.000000 0.000000 0.000000 0.001917
0.000000 0.000000 0.000000 0.000000
0.000000 0.000000 0.000000 0.000000
0.000000 0.000000 0.000000 0.000000
0.000000 0.000000 0.000000 0.000000
0.000000 0.000000 0.000000 0.000970
0.000000 0.000000 0.000000 0.000000
0.000000 0.000000 0.000000 0.000000
0.000000 0.000000 0.000000 0.000000