# vtk DataFile Version 2.0
Unstructured Grid Example
ASCII
DATASET UNSTRUCTURED_GRID

POINTS 81 float
0.010082 -0.179375 0.000000 
0.989918 -0.179375 0.000000 
1.000000 1.000000 0.000000 
0.000000 1.000000 0.000000 
0.500000 -0.100000 0.000000 
0.972498 0.371992 0.000000 
0.500000 1.000000 0.000000 
0.027502 0.371992 0.000000 
0.500000 0.373500 0.000000 
0.257419 -0.168333 0.000000 
0.500000 0.110000 0.000000 
0.253122 0.090065 0.000000 
0.742581 -0.168333 0.000000 
0.746878 0.090065 0.000000 
0.987572 0.086897 0.000000 
0.737789 0.369553 0.000000 
0.963412 0.669785 0.000000 
0.734981 0.675014 0.000000 
0.750000 1.000000 0.000000 
0.500000 0.677254 0.000000 
0.250000 1.000000 0.000000 
0.265019 0.675014 0.000000 
0.036588 0.669785 0.000000 
0.262211 0.369553 0.000000 
0.012428 0.086897 0.000000 
0.133970 -0.176347 0.000000 
0.252150 -0.041231 0.000000 
0.130490 -0.048041 0.000000 
0.500000 -0.003544 0.000000 
0.374031 -0.026747 0.000000 
0.378736 -0.149673 0.000000 
0.377345 0.232196 0.000000 
0.374883 0.099489 0.000000 
0.500000 0.236581 0.000000 
0.621264 -0.149673 0.000000 
0.625969 -0.026747 0.000000 
0.869510 -0.048041 0.000000 
0.747850 -0.041231 0.000000 
0.866030 -0.176347 0.000000 
0.625117 0.099489 0.000000 
0.622655 0.232196 0.000000 
0.991463 -0.049134 0.000000 
0.867476 0.085441 0.000000 
0.855067 0.368086 0.000000 
0.861935 0.224127 0.000000 
0.980383 0.227445 0.000000 
0.742882 0.226683 0.000000 
0.619650 0.372737 0.000000 
0.965798 0.518381 0.000000 
0.850139 0.517257 0.000000 
0.857944 0.835179 0.000000 
0.849703 0.672718 0.000000 
0.969918 0.827911 0.000000 
0.734582 0.519013 0.000000 
0.617716 0.521107 0.000000 
0.875000 1.000000 0.000000 
0.740283 0.836191 0.000000 
0.500000 0.837047 0.000000 
0.620575 0.836578 0.000000 
0.625000 1.000000 0.000000 
0.618030 0.676346 0.000000 
0.500000 0.522190 0.000000 
0.375000 1.000000 0.000000 
0.379425 0.836578 0.000000 
0.142056 0.835179 0.000000 
0.259717 0.836191 0.000000 
0.125000 1.000000 0.000000 
0.381970 0.676346 0.000000 
0.382284 0.521107 0.000000 
0.030082 0.827911 0.000000 
0.150297 0.672718 0.000000 
0.144933 0.368086 0.000000 
0.149861 0.517257 0.000000 
0.034202 0.518381 0.000000 
0.265418 0.519013 0.000000 
0.380350 0.372737 0.000000 
0.019617 0.227445 0.000000 
0.138065 0.224127 0.000000 
0.132524 0.085441 0.000000 
0.008537 -0.049134 0.000000 
0.257118 0.226683 0.000000 

CELLS 128 512
3  0 25 27 
3  9 26 25 
3  11 27 26 
3  25 26 27 
3  4 28 30 
3  10 29 28 
3  9 30 29 
3  28 29 30 
3  8 31 33 
3  11 32 31 
3  10 33 32 
3  31 32 33 
3  9 29 26 
3  10 32 29 
3  11 26 32 
3  29 32 26 
3  4 34 28 
3  12 35 34 
3  10 28 35 
3  34 35 28 
3  1 36 38 
3  13 37 36 
3  12 38 37 
3  36 37 38 
3  8 33 40 
3  10 39 33 
3  13 40 39 
3  33 39 40 
3  12 37 35 
3  13 39 37 
3  10 35 39 
3  37 39 35 
3  1 41 36 
3  14 42 41 
3  13 36 42 
3  41 42 36 
3  5 43 45 
3  15 44 43 
3  14 45 44 
3  43 44 45 
3  8 40 47 
3  13 46 40 
3  15 47 46 
3  40 46 47 
3  14 44 42 
3  15 46 44 
3  13 42 46 
3  44 46 42 
3  5 48 43 
3  16 49 48 
3  15 43 49 
3  48 49 43 
3  2 50 52 
3  17 51 50 
3  16 52 51 
3  50 51 52 
3  8 47 54 
3  15 53 47 
3  17 54 53 
3  47 53 54 
3  16 51 49 
3  17 53 51 
3  15 49 53 
3  51 53 49 
3  2 55 50 
3  18 56 55 
3  17 50 56 
3  55 56 50 
3  6 57 59 
3  19 58 57 
3  18 59 58 
3  57 58 59 
3  8 54 61 
3  17 60 54 
3  19 61 60 
3  54 60 61 
3  18 58 56 
3  19 60 58 
3  17 56 60 
3  58 60 56 
3  6 62 57 
3  20 63 62 
3  19 57 63 
3  62 63 57 
3  3 64 66 
3  21 65 64 
3  20 66 65 
3  64 65 66 
3  8 61 68 
3  19 67 61 
3  21 68 67 
3  61 67 68 
3  20 65 63 
3  21 67 65 
3  19 63 67 
3  65 67 63 
3  3 69 64 
3  22 70 69 
3  21 64 70 
3  69 70 64 
3  7 71 73 
3  23 72 71 
3  22 73 72 
3  71 72 73 
3  8 68 75 
3  21 74 68 
3  23 75 74 
3  68 74 75 
3  22 72 70 
3  23 74 72 
3  21 70 74 
3  72 74 70 
3  7 76 71 
3  24 77 76 
3  23 71 77 
3  76 77 71 
3  0 27 79 
3  11 78 27 
3  24 79 78 
3  27 78 79 
3  8 75 31 
3  23 80 75 
3  11 31 80 
3  75 80 31 
3  24 78 77 
3  11 80 78 
3  23 77 80 
3  78 80 77 

CELL_TYPES 128
5
5
5
5
5
5
5
5
5
5
5
5
5
5
5
5
5
5
5
5
5
5
5
5
5
5
5
5
5
5
5
5
5
5
5
5
5
5
5
5
5
5
5
5
5
5
5
5
5
5
5
5
5
5
5
5
5
5
5
5
5
5
5
5
5
5
5
5
5
5
5
5
5
5
5
5
5
5
5
5
5
5
5
5
5
5
5
5
5
5
5
5
5
5
5
5
5
5
5
5
5
5
5
5
5
5
5
5
5
5
5
5
5
5
5
5
5
5
5
5
5
5
5
5
5
5
5
5

POINT_DATA 81

SCALARS u_h float 2
LOOKUP_TABLE default
0.010082 -0.179375 
-0.010082 -0.179375 
0.000000 0.000000 
0.000000 0.000000 
0.000000 -0.100000 
-0.027502 -0.128008 
0.000000 0.000000 
0.027502 -0.128008 
0.000000 -0.126500 
0.007419 -0.168333 
0.000000 -0.140000 
0.003122 -0.159935 
-0.007419 -0.168333 
-0.003122 -0.159935 
-0.012428 -0.163103 
-0.012211 -0.130447 
-0.036588 -0.080215 
-0.015019 -0.074986 
0.000000 0.000000 
0.000000 -0.072746 
0.000000 0.000000 
0.015019 -0.074986 
0.036588 -0.080215 
0.012211 -0.130447 
0.012428 -0.163103 
0.008970 -0.176347 
0.002150 -0.166231 
0.005490 -0.173041 
0.000000 -0.128544 
-0.000969 -0.151747 
0.003736 -0.149673 
0.002345 -0.142804 
-0.000117 -0.150511 
0.000000 -0.138419 
-0.003736 -0.149673 
0.000969 -0.151747 
-0.005490 -0.173041 
-0.002150 -0.166231 
-0.008970 -0.176347 
0.000117 -0.150511 
-0.002345 -0.142804 
-0.008537 -0.174134 
-0.007524 -0.164559 
-0.019933 -0.131914 
-0.013065 -0.150873 
-0.019617 -0.147555 
-0.007118 -0.148317 
-0.005350 -0.127263 
-0.034202 -0.106619 
-0.024861 -0.107743 
-0.017056 -0.039821 
-0.025297 -0.077282 
-0.030082 -0.047089 
-0.015418 -0.105987 
-0.007284 -0.103893 
0.000000 0.000000 
-0.009717 -0.038809 
-0.000000 -0.037953 
-0.004425 -0.038422 
0.000000 0.000000 
-0.006970 -0.073654 
0.000000 -0.102810 
0.000000 0.000000 
0.004425 -0.038422 
0.017056 -0.039821 
0.009717 -0.038809 
0.000000 0.000000 
0.006970 -0.073654 
0.007284 -0.103893 
0.030082 -0.047089 
0.025297 -0.077282 
0.019933 -0.131914 
0.024861 -0.107743 
0.034202 -0.106619 
0.015418 -0.105987 
0.005350 -0.127263 
0.019617 -0.147555 
0.013065 -0.150873 
0.007524 -0.164559 
0.008537 -0.174134 
0.007118 -0.148317 

CELL_DATA 128

SCALARS epsilon float 4
LOOKUP_TABLE default
-0.007900 0.027044 0.000000 -0.002236
-0.008916 0.021393 0.000000 0.010187
-0.027458 0.050107 0.000000 0.029899
-0.025170 0.029097 0.000000 0.012230
-0.030337 -0.111242 0.000000 0.257246
0.007722 -0.075241 0.000000 0.102168
-0.023263 0.001230 0.000000 0.056466
0.015458 0.007593 0.000000 0.075682
-0.018936 0.091376 0.000000 0.016005
-0.027503 0.060995 0.000000 0.045557
0.000934 0.016003 0.000000 0.041520
-0.019420 0.059668 0.000000 0.026514
-0.019458 0.028355 0.000000 0.035348
0.000390 0.012737 0.000000 0.045038
-0.026792 0.051246 0.000000 0.039846
-0.026043 0.015972 0.000000 0.060824
-0.030337 -0.111242 0.000000 -0.257246
-0.023263 0.001230 0.000000 -0.056466
0.007722 -0.075241 0.000000 -0.102168
0.015458 0.007593 0.000000 -0.075682
-0.007900 0.027044 0.000000 0.002236
-0.027458 0.050107 0.000000 -0.029899
-0.008916 0.021393 0.000000 -0.010187
-0.025170 0.029097 0.000000 -0.012230
-0.018936 0.091376 0.000000 -0.016005
0.000934 0.016003 0.000000 -0.041520
-0.027503 0.060995 0.000000 -0.045557
-0.019420 0.059668 0.000000 -0.026514
-0.019458 0.028355 0.000000 -0.035348
-0.026792 0.051246 0.000000 -0.039846
0.000390 0.012737 0.000000 -0.045038
-0.026043 0.015972 0.000000 -0.060824
-0.024495 0.041189 0.000000 0.002127
-0.039211 0.084785 0.000000 -0.010752
-0.036293 0.065628 0.000000 -0.025696
-0.024690 0.065464 0.000000 -0.012400
-0.058892 0.146563 0.000000 -0.019488
-0.062981 0.139846 0.000000 -0.033850
-0.050909 0.118469 0.000000 -0.018197
-0.051193 0.141981 0.000000 -0.016991
-0.043597 0.116572 0.000000 -0.015112
-0.039785 0.088204 0.000000 -0.036643
-0.056635 0.132235 0.000000 -0.032327
-0.039640 0.116555 0.000000 -0.031928
-0.038653 0.104087 0.000000 -0.017603
-0.048769 0.132326 0.000000 -0.029981
-0.036494 0.088157 0.000000 -0.033344
-0.048682 0.102886 0.000000 -0.032237
-0.059679 0.158673 0.000000 -0.014620
-0.077203 0.189784 0.000000 -0.006317
-0.063472 0.174814 0.000000 -0.025354
-0.076545 0.175507 0.000000 -0.017001
-0.079799 0.322569 0.000000 0.102769
-0.083042 0.258252 0.000000 0.026979
-0.092302 0.232655 0.000000 0.018162
-0.104723 0.261522 0.000000 0.012711
-0.043701 0.169848 0.000000 -0.010448
-0.056709 0.176742 0.000000 -0.023826
-0.067129 0.218613 0.000000 -0.005039
-0.067313 0.169801 0.000000 -0.015090
-0.094440 0.215278 0.000000 -0.011181
-0.085519 0.218644 0.000000 -0.005634
-0.078437 0.176814 0.000000 -0.019341
-0.078421 0.215166 0.000000 -0.007424
0.005354 0.270786 0.000000 0.064243
0.001760 0.264983 0.000000 0.036688
-0.059536 0.249934 0.000000 0.018267
-0.053509 0.271645 0.000000 0.065170
0.000000 0.260030 0.000000 0.000000
-0.036022 0.241446 0.000000 -0.001468
0.000367 0.262750 0.000000 0.016720
-0.035523 0.262854 0.000000 0.015898
-0.059960 0.172044 0.000000 -0.003628
-0.066432 0.213829 0.000000 -0.002980
-0.057309 0.212700 0.000000 -0.002919
-0.059940 0.213810 0.000000 -0.002193
-0.041128 0.265167 0.000000 0.037129
-0.057046 0.244186 0.000000 0.007437
-0.065467 0.250038 0.000000 0.017409
-0.043049 0.244104 0.000000 0.008913
0.000000 0.260030 0.000000 0.000000
0.000367 0.262750 0.000000 -0.016720
-0.036022 0.241446 0.000000 0.001468
-0.035523 0.262854 0.000000 -0.015898
0.005354 0.270786 0.000000 -0.064243
-0.059536 0.249934 0.000000 -0.018267
0.001760 0.264983 0.000000 -0.036688
-0.053509 0.271645 0.000000 -0.065170
-0.059960 0.172044 0.000000 0.003628
-0.057309 0.212700 0.000000 0.002919
-0.066432 0.213829 0.000000 0.002980
-0.059940 0.213810 0.000000 0.002193
-0.041128 0.265167 0.000000 -0.037129
-0.065467 0.250038 0.000000 -0.017409
-0.057046 0.244186 0.000000 -0.007437
-0.043049 0.244104 0.000000 -0.008913
-0.079799 0.322569 0.000000 -0.102769
-0.092302 0.232655 0.000000 -0.018162
-0.083042 0.258252 0.000000 -0.026979
-0.104723 0.261522 0.000000 -0.012711
-0.059679 0.158673 0.000000 0.014620
-0.063472 0.174814 0.000000 0.025354
-0.077203 0.189784 0.000000 0.006317
-0.076545 0.175507 0.000000 0.017001
-0.043701 0.169848 0.000000 0.010448
-0.067129 0.218613 0.000000 0.005039
-0.056709 0.176742 0.000000 0.023826
-0.067313 0.169801 0.000000 0.015090
-0.094440 0.215278 0.000000 0.011181
-0.078437 0.176814 0.000000 0.019341
-0.085519 0.218644 0.000000 0.005634
-0.078421 0.215166 0.000000 0.007424
-0.058892 0.146563 0.000000 0.019488
-0.050909 0.118469 0.000000 0.018197
-0.062981 0.139846 0.000000 0.033850
-0.051193 0.141981 0.000000 0.016991
-0.024495 0.041189 0.000000 -0.002127
-0.036293 0.065628 0.000000 0.025696
-0.039211 0.084785 0.000000 0.010752
-0.024690 0.065464 0.000000 0.012400
-0.043597 0.116572 0.000000 0.015112
-0.056635 0.132235 0.000000 0.032327
-0.039785 0.088204 0.000000 0.036643
-0.039640 0.116555 0.000000 0.031928
-0.038653 0.104087 0.000000 0.017603
-0.036494 0.088157 0.000000 0.033344
-0.048769 0.132326 0.000000 0.029981
-0.048682 0.102886 0.000000 0.032237

SCALARS sigma float 4
LOOKUP_TABLE default
0.044770 0.614187 0.181032 -0.029125
-0.067980 0.407993 0.093410 0.178795
-0.260365 0.976708 0.196798 0.499569
-0.411127 0.460299 0.013509 0.218344
-3.772709 -8.120631 -3.267401 4.352957
-0.805831 -2.586574 -0.931979 1.662772
-0.751429 -0.531520 -0.352459 0.953545
0.288963 -0.111037 0.048881 1.215839
0.365821 2.107050 0.679360 0.267592
-0.174066 1.216644 0.286423 0.755071
0.149484 0.338900 0.134171 0.680286
0.051928 1.318741 0.376558 0.431394
-0.329274 0.358353 0.007989 0.606727
0.101983 0.247338 0.095967 0.737859
-0.243800 0.979565 0.202133 0.666958
-0.607410 -0.026642 -0.174190 1.022512
-3.772709 -8.120631 -3.267401 -4.352957
-0.751429 -0.531520 -0.352459 -0.953545
-0.805831 -2.586574 -0.931979 -1.662772
0.288963 -0.111037 0.048881 -1.215839
0.044770 0.614187 0.181032 0.029125
-0.260365 0.976708 0.196798 -0.499569
-0.067980 0.407993 0.093410 -0.178795
-0.411127 0.460299 0.013509 -0.218344
0.365821 2.107050 0.679360 -0.267592
0.149484 0.338900 0.134171 -0.680286
-0.174066 1.216644 0.286423 -0.755071
0.051928 1.318741 0.376558 -0.431394
-0.329274 0.358353 0.007989 -0.606727
-0.243800 0.979565 0.202133 -0.666958
0.101983 0.247338 0.095967 -0.737859
-0.607410 -0.026642 -0.174190 -1.022512
-0.253415 0.816142 0.154595 0.029112
-0.254400 1.744471 0.409360 -0.152770
-0.349619 1.292086 0.258920 -0.424172
-0.029198 1.422944 0.382897 -0.196970
-0.282742 2.986116 0.742685 -0.239864
-0.443389 2.798360 0.646970 -0.506332
-0.301579 2.416037 0.580895 -0.237989
-0.094647 2.968388 0.789489 -0.213128
-0.079549 2.467509 0.656033 -0.229695
-0.246742 1.801652 0.427173 -0.594186
-0.317699 2.688960 0.651445 -0.503138
0.022127 2.489027 0.689877 -0.517243
-0.073564 2.213341 0.587851 -0.251296
-0.095935 2.776836 0.736511 -0.461297
-0.154200 1.841268 0.463480 -0.536788
-0.363545 2.076143 0.470494 -0.503062
-0.184806 3.263166 0.845703 -0.166355
-0.382508 3.801447 0.939269 -0.073918
-0.133168 3.605654 0.953980 -0.374800
-0.499928 3.480639 0.818877 -0.225944
0.077472 6.401025 1.779807 1.199895
-0.022216 5.223309 1.428872 0.326554
-0.487563 4.571292 1.121904 0.203531
-0.643149 5.027553 1.204506 0.054593
0.391759 3.708444 1.126430 -0.155746
0.082361 3.720922 1.044858 -0.371206
0.151421 4.551692 1.292064 -0.095282
-0.270911 3.454568 0.874631 -0.238124
-0.664925 4.177367 0.964957 -0.195317
-0.375982 4.352016 1.092317 -0.108707
-0.532920 3.492634 0.813108 -0.294650
-0.199653 4.354146 1.141344 -0.125072
2.416008 6.378260 2.416008 0.848570
2.369179 6.254633 2.369179 0.486439
0.608008 5.310627 1.625999 0.231820
0.801031 5.781769 1.808461 0.847284
2.329068 6.148739 2.329068 0.000000
1.208601 5.381297 1.810412 -0.024986
2.351113 6.206939 2.351113 0.222012
1.386037 5.843204 1.986055 0.205707
-0.040267 3.587371 0.974479 -0.063425
0.131763 4.455002 1.260100 -0.057494
0.379858 4.528040 1.348324 -0.050869
0.315103 4.524368 1.329525 -0.043154
1.208646 5.818344 1.930492 0.487630
0.644162 5.218076 1.610505 0.088716
0.441007 5.248979 1.563183 0.215780
1.033321 5.364234 1.757570 0.115341
2.329068 6.148739 2.329068 0.000000
2.351113 6.206939 2.351113 -0.222012
1.208601 5.381297 1.810412 0.024986
1.386037 5.843204 1.986055 -0.205707
2.416008 6.378260 2.416008 -0.848570
0.608008 5.310627 1.625999 -0.231820
2.369179 6.254633 2.369179 -0.486439
0.801031 5.781769 1.808461 -0.847284
-0.040267 3.587371 0.974479 0.063425
0.379858 4.528040 1.348324 0.050869
0.131763 4.455002 1.260100 0.057494
0.315103 4.524368 1.329525 0.043154
1.208646 5.818344 1.930492 -0.487630
0.441007 5.248979 1.563183 -0.215780
0.644162 5.218076 1.610505 -0.088716
1.033321 5.364234 1.757570 -0.115341
0.077472 6.401025 1.779807 -1.199895
-0.487563 4.571292 1.121904 -0.203531
-0.022216 5.223309 1.428872 -0.326554
-0.643149 5.027553 1.204506 -0.054593
-0.184806 3.263166 0.845703 0.166355
-0.133168 3.605654 0.953980 0.374800
-0.382508 3.801447 0.939269 0.073918
-0.499928 3.480639 0.818877 0.225944
0.391759 3.708444 1.126430 0.155746
0.151421 4.551692 1.292064 0.095282
0.082361 3.720922 1.044858 0.371206
-0.270911 3.454568 0.874631 0.238124
-0.664925 4.177367 0.964957 0.195317
-0.532920 3.492634 0.813108 0.294650
-0.375982 4.352016 1.092317 0.108707
-0.199653 4.354146 1.141344 0.125072
-0.282742 2.986116 0.742685 0.239864
-0.301579 2.416037 0.580895 0.237989
-0.443389 2.798360 0.646970 0.506332
-0.094647 2.968388 0.789489 0.213128
-0.253415 0.816142 0.154595 -0.029112
-0.349619 1.292086 0.258920 0.424172
-0.254400 1.744471 0.409360 0.152770
-0.029198 1.422944 0.382897 0.196970
-0.079549 2.467509 0.656033 0.229695
-0.317699 2.688960 0.651445 0.503138
-0.246742 1.801652 0.427173 0.594186
0.022127 2.489027 0.689877 0.517243
-0.073564 2.213341 0.587851 0.251296
-0.154200 1.841268 0.463480 0.536788
-0.095935 2.776836 0.736511 0.461297
-0.363545 2.076143 0.470494 0.503062

