# vtk DataFile Version 2.0
Unstructured Grid Example
ASCII
DATASET UNSTRUCTURED_GRID

POINTS 1089 float
0.008199 -0.185389 0.000000 
0.991801 -0.185389 0.000000 
1.000000 1.000000 0.000000 
0.000000 1.000000 0.000000 
0.500000 -0.100000 0.000000 
0.969605 0.365749 0.000000 
0.500000 1.000000 0.000000 
0.030395 0.365749 0.000000 
0.500000 0.365939 0.000000 
0.259145 -0.181255 0.000000 
0.500000 0.093650 0.000000 
0.254273 0.080393 0.000000 
0.740855 -0.181255 0.000000 
0.745727 0.080393 0.000000 
0.985585 0.079774 0.000000 
0.736224 0.362521 0.000000 
0.959468 0.666505 0.000000 
0.732889 0.671222 0.000000 
0.750000 1.000000 0.000000 
0.500000 0.672898 0.000000 
0.250000 1.000000 0.000000 
0.267111 0.671222 0.000000 
0.040532 0.666505 0.000000 
0.263776 0.362521 0.000000 
0.014415 0.079774 0.000000 
0.133236 -0.185725 0.000000 
0.253251 -0.052792 0.000000 
0.132065 -0.057345 0.000000 
0.500000 -0.023203 0.000000 
0.373560 -0.039450 0.000000 
0.384085 -0.165822 0.000000 
0.378463 0.222538 0.000000 
0.375271 0.088234 0.000000 
0.500000 0.224785 0.000000 
0.615915 -0.165822 0.000000 
0.626440 -0.039450 0.000000 
0.867935 -0.057345 0.000000 
0.746749 -0.052792 0.000000 
0.866764 -0.185725 0.000000 
0.624729 0.088234 0.000000 
0.621537 0.222538 0.000000 
0.990046 -0.056224 0.000000 
0.865610 0.077052 0.000000 
0.852943 0.361501 0.000000 
0.859874 0.216631 0.000000 
0.978157 0.220771 0.000000 
0.741285 0.218369 0.000000 
0.618620 0.364966 0.000000 
0.962306 0.514088 0.000000 
0.847479 0.512093 0.000000 
0.854882 0.832812 0.000000 
0.846602 0.669025 0.000000 
0.966176 0.824295 0.000000 
0.732704 0.513512 0.000000 
0.616821 0.515270 0.000000 
0.875000 1.000000 0.000000 
0.738815 0.834350 0.000000 
0.500000 0.834838 0.000000 
0.619956 0.834710 0.000000 
0.625000 1.000000 0.000000 
0.617072 0.672444 0.000000 
0.500000 0.516015 0.000000 
0.375000 1.000000 0.000000 
0.380044 0.834710 0.000000 
0.145118 0.832812 0.000000 
0.261185 0.834350 0.000000 
0.125000 1.000000 0.000000 
0.382928 0.672444 0.000000 
0.383179 0.515270 0.000000 
0.033824 0.824295 0.000000 
0.153398 0.669025 0.000000 
0.147057 0.361501 0.000000 
0.152521 0.512093 0.000000 
0.037694 0.514088 0.000000 
0.267296 0.513512 0.000000 
0.381380 0.364966 0.000000 
0.021843 0.220771 0.000000 
0.140126 0.216631 0.000000 
0.134390 0.077052 0.000000 
0.009954 -0.056224 0.000000 
0.258715 0.218369 0.000000 
0.070570 -0.185823 0.000000 
0.132412 -0.122389 0.000000 
0.070636 -0.122432 0.000000 
0.255261 -0.117813 0.000000 
0.194016 -0.121031 0.000000 
0.196148 -0.184384 0.000000 
0.192983 0.010424 0.000000 
0.192834 -0.055972 0.000000 
0.253098 0.013292 0.000000 
0.500000 -0.071183 0.000000 
0.435432 -0.087576 0.000000 
0.443168 -0.147628 0.000000 
0.436059 0.029891 0.000000 
0.435119 -0.029653 0.000000 
0.500000 0.032888 0.000000 
0.321988 -0.175585 0.000000 
0.375693 -0.102482 0.000000 
0.315888 -0.112023 0.000000 
0.439876 0.293874 0.000000 
0.439051 0.224182 0.000000 
0.500000 0.294250 0.000000 
0.314457 0.083973 0.000000 
0.376847 0.154399 0.000000 
0.316285 0.151393 0.000000 
0.500000 0.157809 0.000000 
0.438132 0.156856 0.000000 
0.437127 0.092045 0.000000 
0.313357 -0.047390 0.000000 
0.373970 0.023802 0.000000 
0.313257 0.017845 0.000000 
0.556832 -0.147628 0.000000 
0.564568 -0.087576 0.000000 
0.684112 -0.112023 0.000000 
0.624307 -0.102482 0.000000 
0.678012 -0.175585 0.000000 
0.564881 -0.029653 0.000000 
0.563941 0.029891 0.000000 
0.929364 -0.122432 0.000000 
0.867588 -0.122389 0.000000 
0.929430 -0.185823 0.000000 
0.746902 0.013292 0.000000 
0.807166 -0.055972 0.000000 
0.807017 0.010424 0.000000 
0.803852 -0.184384 0.000000 
0.805984 -0.121031 0.000000 
0.744739 -0.117813 0.000000 
0.560949 0.224182 0.000000 
0.560124 0.293874 0.000000 
0.562873 0.092045 0.000000 
0.561868 0.156856 0.000000 
0.683715 0.151393 0.000000 
0.623153 0.154399 0.000000 
0.685543 0.083973 0.000000 
0.686643 -0.047390 0.000000 
0.686743 0.017845 0.000000 
0.626030 0.023802 0.000000 
0.991146 -0.121744 0.000000 
0.928961 -0.057301 0.000000 
0.925613 0.077600 0.000000 
0.927757 0.009434 0.000000 
0.988239 0.011036 0.000000 
0.867298 0.009185 0.000000 
0.805671 0.078015 0.000000 
0.911228 0.362649 0.000000 
0.915143 0.289615 0.000000 
0.973868 0.292775 0.000000 
0.797623 0.288540 0.000000 
0.856406 0.288383 0.000000 
0.794647 0.361627 0.000000 
0.982155 0.149742 0.000000 
0.919042 0.217749 0.000000 
0.922629 0.147065 0.000000 
0.619996 0.292729 0.000000 
0.559397 0.365805 0.000000 
0.743726 0.148684 0.000000 
0.681629 0.220397 0.000000 
0.677568 0.363760 0.000000 
0.679519 0.291160 0.000000 
0.738699 0.289613 0.000000 
0.863043 0.146198 0.000000 
0.800651 0.216971 0.000000 
0.803438 0.146832 0.000000 
0.965602 0.439422 0.000000 
0.907645 0.436870 0.000000 
0.903015 0.589210 0.000000 
0.904772 0.512357 0.000000 
0.960091 0.589755 0.000000 
0.849854 0.436047 0.000000 
0.792071 0.436306 0.000000 
0.921910 0.914903 0.000000 
0.910961 0.830096 0.000000 
0.976511 0.907213 0.000000 
0.790014 0.670266 0.000000 
0.849243 0.750085 0.000000 
0.792571 0.751463 0.000000 
0.961139 0.744528 0.000000 
0.905181 0.747758 0.000000 
0.902904 0.667592 0.000000 
0.617515 0.439178 0.000000 
0.558812 0.439835 0.000000 
0.734145 0.437151 0.000000 
0.675973 0.438206 0.000000 
0.674604 0.592423 0.000000 
0.674920 0.514458 0.000000 
0.732188 0.591570 0.000000 
0.846227 0.589719 0.000000 
0.789365 0.590617 0.000000 
0.790188 0.512626 0.000000 
0.937500 1.000000 0.000000 
0.863874 0.916550 0.000000 
0.743967 0.917052 0.000000 
0.804276 0.916948 0.000000 
0.812500 1.000000 0.000000 
0.797360 0.833891 0.000000 
0.735062 0.752262 0.000000 
0.500000 0.917105 0.000000 
0.561186 0.917091 0.000000 
0.562500 1.000000 0.000000 
0.559169 0.753270 0.000000 
0.560043 0.834790 0.000000 
0.500000 0.753360 0.000000 
0.687500 1.000000 0.000000 
0.622296 0.917084 0.000000 
0.683256 0.917077 0.000000 
0.558473 0.515811 0.000000 
0.500000 0.440048 0.000000 
0.675210 0.671935 0.000000 
0.616640 0.593093 0.000000 
0.500000 0.593701 0.000000 
0.558393 0.593528 0.000000 
0.558616 0.672763 0.000000 
0.679602 0.834578 0.000000 
0.618180 0.753075 0.000000 
0.676869 0.752756 0.000000 
0.437500 1.000000 0.000000 
0.438814 0.917091 0.000000 
0.316744 0.917077 0.000000 
0.377704 0.917084 0.000000 
0.312500 1.000000 0.000000 
0.439957 0.834790 0.000000 
0.440831 0.753270 0.000000 
0.078090 0.914903 0.000000 
0.136126 0.916550 0.000000 
0.062500 1.000000 0.000000 
0.264938 0.752262 0.000000 
0.202640 0.833891 0.000000 
0.207429 0.751463 0.000000 
0.187500 1.000000 0.000000 
0.195724 0.916948 0.000000 
0.256033 0.917052 0.000000 
0.441527 0.515811 0.000000 
0.441188 0.439835 0.000000 
0.441384 0.672763 0.000000 
0.441607 0.593528 0.000000 
0.325396 0.592423 0.000000 
0.383360 0.593093 0.000000 
0.324790 0.671935 0.000000 
0.320398 0.834578 0.000000 
0.323131 0.752756 0.000000 
0.381820 0.753075 0.000000 
0.023489 0.907213 0.000000 
0.089039 0.830096 0.000000 
0.097096 0.667592 0.000000 
0.094819 0.747758 0.000000 
0.038861 0.744528 0.000000 
0.150757 0.750085 0.000000 
0.209986 0.670266 0.000000 
0.088772 0.362649 0.000000 
0.092355 0.436870 0.000000 
0.034398 0.439422 0.000000 
0.207929 0.436306 0.000000 
0.150146 0.436047 0.000000 
0.205353 0.361627 0.000000 
0.039909 0.589755 0.000000 
0.095228 0.512357 0.000000 
0.096985 0.589210 0.000000 
0.382485 0.439178 0.000000 
0.440603 0.365805 0.000000 
0.267812 0.591570 0.000000 
0.325080 0.514458 0.000000 
0.322432 0.363760 0.000000 
0.324027 0.438206 0.000000 
0.265855 0.437151 0.000000 
0.153773 0.589719 0.000000 
0.209812 0.512626 0.000000 
0.210635 0.590617 0.000000 
0.026132 0.292775 0.000000 
0.084857 0.289615 0.000000 
0.077371 0.147065 0.000000 
0.080958 0.217749 0.000000 
0.017845 0.149742 0.000000 
0.143594 0.288383 0.000000 
0.202377 0.288540 0.000000 
0.071039 -0.057301 0.000000 
0.008854 -0.121744 0.000000 
0.194329 0.078015 0.000000 
0.132702 0.009185 0.000000 
0.011761 0.011036 0.000000 
0.072243 0.009434 0.000000 
0.074387 0.077600 0.000000 
0.380004 0.292729 0.000000 
0.261301 0.289613 0.000000 
0.320481 0.291160 0.000000 
0.318371 0.220397 0.000000 
0.256274 0.148684 0.000000 
0.136957 0.146198 0.000000 
0.196562 0.146832 0.000000 
0.199349 0.216971 0.000000 
0.039359 -0.185603 0.000000 
0.070607 -0.154345 0.000000 
0.039525 -0.154099 0.000000 
0.132818 -0.154285 0.000000 
0.101706 -0.154438 0.000000 
0.101864 -0.185894 0.000000 
0.101466 -0.090213 0.000000 
0.101536 -0.122540 0.000000 
0.132134 -0.090066 0.000000 
0.257019 -0.149785 0.000000 
0.226061 -0.151635 0.000000 
0.227648 -0.183080 0.000000 
0.223691 -0.087335 0.000000 
0.224698 -0.119692 0.000000 
0.253999 -0.085455 0.000000 
0.164670 -0.185243 0.000000 
0.195019 -0.152951 0.000000 
0.163929 -0.153811 0.000000 
0.223538 0.045200 0.000000 
0.223054 0.011647 0.000000 
0.253554 0.046706 0.000000 
0.162490 -0.056860 0.000000 
0.192743 -0.022927 0.000000 
0.162530 -0.023790 0.000000 
0.252973 -0.019872 0.000000 
0.222888 -0.021632 0.000000 
0.223089 -0.054633 0.000000 
0.163245 -0.121907 0.000000 
0.193265 -0.088687 0.000000 
0.162740 -0.089577 0.000000 
0.500000 -0.089339 0.000000 
0.467095 -0.103693 0.000000 
0.469693 -0.130307 0.000000 
0.466719 -0.052351 0.000000 
0.466553 -0.078314 0.000000 
0.500000 -0.048600 0.000000 
0.414302 -0.158308 0.000000 
0.437440 -0.116957 0.000000 
0.408291 -0.126816 0.000000 
0.468167 0.062215 0.000000 
0.467831 0.032054 0.000000 
0.500000 0.062790 0.000000 
0.404045 -0.034637 0.000000 
0.435543 -0.000183 0.000000 
0.404296 -0.003991 0.000000 
0.500000 0.004126 0.000000 
0.467465 0.002843 0.000000 
0.467078 -0.025317 0.000000 
0.290608 -0.178804 0.000000 
0.318477 -0.144023 0.000000 
0.287846 -0.147296 0.000000 
0.378790 -0.134179 0.000000 
0.348826 -0.139756 0.000000 
0.353201 -0.171376 0.000000 
0.344187 -0.075797 0.000000 
0.345890 -0.107820 0.000000 
0.374135 -0.070925 0.000000 
0.434954 -0.058674 0.000000 
0.404272 -0.065147 0.000000 
0.405418 -0.095779 0.000000 
[...]
POINT_DATA 1089

SCALARS u_h float 2
LOOKUP_TABLE default
0.008199 -0.185389 
-0.008199 -0.185389 
0.000000 0.000000 
0.000000 0.000000 
-0.000000 -0.100000 
-0.030395 -0.134251 
0.000000 0.000000 
0.030395 -0.134251 
-0.000000 -0.134061 
0.009145 -0.181255 
-0.000000 -0.156350 
0.004273 -0.169607 
-0.009145 -0.181255 
-0.004273 -0.169607 
-0.014415 -0.170226 
-0.013776 -0.137479 
-0.040532 -0.083495 
-0.017111 -0.078778 
0.000000 0.000000 
-0.000000 -0.077102 
0.000000 0.000000 
0.017111 -0.078778 
0.040532 -0.083495 
0.013776 -0.137479 
0.014415 -0.170226 
0.008236 -0.185725 
0.003251 -0.177792 
0.007065 -0.182345 
0.000000 -0.148203 
-0.001440 -0.164450 
0.009085 -0.165822 
0.003463 -0.152462 
0.000271 -0.161766 
-0.000000 -0.150215 
-0.009085 -0.165822 
0.001440 -0.164450 
-0.007065 -0.182345 
-0.003251 -0.177792 
-0.008236 -0.185725 
-0.000271 -0.161766 
-0.003463 -0.152462 
-0.009954 -0.181224 
-0.009390 -0.172948 
-0.022057 -0.138499 
-0.015126 -0.158369 
-0.021843 -0.154229 
-0.008715 -0.156631 
-0.006380 -0.135034 
-0.037694 -0.110912 
-0.027521 -0.112907 
-0.020118 -0.042188 
-0.028398 -0.080975 
-0.033824 -0.050705 
-0.017296 -0.111488 
-0.008179 -0.109730 
0.000000 0.000000 
-0.011185 -0.040650 
-0.000000 -0.040162 
-0.005044 -0.040290 
0.000000 0.000000 
-0.007928 -0.077556 
-0.000000 -0.108985 
0.000000 0.000000 
0.005044 -0.040290 
0.020118 -0.042188 
0.011185 -0.040650 
0.000000 0.000000 
0.007928 -0.077556 
0.008179 -0.109730 
0.033824 -0.050705 
0.028398 -0.080975 
0.022057 -0.138499 
0.027521 -0.112907 
0.037694 -0.110912 
0.017296 -0.111488 
0.006380 -0.135034 
0.021843 -0.154229 
0.015126 -0.158369 
0.009390 -0.172948 
0.009954 -0.181224 
0.008715 -0.156631 
0.008070 -0.185823 
0.007412 -0.184889 
0.008136 -0.184932 
0.005261 -0.180313 
0.006516 -0.183531 
0.008648 -0.184384 
0.005483 -0.177076 
0.005334 -0.180972 
0.003098 -0.174208 
0.000000 -0.133683 
-0.002068 -0.150076 
0.005668 -0.147628 
-0.001441 -0.157609 
-0.002381 -0.154653 
-0.000000 -0.154612 
0.009488 -0.175585 
0.000693 -0.164982 
0.003388 -0.174523 
0.002376 -0.143626 
0.001551 -0.150818 
-0.000000 -0.143250 
0.001957 -0.166027 
0.001847 -0.158101 
0.003785 -0.161107 
-0.000000 -0.154691 
0.000632 -0.155644 
-0.000373 -0.157955 
0.000857 -0.172390 
-0.001030 -0.163698 
0.000757 -0.169655 
-0.005668 -0.147628 
0.002068 -0.150076 
-0.003388 -0.174523 
-0.000693 -0.164982 
-0.009488 -0.175585 
0.002381 -0.154653 
0.001441 -0.157609 
-0.008136 -0.184932 
-0.007412 -0.184889 
-0.008070 -0.185823 
-0.003098 -0.174208 
-0.005334 -0.180972 
-0.005483 -0.177076 
-0.008648 -0.184384 
-0.006516 -0.183531 
-0.005261 -0.180313 
-0.001551 -0.150818 
-0.002376 -0.143626 
0.000373 -0.157955 
-0.000632 -0.155644 
-0.003785 -0.161107 
-0.001847 -0.158101 
-0.001957 -0.166027 
-0.000857 -0.172390 
-0.000757 -0.169655 
0.001030 -0.163698 
-0.008854 -0.184244 
-0.008539 -0.182301 
-0.011887 -0.172400 
-0.009743 -0.178066 
-0.011761 -0.176464 
-0.007702 -0.178315 
-0.006829 -0.171985 
-0.026272 -0.137351 
-0.022357 -0.147885 
-0.026132 -0.144725 
-0.014877 -0.148960 
-0.018594 -0.149117 
-0.017853 -0.138373 
-0.017845 -0.162758 
-0.018458 -0.157251 
-0.014871 -0.165435 
-0.005004 -0.144771 
-0.003103 -0.134195 
-0.006274 -0.163816 
-0.005871 -0.154603 
-0.009932 -0.136240 
-0.007981 -0.146340 
-0.011301 -0.147887 
-0.011957 -0.166302 
-0.011849 -0.158029 
-0.009062 -0.165668 
-0.034398 -0.123078 
-0.029855 -0.125630 
-0.034485 -0.098290 
-0.032728 -0.112643 
-0.039909 -0.097745 
-0.025146 -0.126453 
-0.020429 -0.126194 
-0.015590 -0.022597 
-0.026539 -0.044904 
-0.023489 -0.030287 
-0.022486 -0.079734 
-0.025757 -0.062415 
-0.019929 -0.061037 
-0.038861 -0.067972 
-0.032319 -0.064742 
-0.034596 -0.082408 
-0.007485 -0.123322 
-0.003688 -0.122665 
-0.015855 -0.125349 
-0.011527 -0.124294 
-0.012896 -0.095077 
-0.012580 -0.110542 
-0.017812 -0.095930 
-0.028773 -0.097781 
-0.023135 -0.096883 
-0.022312 -0.112374 
0.000000 0.000000 
-0.011126 -0.020950 
-0.006033 -0.020448 
-0.008224 -0.020552 
0.000000 0.000000 
-0.015140 -0.041109 
-0.014938 -0.060238 
-0.000000 -0.020395 
-0.001314 -0.020409 
0.000000 0.000000 
-0.003331 -0.059230 
-0.002457 -0.040210 
-0.000000 -0.059140 
0.000000 0.000000 
-0.002704 -0.020416 
-0.004244 -0.020423 
-0.004027 -0.109189 
-0.000000 -0.122452 
-0.012290 -0.078065 
-0.008360 -0.094407 
-0.000000 -0.093799 
-0.004107 -0.093972 
-0.003884 -0.077237 
-0.007898 -0.040422 
-0.006820 -0.059425 
-0.010631 -0.059744 
0.000000 0.000000 
0.001314 -0.020409 
0.004244 -0.020423 
0.002704 -0.020416 
0.000000 0.000000 
0.002457 -0.040210 
0.003331 -0.059230 
0.015590 -0.022597 
0.011126 -0.020950 
0.000000 0.000000 
0.014938 -0.060238 
0.015140 -0.041109 
0.019929 -0.061037 
0.000000 0.000000 
0.008224 -0.020552 
0.006033 -0.020448 
0.004027 -0.109189 
0.003688 -0.122665 
0.003884 -0.077237 
0.004107 -0.093972 
0.012896 -0.095077 
0.008360 -0.094407 
0.012290 -0.078065 
0.007898 -0.040422 
0.010631 -0.059744 
0.006820 -0.059425 
0.023489 -0.030287 
0.026539 -0.044904 
0.034596 -0.082408 
0.032319 -0.064742 
0.038861 -0.067972 
0.025757 -0.062415 
0.022486 -0.079734 
0.026272 -0.137351 
0.029855 -0.125630 
0.034398 -0.123078 
0.020429 -0.126194 
0.025146 -0.126453 
0.017853 -0.138373 
0.039909 -0.097745 
0.032728 -0.112643 
0.034485 -0.098290 
0.007485 -0.123322 
0.003103 -0.134195 
0.017812 -0.095930 
0.012580 -0.110542 
0.009932 -0.136240 
0.011527 -0.124294 
0.015855 -0.125349 
0.028773 -0.097781 
0.022312 -0.112374 
0.023135 -0.096883 
0.026132 -0.144725 
0.022357 -0.147885 
0.014871 -0.165435 
0.018458 -0.157251 
0.017845 -0.162758 
0.018594 -0.149117 
0.014877 -0.148960 
0.008539 -0.182301 
0.008854 -0.184244 
0.006829 -0.171985 
0.007702 -0.178315 
0.011761 -0.176464 
0.009743 -0.178066 
0.011887 -0.172400 
0.005004 -0.144771 
0.011301 -0.147887 
0.007981 -0.146340 
0.005871 -0.154603 
0.006274 -0.163816 
0.011957 -0.166302 
0.009062 -0.165668 
0.011849 -0.158029 
0.008109 -0.185603 
0.008107 -0.185595 
0.008275 -0.185349 
0.007818 -0.185535 
0.007956 -0.185688 
0.008114 -0.185894 
0.007716 -0.183963 
0.007786 -0.185040 
0.007134 -0.183816 
0.007019 -0.181035 
0.007311 -0.182885 
0.008898 -0.183080 
0.004941 -0.181085 
0.005948 -0.182192 
0.003999 -0.179205 
0.008420 -0.185243 
0.007519 -0.184201 
0.007679 -0.185061 
0.004788 -0.173550 
0.004304 -0.175853 
0.003554 -0.172044 
0.006240 -0.181860 
0.005243 -0.179177 
0.006280 -0.180040 
0.002973 -0.176122 
0.004138 -0.177882 
0.004339 -0.179633 
0.006995 -0.184407 
0.005765 -0.182437 
0.006490 -0.183327 
0.000000 -0.120589 
-0.001655 -0.134943 
0.000943 -0.130307 
-0.002031 -0.146101 
-0.002197 -0.140814 
0.000000 -0.142350 
0.008052 -0.158308 
-0.000060 -0.148207 
0.002041 -0.158066 
-0.000583 -0.156535 
-0.000919 -0.155446 
-0.000000 -0.155960 
-0.002205 -0.159637 
-0.001957 -0.156433 
-0.001954 -0.160241 
-0.000000 -0.152124 
-0.001285 -0.153407 
-0.001672 -0.150317 
0.009358 -0.178804 
0.005977 -0.175273 
0.006596 -0.178546 
0.003790 -0.165429 
0.005076 -0.171006 
0.009451 -0.171376 
0.000437 -0.169547 
0.002140 -0.170320 
-0.000865 -0.164675 
-0.002546 -0.152424 
-0.001978 -0.158897 
-0.000832 -0.158279 
0.001350 -0.138950 
0.001165 -0.143330 
-0.000000 -0.138915 
0.002448 -0.151539 
0.001976 -0.147509 
0.003064 -0.148103 
-0.000000 -0.147027 
0.000965 -0.147141 
0.000748 -0.150362 
0.003064 -0.167945 
0.002820 -0.163750 
0.003955 -0.165412 
0.001044 -0.160171 
0.001836 -0.161967 
0.001006 -0.163928 
0.003663 -0.156783 
0.002732 -0.159595 
0.002659 -0.155536 
-0.000000 -0.155900 
0.000007 -0.156211 
-0.000276 -0.156766 
0.000517 -0.152969 
0.000270 -0.154931 
-0.000000 -0.152781 
-0.000198 -0.159704 
0.000140 -0.157124 
0.000476 -0.158501 
0.001807 -0.154420 
0.001148 -0.156741 
0.001103 -0.153535 
0.004420 -0.177799 
-0.000355 -0.168739 
0.001731 -0.173532 
0.002929 -0.176717 
0.002081 -0.175395 
-0.000904 -0.158120 
-0.000439 -0.162924 
-0.000856 -0.160366 
-0.001463 -0.160522 
-0.001414 -0.164170 
0.002356 -0.170175 
0.001773 -0.173869 
0.001898 -0.172138 
0.001245 -0.167979 
0.000288 -0.165523 
-0.000515 -0.167852 
-0.000252 -0.166807 
0.000585 -0.171109 
-0.000943 -0.130307 
0.001655 -0.134943 
-0.002041 -0.158066 
0.000060 -0.148207 
-0.008052 -0.158308 
0.002197 -0.140814 
0.002031 -0.146101 
-0.006596 -0.178546 
-0.005977 -0.175273 
-0.009358 -0.178804 
0.000865 -0.164675 
-0.002140 -0.170320 
-0.000437 -0.169547 
-0.009451 -0.171376 
-0.005076 -0.171006 
-0.003790 -0.165429 
0.000919 -0.155446 
0.000583 -0.156535 
0.001672 -0.150317 
0.001285 -0.153407 
0.001954 -0.160241 
0.001957 -0.156433 
0.002205 -0.159637 
0.000832 -0.158279 
0.001978 -0.158897 
0.002546 -0.152424 
-0.008275 -0.185349 
-0.008107 -0.185595 
-0.008109 -0.185603 
-0.007134 -0.183816 
-0.007786 -0.185040 
-0.007716 -0.183963 
-0.008114 -0.185894 
-0.007956 -0.185688 
-0.007818 -0.185535 
-0.003554 -0.172044 
-0.004304 -0.175853 
-0.004788 -0.173550 
-0.004339 -0.179633 
-0.004138 -0.177882 
-0.002973 -0.176122 
-0.006280 -0.180040 
-0.005243 -0.179177 
-0.006240 -0.181860 
-0.008898 -0.183080 
-0.007311 -0.182885 
-0.007019 -0.181035 
-0.007679 -0.185061 
-0.007519 -0.184201 
-0.008420 -0.185243 
-0.003999 -0.179205 
-0.005948 -0.182192 
-0.004941 -0.181085 
-0.006490 -0.183327 
-0.005765 -0.182437 
-0.006995 -0.184407 
-0.001165 -0.143330 
-0.001350 -0.138950 
-0.000748 -0.150362 
-0.000965 -0.147141 
-0.003064 -0.148103 
-0.001976 -0.147509 
-0.002448 -0.151539 
0.000276 -0.156766 
-0.000007 -0.156211 
-0.000476 -0.158501 
-0.000140 -0.157124 
0.000198 -0.159704 
-0.000270 -0.154931 
-0.000517 -0.152969 
-0.003955 -0.165412 
-0.002820 -0.163750 
-0.003064 -0.167945 
-0.002659 -0.155536 
-0.002732 -0.159595 
-0.003663 -0.156783 
-0.001006 -0.163928 
-0.001836 -0.161967 
-0.001044 -0.160171 
-0.001103 -0.153535 
-0.001148 -0.156741 
-0.001807 -0.154420 
-0.004420 -0.177799 
-0.002081 -0.175395 
-0.002929 -0.176717 
-0.001731 -0.173532 
0.000355 -0.168739 
-0.002356 -0.170175 
-0.000288 -0.165523 
-0.001245 -0.167979 
-0.001898 -0.172138 
-0.001773 -0.173869 
0.000904 -0.158120 
0.001414 -0.164170 
0.001463 -0.160522 
0.000856 -0.160366 
0.000439 -0.162924 
-0.000585 -0.171109 
0.000252 -0.166807 
0.000515 -0.167852 
-0.008473 -0.185051 
-0.008482 -0.184641 
-0.009236 -0.181867 
-0.008785 -0.183475 
-0.009333 -0.182965 
-0.008257 -0.183829 
-0.007824 -0.182476 
-0.013135 -0.171527 
-0.011826 -0.174647 
-0.012983 -0.173512 
-0.009572 -0.175784 
-0.010700 -0.175402 
-0.010644 -0.172869 
-0.010755 -0.179046 
-0.010738 -0.177427 
-0.009879 -0.179842 
-0.006024 -0.174679 
-0.005540 -0.170964 
-0.007248 -0.180504 
-0.006618 -0.177891 
-0.008117 -0.172650 
-0.007239 -0.175426 
-0.008422 -0.175793 
-0.009025 -0.180372 
-0.008739 -0.178367 
-0.008158 -0.180604 
-0.028350 -0.136103 
-0.026312 -0.141471 
-0.028290 -0.139612 
-0.022339 -0.143575 
-0.024330 -0.142764 
-0.024170 -0.138120 
-0.023969 -0.149597 
-0.024242 -0.146582 
-0.022172 -0.151429 
-0.014455 -0.143456 
-0.016389 -0.143861 
-0.015791 -0.137994 
-0.016842 -0.153911 
-0.016725 -0.149182 
-0.015086 -0.153945 
-0.019946 -0.138561 
-0.018357 -0.144056 
-0.020345 -0.143982 
-0.016044 -0.166633 
-0.016343 -0.164346 
-0.014649 -0.168088 
-0.020141 -0.156009 
-0.018185 -0.160317 
-0.019789 -0.158619 
-0.015042 -0.162203 
-0.016607 -0.161492 
-0.016787 -0.158019 
-0.020474 -0.148707 
-0.018611 -0.153521 
-0.020388 -0.152715 
-0.002751 -0.139183 
-0.001539 -0.134009 
-0.004248 -0.148874 
-0.003650 -0.144119 
-0.004711 -0.134550 
-0.004202 -0.139597 
-0.005719 -0.140155 
-0.005197 -0.166874 
-0.004977 -0.162540 
-0.007247 -0.155666 
-0.006086 -0.159300 
-0.007460 -0.160409 
-0.004812 -0.158066 
-0.004605 -0.153510 
-0.011820 -0.136878 
-0.010742 -0.142234 
-0.012568 -0.142896 
-0.007312 -0.140813 
-0.008987 -0.141522 
-0.008119 -0.135611 
-0.010007 -0.152462 
-0.009602 -0.147145 
-0.008428 -0.151619 
-0.005538 -0.149761 
-0.006934 -0.150698 
-0.006446 -0.145530 
-0.013287 -0.169074 
-0.013485 -0.162498 
-0.013412 -0.166074 
-0.011934 -0.169630 
-0.010579 -0.169784 
-0.013064 -0.148511 
-0.010256 -0.157437 
-0.011653 -0.153167 
-0.013352 -0.153679 
-0.013477 -0.158356 
-0.006508 -0.168079 
-0.009218 -0.169562 
-0.007856 -0.168985 
-0.007645 -0.164875 
-0.008908 -0.161334 
-0.011937 -0.162423 
-0.010407 -0.162021 
-0.010504 -0.166155 
-0.032469 -0.128791 
-0.030324 -0.130494 
-0.033816 -0.118458 
-0.032157 -0.124615 
-0.036154 -0.117118 
-0.028131 -0.131644 
-0.025907 -0.132337 
-0.037690 -0.090814 
-0.037257 -0.098208 
-0.040458 -0.090763 
-0.030139 -0.112911 
-0.033775 -0.105646 
-0.031061 -0.105708 
-0.038965 -0.104457 
-0.036422 -0.105267 
-0.035255 -0.112012 
-0.019206 -0.132486 
-0.017018 -0.132116 
-0.023667 -0.132659 
-0.021428 -0.132686 
-0.023952 -0.119767 
-0.022779 -0.126424 
-0.026447 -0.119872 
-0.031403 -0.119300 
-0.028939 -0.119742 
-0.027512 -0.126213 
-0.010173 -0.012314 
-0.019132 -0.025163 
-0.014940 -0.017505 
-0.023136 -0.043244 
-0.021827 -0.034043 
-0.018641 -0.032475 
-0.029506 -0.041063 
-0.025576 -0.036777 
-0.030207 -0.047365 
-0.019726 -0.079222 
-0.021471 -0.070565 
-0.018760 -0.070070 
-0.027406 -0.071916 
-0.024358 -0.071173 
-0.025384 -0.080319 
-0.020451 -0.051725 
-0.022734 -0.061629 
-0.023355 -0.052489 
-0.040039 -0.075912 
-0.037008 -0.074901 
-0.037640 -0.083057 
-0.033474 -0.057149 
-0.035671 -0.066291 
-0.036853 -0.059608 
-0.031490 -0.081686 
-0.033815 -0.073820 
-0.030581 -0.072803 
-0.026540 -0.053588 
-0.028974 -0.063443 
-0.029958 -0.055123 
-0.003427 -0.128684 
-0.001718 -0.128516 
-0.006977 -0.129420 
-0.005175 -0.128994 
-0.005865 -0.116411 
-0.005561 -0.122942 
-0.007890 -0.116753 
-0.014877 -0.131631 
-0.012797 -0.131076 
-0.014366 -0.118137 
-0.013656 -0.124828 
-0.016673 -0.118635 
-0.010785 -0.130496 
-0.008845 -0.129932 
-0.015117 -0.087123 
-0.015303 -0.095485 
-0.017631 -0.087543 
-0.010343 -0.110109 
-0.012842 -0.103015 
-0.010552 -0.102617 
-0.017688 -0.103917 
-0.015220 -0.103453 
-0.014897 -0.111009 
-0.009471 -0.123782 
-0.012134 -0.117639 
-0.009976 -0.117170 
-0.034787 -0.090553 
-0.028826 -0.089594 
-0.031811 -0.090116 
-0.031641 -0.098116 
-0.028316 -0.105548 
-0.020267 -0.088008 
-0.020245 -0.104387 
-0.020425 -0.096401 
-0.023022 -0.088512 
-0.025883 -0.089047 
-0.018116 -0.125819 
-0.024903 -0.112708 
-0.021479 -0.119491 
-0.019047 -0.119099 
-0.019771 -0.111954 
-0.025926 -0.097354 
-0.022881 -0.104838 
-0.025579 -0.105239 
0.000000 0.000000 
-0.008017 -0.011035 
-0.005671 -0.010372 
-0.006665 -0.010570 
0.000000 0.000000 
-0.013062 -0.021478 
-0.016016 -0.031618 
-0.003083 -0.010240 
-0.003609 -0.010239 
0.000000 0.000000 
-0.010248 -0.030700 
-0.007065 -0.020483 
-0.008759 -0.030598 
0.000000 0.000000 
-0.004198 -0.010250 
-0.004873 -0.010286 
-0.017336 -0.060586 
-0.016220 -0.069663 
-0.017472 -0.041527 
-0.017822 -0.051195 
-0.013256 -0.050548 
-0.015435 -0.050821 
-0.013061 -0.040835 
-0.009554 -0.020686 
-0.011914 -0.030864 
-0.013811 -0.031139 
0.000000 -0.010269 
-0.000333 -0.010273 
0.000000 0.000000 
-0.000950 -0.030380 
-0.000652 -0.020404 
-0.000000 -0.030365 
0.000000 0.000000 
-0.000671 -0.010273 
-0.001019 -0.010271 
-0.001814 -0.068303 
-0.001655 -0.059173 
-0.000000 -0.068263 
-0.003726 -0.040245 
-0.002932 -0.049831 
-0.004444 -0.049889 
-0.000000 -0.049763 
-0.001456 -0.049790 
-0.001220 -0.040183 
0.000000 0.000000 
-0.002170 -0.010254 
-0.002607 -0.010246 
-0.001382 -0.010267 
-0.001764 -0.010261 
0.000000 0.000000 
-0.005016 -0.030456 
-0.003449 -0.020419 
-0.003933 -0.030431 
-0.001914 -0.030395 
-0.002904 -0.030411 
-0.001995 -0.020413 
-0.001842 -0.122501 
-0.000000 -0.128492 
-0.006079 -0.109420 
-0.003887 -0.116158 
-0.000000 -0.115945 
-0.001939 -0.116002 
-0.002007 -0.109044 
-0.014635 -0.078394 
-0.012718 -0.086751 
-0.008226 -0.086158 
-0.010426 -0.086429 
-0.010060 -0.077786 
-0.010585 -0.094716 
-0.008341 -0.102274 
-0.000000 -0.085625 
-0.002008 -0.085674 
-0.001932 -0.077147 
-0.002043 -0.101652 
-0.002045 -0.093852 
-0.000000 -0.101595 
-0.005876 -0.077373 
-0.004036 -0.085779 
-0.006102 -0.085941 
-0.006196 -0.101994 
-0.006206 -0.094158 
-0.004103 -0.101785 
-0.005100 -0.020431 
-0.006428 -0.040348 
-0.006169 -0.030488 
-0.007409 -0.030533 
-0.009475 -0.040518 
-0.003649 -0.068376 
-0.007460 -0.068633 
-0.005524 -0.068486 
-0.005046 -0.059314 
-0.006011 -0.049966 
-0.013838 -0.069328 
-0.011252 -0.050344 
-0.012710 -0.059963 
-0.011597 -0.069050 
-0.009478 -0.068820 
-0.007654 -0.050063 
-0.008675 -0.059567 
-0.009393 -0.050187 
0.000000 0.000000 
0.000333 -0.010273 
0.001019 -0.010271 
0.000671 -0.010273 
0.000000 0.000000 
0.000652 -0.020404 
0.000950 -0.030380 
0.002607 -0.010246 
0.002170 -0.010254 
0.000000 0.000000 
0.003933 -0.030431 
0.003449 -0.020419 
0.005016 -0.030456 
0.000000 0.000000 
0.001764 -0.010261 
0.001382 -0.010267 
0.001655 -0.059173 
0.001814 -0.068303 
0.001220 -0.040183 
0.001456 -0.049790 
0.004444 -0.049889 
0.002932 -0.049831 
0.003726 -0.040245 
0.001995 -0.020413 
0.002904 -0.030411 
0.001914 -0.030395 
0.010173 -0.012314 
0.008017 -0.011035 
0.000000 0.000000 
0.016016 -0.031618 
0.013062 -0.021478 
0.018641 -0.032475 
0.000000 0.000000 
0.006665 -0.010570 
0.005671 -0.010372 
0.016220 -0.069663 
0.017336 -0.060586 
0.018760 -0.070070 
0.013061 -0.040835 
0.015435 -0.050821 
0.013256 -0.050548 
0.020451 -0.051725 
0.017822 -0.051195 
0.017472 -0.041527 
0.000000 0.000000 
0.003609 -0.010239 
0.003083 -0.010240 
0.004873 -0.010286 
0.004198 -0.010250 
0.000000 0.000000 
0.008759 -0.030598 
0.007065 -0.020483 
0.010248 -0.030700 
0.013811 -0.031139 
0.011914 -0.030864 
0.009554 -0.020686 
0.001842 -0.122501 
0.001718 -0.128516 
0.002007 -0.109044 
0.001939 -0.116002 
0.005865 -0.116411 
0.003887 -0.116158 
0.006079 -0.109420 
0.001932 -0.077147 
0.002008 -0.085674 
0.006102 -0.085941 
0.004036 -0.085779 
0.005876 -0.077373 
0.002045 -0.093852 
0.002043 -0.101652 
0.015117 -0.087123 
0.012718 -0.086751 
0.014635 -0.078394 
0.008341 -0.102274 
0.010585 -0.094716 
0.010552 -0.102617 
0.010060 -0.077786 
0.010426 -0.086429 
0.008226 -0.086158 
0.004103 -0.101785 
0.006206 -0.094158 
0.006196 -0.101994 
0.005100 -0.020431 
0.009475 -0.040518 
0.007409 -0.030533 
0.006169 -0.030488 
0.006428 -0.040348 
0.013838 -0.069328 
0.009478 -0.068820 
0.011597 -0.069050 
0.012710 -0.059963 
0.011252 -0.050344 
0.003649 -0.068376 
0.006011 -0.049966 
0.005046 -0.059314 
0.005524 -0.068486 
0.007460 -0.068633 
0.009393 -0.050187 
0.008675 -0.059567 
0.007654 -0.050063 
0.014940 -0.017505 
0.019132 -0.025163 
0.030207 -0.047365 
0.025576 -0.036777 
0.029506 -0.041063 
0.021827 -0.034043 
0.023136 -0.043244 
0.037640 -0.083057 
0.037008 -0.074901 
0.040039 -0.075912 
0.030581 -0.072803 
0.033815 -0.073820 
0.031490 -0.081686 
0.036853 -0.059608 
0.035671 -0.066291 
0.033474 -0.057149 
0.021471 -0.070565 
0.019726 -0.079222 
0.023355 -0.052489 
0.022734 -0.061629 
0.025384 -0.080319 
0.024358 -0.071173 
0.027406 -0.071916 
0.029958 -0.055123 
0.028974 -0.063443 
0.026540 -0.053588 
0.028350 -0.136103 
0.030324 -0.130494 
0.032469 -0.128791 
0.025907 -0.132337 
0.028131 -0.131644 
0.024170 -0.138120 
0.036154 -0.117118 
0.032157 -0.124615 
0.033816 -0.118458 
0.017018 -0.132116 
0.019206 -0.132486 
0.015791 -0.137994 
0.026447 -0.119872 
0.022779 -0.126424 
0.023952 -0.119767 
0.019946 -0.138561 
0.021428 -0.132686 
0.023667 -0.132659 
0.040458 -0.090763 
0.037257 -0.098208 
0.037690 -0.090814 
0.035255 -0.112012 
0.036422 -0.105267 
0.038965 -0.104457 
0.031061 -0.105708 
0.033775 -0.105646 
0.030139 -0.112911 
0.027512 -0.126213 
0.028939 -0.119742 
0.031403 -0.119300 
0.003427 -0.128684 
0.001539 -0.134009 
0.007890 -0.116753 
0.005561 -0.122942 
0.004711 -0.134550 
0.005175 -0.128994 
0.006977 -0.129420 
0.017631 -0.087543 
0.015303 -0.095485 
0.014897 -0.111009 
0.015220 -0.103453 
0.017688 -0.103917 
0.012842 -0.103015 
0.010343 -0.110109 
0.011820 -0.136878 
0.012797 -0.131076 
0.014877 -0.131631 
0.008845 -0.129932 