# vtk DataFile Version 2.0
Unstructured Grid Example
ASCII
DATASET UNSTRUCTURED_GRID

POINTS 9 float
0.002473 -0.166313 0.000000 
0.997527 -0.166313 0.000000 
1.000000 1.000000 0.000000 
0.000000 1.000000 0.000000 
0.500000 -0.100000 0.000000 
0.975673 0.385435 0.000000 
0.500000 1.000000 0.000000 
0.024327 0.385435 0.000000 
0.500000 0.387179 0.000000 

CELLS 8 32
3  0 4 8 
3  4 1 8 
3  1 5 8 
3  5 2 8 
3  2 6 8 
3  6 3 8 
3  3 7 8 
3  7 0 8 

CELL_TYPES 8
5
5
5
5
5
5
5
5

POINT_DATA 9

SCALARS u_h float 2
LOOKUP_TABLE default
0.002473 -0.166313 
-0.002473 -0.166313 
0.000000 0.000000 
0.000000 0.000000 
0.000000 -0.100000 
-0.024327 -0.114565 
0.000000 0.000000 
0.024327 -0.114565 
0.000000 -0.112821 

CELL_DATA 8

SCALARS epsilon float 4
LOOKUP_TABLE default
-0.004959 -0.016613 0.000000 0.068057
-0.004959 -0.016613 0.000000 -0.068057
-0.049112 0.098050 0.000000 -0.024346
-0.048824 0.203936 0.000000 0.023266
0.000000 0.201047 0.000000 -0.000000
0.000000 0.201047 0.000000 -0.000000
-0.048824 0.203936 0.000000 -0.023266
-0.049112 0.098050 0.000000 0.024346

SCALARS sigma float 4
LOOKUP_TABLE default
-0.394399 -0.744450 -0.312870 1.121708
-0.394399 -0.744450 -0.312870 -1.121708
-0.417589 1.959644 0.423641 -0.368694
0.519223 4.414607 1.355448 0.316679
1.841004 4.860251 1.841004 -0.000000
1.841004 4.860251 1.841004 -0.000000
0.519223 4.414607 1.355448 -0.316679
-0.417589 1.959644 0.423641 0.368694

