# vtk DataFile Version 2.0
Unstructured Grid Example
ASCII
DATASET UNSTRUCTURED_GRID

POINTS 128 float
-1.000000 0.000000 0.000000 
-0.968750 0.000000 0.000000 
-0.968750 0.000000 0.000000 
-0.937500 0.000000 0.000000 
-0.937500 0.000000 0.000000 
-0.906250 0.000000 0.000000 
-0.906250 0.000000 0.000000 
-0.875000 0.000000 0.000000 
-0.812500 0.000000 0.000000 
-0.781250 0.000000 0.000000 
-0.781250 0.000000 0.000000 
-0.750000 0.000000 0.000000 
-0.875000 0.000000 0.000000 
-0.843750 0.000000 0.000000 
-0.843750 0.000000 0.000000 
-0.812500 0.000000 0.000000 
-0.562500 -0.002605 0.000000 
-0.531250 0.000869 0.000000 
-0.531250 -0.000578 0.000000 
-0.500000 0.000289 0.000000 
-0.625000 0.000865 0.000000 
-0.593750 -0.001730 0.000000 
-0.593750 -0.000283 0.000000 
-0.562500 -0.002029 0.000000 
-0.750000 0.000000 0.000000 
-0.718750 0.000000 0.000000 
-0.718750 0.000000 0.000000 
-0.687500 0.000000 0.000000 
-0.687500 0.000000 0.000000 
-0.656250 0.000000 0.000000 
-0.656250 0.000000 0.000000 
-0.625000 0.000000 0.000000 
-0.062500 -0.308764 0.000000 
-0.031250 -0.368192 0.000000 
-0.031250 -0.342662 0.000000 
0.000000 -0.359823 0.000000 
-0.125000 -0.218314 0.000000 
-0.093750 -0.336674 0.000000 
-0.093750 -0.265868 0.000000 
-0.062500 -0.359926 0.000000 
-0.250000 -0.043467 0.000000 
-0.218750 -0.165370 0.000000 
-0.218750 -0.080859 0.000000 
-0.187500 -0.212489 0.000000 
-0.187500 -0.123404 0.000000 
-0.156250 -0.259030 0.000000 
-0.156250 -0.169875 0.000000 
-0.125000 -0.301714 0.000000 
-0.500000 0.000000 0.000000 
-0.468750 0.000000 0.000000 
-0.468750 0.000000 0.000000 
-0.437500 0.000000 0.000000 
-0.437500 0.000000 0.000000 
-0.406250 0.000000 0.000000 
-0.406250 0.000000 0.000000 
-0.375000 0.000000 0.000000 
-0.312500 0.023115 0.000000 
-0.281250 -0.083280 0.000000 
-0.281250 -0.011529 0.000000 
-0.250000 -0.120388 0.000000 
-0.375000 0.000000 0.000000 
-0.343750 0.000000 0.000000 
-0.343750 0.012350 0.000000 
-0.312500 -0.024700 0.000000 
0.000000 -0.363446 0.000000 
0.031250 -0.335416 0.000000 
0.031250 -0.368237 0.000000 
0.062500 -0.297804 0.000000 
0.062500 -0.356237 0.000000 
0.093750 -0.251371 0.000000 
0.093750 -0.328981 0.000000 
0.125000 -0.201018 0.000000 
0.187500 -0.193993 0.000000 
0.218750 -0.066537 0.000000 
0.218750 -0.145653 0.000000 
0.250000 -0.035759 0.000000 
0.125000 -0.289893 0.000000 
0.156250 -0.151230 0.000000 
0.156250 -0.243395 0.000000 
0.187500 -0.105563 0.000000 
0.437500 -0.008433 0.000000 
0.468750 -0.017036 0.000000 
0.468750 -0.019406 0.000000 
0.500000 -0.003692 0.000000 
0.375000 -0.004004 0.000000 
0.406250 -0.008220 0.000000 
0.406250 -0.002329 0.000000 
0.437500 -0.015786 0.000000 
0.250000 -0.101550 0.000000 
0.281250 -0.014071 0.000000 
0.281250 -0.064050 0.000000 
0.312500 -0.001593 0.000000 
0.312500 -0.034780 0.000000 
0.343750 0.002324 0.000000 
0.343750 -0.014678 0.000000 
0.375000 -0.000776 0.000000 
0.937500 0.000000 0.000000 
0.968750 0.000000 0.000000 
0.968750 0.000000 0.000000 
1.000000 0.000000 0.000000 
0.875000 0.000000 0.000000 
0.906250 0.000000 0.000000 
0.906250 0.000000 0.000000 
0.937500 0.000000 0.000000 
0.750000 0.000000 0.000000 
0.781250 0.000000 0.000000 
0.781250 0.000000 0.000000 
0.812500 0.000000 0.000000 
0.812500 0.000000 0.000000 
0.843750 0.000000 0.000000 
0.843750 0.000000 0.000000 
0.875000 0.000000 0.000000 
0.500000 -0.015054 0.000000 
0.531250 0.003316 0.000000 
0.531250 -0.004331 0.000000 
0.562500 0.000241 0.000000 
0.562500 -0.001955 0.000000 
0.593750 0.000061 0.000000 
0.593750 -0.000988 0.000000 
0.625000 0.000144 0.000000 
0.687500 0.000000 0.000000 
0.718750 0.000000 0.000000 
0.718750 0.000000 0.000000 
0.750000 0.000000 0.000000 
0.625000 -0.000467 0.000000 
0.656250 0.000233 0.000000 
0.656250 0.000000 0.000000 
0.687500 0.000000 0.000000 

CELLS 64 192
2  0 1 
2  2 3 
2  4 5 
2  6 7 
2  8 9 
2  10 11 
2  12 13 
2  14 15 
2  16 17 
2  18 19 
2  20 21 
2  22 23 
2  24 25 
2  26 27 
2  28 29 
2  30 31 
2  32 33 
2  34 35 
2  36 37 
2  38 39 
2  40 41 
2  42 43 
2  44 45 
2  46 47 
2  48 49 
2  50 51 
2  52 53 
2  54 55 
2  56 57 
2  58 59 
2  60 61 
2  62 63 
2  64 65 
2  66 67 
2  68 69 
2  70 71 
2  72 73 
2  74 75 
2  76 77 
2  78 79 
2  80 81 
2  82 83 
2  84 85 
2  86 87 
2  88 89 
2  90 91 
2  92 93 
2  94 95 
2  96 97 
2  98 99 
2  100 101 
2  102 103 
2  104 105 
2  106 107 
2  108 109 
2  110 111 
2  112 113 
2  114 115 
2  116 117 
2  118 119 
2  120 121 
2  122 123 
2  124 125 
2  126 127 

CELL_TYPES 64
3
3
3
3
3
3
3
3
3
3
3
3
3
3
3
3
3
3
3
3
3
3
3
3
3
3
3
3
3
3
3
3
3
3
3
3
3
3
3
3
3
3
3
3
3
3
3
3
3
3
3
3
3
3
3
3
3
3
3
3
3
3
3
3

POINT_DATA 128

SCALARS lambda_h float 1
LOOKUP_TABLE default
0.000000 
0.000000 
0.000000 
0.000000 
0.000000 
0.000000 
0.000000 
0.000000 
0.000000 
0.000000 
0.000000 
0.000000 
0.000000 
0.000000 
0.000000 
0.000000 
-0.002605 
0.000869 
-0.000578 
0.000289 
0.000865 
-0.001730 
-0.000283 
-0.002029 
0.000000 
0.000000 
0.000000 
0.000000 
0.000000 
0.000000 
0.000000 
0.000000 
-0.308764 
-0.368192 
-0.342662 
-0.359823 
-0.218314 
-0.336674 
-0.265868 
-0.359926 
-0.043467 
-0.165370 
-0.080859 
-0.212489 
-0.123404 
-0.259030 
-0.169875 
-0.301714 
0.000000 
0.000000 
0.000000 
0.000000 
0.000000 
0.000000 
0.000000 
0.000000 
0.023115 
-0.083280 
-0.011529 
-0.120388 
0.000000 
0.000000 
0.012350 
-0.024700 
-0.363446 
-0.335416 
-0.368237 
-0.297804 
-0.356237 
-0.251371 
-0.328981 
-0.201018 
-0.193993 
-0.066537 
-0.145653 
-0.035759 
-0.289893 
-0.151230 
-0.243395 
-0.105563 
-0.008433 
-0.017036 
-0.019406 
-0.003692 
-0.004004 
-0.008220 
-0.002329 
-0.015786 
-0.101550 
-0.014071 
-0.064050 
-0.001593 
-0.034780 
0.002324 
-0.014678 
-0.000776 
0.000000 
0.000000 
0.000000 
0.000000 
0.000000 
0.000000 
0.000000 
0.000000 
0.000000 
0.000000 
0.000000 
0.000000 
0.000000 
0.000000 
0.000000 
0.000000 
-0.015054 
0.003316 
-0.004331 
0.000241 
-0.001955 
0.000061 
-0.000988 
0.000144 
0.000000 
0.000000 
0.000000 
0.000000 
-0.000467 
0.000233 
0.000000 
0.000000 

