# vtk DataFile Version 2.0
Unstructured Grid Example
ASCII
DATASET UNSTRUCTURED_GRID

POINTS 8 float
-1.000000 -0.029587 0.000000 
-0.500000 0.014794 0.000000 
-0.500000 0.321718 0.000000 
0.000000 -0.643436 0.000000 
0.000000 -0.643436 0.000000 
0.500000 0.321718 0.000000 
0.500000 0.000000 0.000000 
1.000000 0.000000 0.000000 

CELLS 4 12
2  0 1 
2  2 3 
2  4 5 
2  6 7 

CELL_TYPES 4
3
3
3
3

POINT_DATA 8

SCALARS lambda_h float 1
LOOKUP_TABLE default
-0.029587 
0.014794 
0.321718 
-0.643436 
-0.643436 
0.321718 
0.000000 
0.000000 

