# vtk DataFile Version 2.0
Unstructured Grid Example
ASCII
DATASET UNSTRUCTURED_GRID

POINTS 64 float
-1.000000 0.000000 0.000000 
-0.937500 0.000000 0.000000 
-0.937500 0.000000 0.000000 
-0.875000 0.000000 0.000000 
-0.875000 0.000000 0.000000 
-0.812500 0.000000 0.000000 
-0.812500 0.000000 0.000000 
-0.750000 0.000000 0.000000 
-0.625000 0.000000 0.000000 
-0.562500 0.000000 0.000000 
-0.562500 0.000000 0.000000 
-0.500000 0.000000 0.000000 
-0.750000 0.000000 0.000000 
-0.687500 0.000000 0.000000 
-0.687500 0.000000 0.000000 
-0.625000 0.000000 0.000000 
-0.125000 -0.189873 0.000000 
-0.062500 -0.483751 0.000000 
-0.062500 -0.352978 0.000000 
0.000000 -0.451419 0.000000 
-0.250000 0.127850 0.000000 
-0.187500 -0.307779 0.000000 
-0.187500 -0.037307 0.000000 
-0.125000 -0.413095 0.000000 
-0.500000 0.000000 0.000000 
-0.437500 0.000000 0.000000 
-0.437500 0.000000 0.000000 
-0.375000 0.000000 0.000000 
-0.375000 0.000000 0.000000 
-0.312500 0.000000 0.000000 
-0.312500 0.017360 0.000000 
-0.250000 -0.034719 0.000000 
0.000000 -0.472217 0.000000 
0.062500 -0.311382 0.000000 
0.062500 -0.484729 0.000000 
0.125000 -0.125523 0.000000 
0.125000 -0.380524 0.000000 
0.187500 0.025272 0.000000 
0.187500 -0.219987 0.000000 
0.250000 0.109993 0.000000 
0.375000 0.018198 0.000000 
0.437500 -0.036396 0.000000 
0.437500 -0.004642 0.000000 
0.500000 -0.045310 0.000000 
0.250000 0.000000 0.000000 
0.312500 0.000000 0.000000 
0.312500 0.000000 0.000000 
0.375000 0.000000 0.000000 
0.875000 -0.001216 0.000000 
0.937500 -0.002703 0.000000 
0.937500 -0.000878 0.000000 
1.000000 -0.004866 0.000000 
0.750000 -0.001146 0.000000 
0.812500 -0.001559 0.000000 
0.812500 -0.001131 0.000000 
0.875000 -0.002002 0.000000 
0.500000 -0.057924 0.000000 
0.562500 0.020587 0.000000 
0.562500 -0.008916 0.000000 
0.625000 0.001082 0.000000 
0.625000 -0.003091 0.000000 
0.687500 -0.000569 0.000000 
0.687500 -0.001536 0.000000 
0.750000 -0.001158 0.000000 

CELLS 32 96
2  0 1 
2  2 3 
2  4 5 
2  6 7 
2  8 9 
2  10 11 
2  12 13 
2  14 15 
2  16 17 
2  18 19 
2  20 21 
2  22 23 
2  24 25 
2  26 27 
2  28 29 
2  30 31 
2  32 33 
2  34 35 
2  36 37 
2  38 39 
2  40 41 
2  42 43 
2  44 45 
2  46 47 
2  48 49 
2  50 51 
2  52 53 
2  54 55 
2  56 57 
2  58 59 
2  60 61 
2  62 63 

CELL_TYPES 32
3
3
3
3
3
3
3
3
3
3
3
3
3
3
3
3
3
3
3
3
3
3
3
3
3
3
3
3
3
3
3
3

POINT_DATA 64

SCALARS lambda_h float 1
LOOKUP_TABLE default
0.000000 
0.000000 
0.000000 
0.000000 
0.000000 
0.000000 
0.000000 
0.000000 
0.000000 
0.000000 
0.000000 
0.000000 
0.000000 
0.000000 
0.000000 
0.000000 
-0.189873 
-0.483751 
-0.352978 
-0.451419 
0.127850 
-0.307779 
-0.037307 
-0.413095 
0.000000 
0.000000 
0.000000 
0.000000 
0.000000 
0.000000 
0.017360 
-0.034719 
-0.472217 
-0.311382 
-0.484729 
-0.125523 
-0.380524 
0.025272 
-0.219987 
0.109993 
0.018198 
-0.036396 
-0.004642 
-0.045310 
0.000000 
0.000000 
0.000000 
0.000000 
-0.001216 
-0.002703 
-0.000878 
-0.004866 
-0.001146 
-0.001559 
-0.001131 
-0.002002 
-0.057924 
0.020587 
-0.008916 
0.001082 
-0.003091 
-0.000569 
-0.001536 
-0.001158 

