# vtk DataFile Version 2.0
Unstructured Grid Example
ASCII
DATASET UNSTRUCTURED_GRID

POINTS 6305 float
-1.000403 0.000089 0.000000 
-0.000451 0.035249 0.000000 
0.999913 0.000020 0.000000 
-1.000157 1.000077 0.000000 
-0.000075 1.036361 0.000000 
0.999823 0.999955 0.000000 
-1.000068 2.000056 0.000000 
0.000000 2.074084 0.000000 
0.999942 1.999954 0.000000 
-1.000000 3.000000 0.000000 
0.000000 3.000000 0.000000 
1.000000 3.000000 0.000000 
-0.500298 0.000015 0.000000 
-0.500281 0.499954 0.000000 
-1.000278 0.500100 0.000000 
-0.000127 0.530407 0.000000 
-0.500155 1.000079 0.000000 
0.499868 -0.000001 0.000000 
0.499829 0.500003 0.000000 
0.999861 0.500011 0.000000 
0.499798 0.999947 0.000000 
-0.500095 1.500874 0.000000 
-1.000115 1.500046 0.000000 
-0.000280 1.552118 0.000000 
-0.500100 2.005396 0.000000 
0.499906 1.500853 0.000000 
0.999869 1.499926 0.000000 
0.499962 2.005492 0.000000 
-0.499990 2.512036 0.000000 
-0.999995 2.500044 0.000000 
0.000022 2.566443 0.000000 
-0.500000 3.000000 0.000000 
0.499938 2.511898 0.000000 
0.999972 2.499989 0.000000 
0.500000 3.000000 0.000000 
-0.750398 0.000027 0.000000 
-0.750352 0.250031 0.000000 
-1.000346 0.250093 0.000000 
-0.274746 0.260190 0.000000 
-0.500363 0.249979 0.000000 
-0.250997 0.010967 0.000000 
-1.000208 0.750094 0.000000 
-0.750280 0.500036 0.000000 
-0.750206 0.750040 0.000000 
-0.000326 0.280969 0.000000 
-0.274695 0.510338 0.000000 
-0.225747 1.014454 0.000000 
-0.250245 0.761641 0.000000 
-0.000017 0.782276 0.000000 
-0.500218 0.749992 0.000000 
-0.750151 1.000043 0.000000 
0.250585 0.011016 0.000000 
0.274338 0.259918 0.000000 
0.749893 0.250006 0.000000 
0.499909 0.250026 0.000000 
0.749912 0.000004 0.000000 
0.274214 0.510056 0.000000 
0.249753 0.761628 0.000000 
0.999892 0.250020 0.000000 
0.749852 0.499995 0.000000 
0.749813 0.999945 0.000000 
0.749820 0.749968 0.000000 
0.999833 0.749986 0.000000 
0.499790 0.749949 0.000000 
0.225365 1.014713 0.000000 
-0.750122 1.250036 0.000000 
-1.000129 1.250058 0.000000 
-0.225667 1.269207 0.000000 
-0.500109 1.250279 0.000000 
-1.000099 1.750047 0.000000 
-0.750111 1.500023 0.000000 
-0.750101 1.750014 0.000000 
-0.000218 1.292900 0.000000 
-0.250060 1.526154 0.000000 
-0.274552 2.044475 0.000000 
-0.274513 1.785051 0.000000 
-0.000178 1.813394 0.000000 
-0.500103 1.752405 0.000000 
-0.750074 2.000019 0.000000 
0.225452 1.269475 0.000000 
0.749833 1.249938 0.000000 
0.499845 1.250153 0.000000 
0.249953 1.526163 0.000000 
0.274392 1.784796 0.000000 
0.999836 1.249932 0.000000 
0.749874 1.499949 0.000000 
0.749948 1.999983 0.000000 
0.749916 1.749968 0.000000 
0.999909 1.749936 0.000000 
0.499949 1.752491 0.000000 
0.274348 2.044211 0.000000 
-0.750029 2.250037 0.000000 
-1.000026 2.250059 0.000000 
-0.250112 2.300546 0.000000 
-0.500059 2.259494 0.000000 
-0.999995 2.750017 0.000000 
-0.749989 2.500187 0.000000 
-0.749984 2.750433 0.000000 
0.000089 2.328234 0.000000 
-0.225593 2.545918 0.000000 
-0.250000 3.000000 0.000000 
-0.225464 2.773582 0.000000 
-0.000085 2.782053 0.000000 
-0.499951 2.757972 0.000000 
-0.750000 3.000000 0.000000 
0.249873 2.300515 0.000000 
0.749969 2.249994 0.000000 
0.499954 2.259487 0.000000 
0.225443 2.546097 0.000000 
0.225504 2.773723 0.000000 
0.999963 2.249972 0.000000 
0.749980 2.500146 0.000000 
0.750000 3.000000 0.000000 
0.749963 2.750404 0.000000 
0.999970 2.749997 0.000000 
0.499929 2.757812 0.000000 
0.250000 3.000000 0.000000 
-0.875403 0.000059 0.000000 
-0.875375 0.125059 0.000000 
-1.000375 0.125090 0.000000 
-0.625381 0.124998 0.000000 
-0.750376 0.125026 0.000000 
-0.625378 0.000001 0.000000 
-1.000314 0.375097 0.000000 
-0.875348 0.250062 0.000000 
-0.875316 0.375065 0.000000 
-0.139340 0.150196 0.000000 
-0.264583 0.135506 0.000000 
-0.126292 0.027052 0.000000 
-0.500318 0.374960 0.000000 
-0.382594 0.251289 0.000000 
-0.383701 0.376274 0.000000 
-0.375365 0.001355 0.000000 
-0.379574 0.126351 0.000000 
-0.500397 0.124997 0.000000 
-1.000179 0.875087 0.000000 
-0.875206 0.750066 0.000000 
-0.875177 0.875063 0.000000 
-0.875279 0.500067 0.000000 
-0.875241 0.625067 0.000000 
-1.000242 0.625099 0.000000 
-0.625243 0.625007 0.000000 
-0.750241 0.625038 0.000000 
-0.625281 0.500003 0.000000 
-0.625360 0.250004 0.000000 
-0.625321 0.375003 0.000000 
-0.750318 0.375035 0.000000 
-0.000406 0.157453 0.000000 
-0.149207 0.274185 0.000000 
-0.149034 0.523934 0.000000 
-0.152795 0.398800 0.000000 
-0.000225 0.405345 0.000000 
-0.278483 0.385131 0.000000 
-0.382577 0.501344 0.000000 
-0.101252 1.029339 0.000000 
-0.111317 0.902201 0.000000 
-0.000026 0.909034 0.000000 
-0.371047 0.877374 0.000000 
-0.236111 0.887830 0.000000 
-0.367918 1.003098 0.000000 
-0.000052 0.656065 0.000000 
-0.125096 0.775620 0.000000 
-0.138899 0.649541 0.000000 
-0.750176 0.875042 0.000000 
-0.875153 1.000059 0.000000 
-0.500249 0.624966 0.000000 
-0.625208 0.750015 0.000000 
-0.625151 1.000033 0.000000 
-0.625177 0.875025 0.000000 
-0.500186 0.875029 0.000000 
-0.264365 0.635828 0.000000 
-0.375285 0.751863 0.000000 
-0.379502 0.626530 0.000000 
0.125556 0.027138 0.000000 
0.138678 0.150063 0.000000 
0.379252 0.126302 0.000000 
0.264193 0.135364 0.000000 
0.375047 0.001236 0.000000 
0.148643 0.273891 0.000000 
0.152347 0.398444 0.000000 
0.874904 0.125011 0.000000 
0.749906 0.125005 0.000000 
0.874913 0.000011 0.000000 
0.499866 0.375022 0.000000 
0.624898 0.250010 0.000000 
0.624871 0.375008 0.000000 
0.624910 -0.000000 0.000000 
0.624913 0.125003 0.000000 
0.499939 0.125005 0.000000 
0.124900 0.775613 0.000000 
0.111124 0.902374 0.000000 
0.148700 0.523620 0.000000 
0.138655 0.649356 0.000000 
0.378937 0.626515 0.000000 
0.263864 0.635659 0.000000 
0.382057 0.501336 0.000000 
0.382219 0.251271 0.000000 
0.383252 0.376267 0.000000 
0.278037 0.384811 0.000000 
0.999904 0.125020 0.000000 
0.874892 0.250010 0.000000 
0.874857 0.499999 0.000000 
0.874876 0.375007 0.000000 
0.999878 0.375018 0.000000 
0.749874 0.375003 0.000000 
0.624844 0.499995 0.000000 
0.874818 0.999953 0.000000 
0.874819 0.874964 0.000000 
0.999825 0.874970 0.000000 
0.624803 0.874940 0.000000 
0.749813 0.874955 0.000000 
0.624806 0.999928 0.000000 
0.999846 0.625000 0.000000 
0.874827 0.749977 0.000000 
0.874840 0.624989 0.000000 
0.235661 0.887974 0.000000 
0.101019 1.029645 0.000000 
0.499804 0.624976 0.000000 
0.374718 0.751838 0.000000 
0.367495 1.003059 0.000000 
0.370530 0.877341 0.000000 
0.499788 0.874934 0.000000 
0.749834 0.624982 0.000000 
0.624809 0.749958 0.000000 
0.624823 0.624977 0.000000 
-0.875136 1.125053 0.000000 
-1.000140 1.125067 0.000000 
-0.625131 1.125035 0.000000 
-0.750134 1.125041 0.000000 
-1.000121 1.375050 0.000000 
-0.875125 1.250047 0.000000 
-0.875119 1.375041 0.000000 
-0.097592 1.157092 0.000000 
-0.221926 1.141565 0.000000 
-0.500098 1.375498 0.000000 
-0.367803 1.255327 0.000000 
-0.370840 1.381921 0.000000 
-0.366732 1.129068 0.000000 
-0.500129 1.125154 0.000000 
-1.000086 1.875051 0.000000 
-0.875100 1.750033 0.000000 
-0.875087 1.875035 0.000000 
-0.875114 1.500036 0.000000 
-0.875108 1.625033 0.000000 
-1.000108 1.625045 0.000000 
-0.625104 1.624997 0.000000 
-0.750107 1.625017 0.000000 
-0.625105 1.500008 0.000000 
-0.625117 1.250030 0.000000 
-0.625109 1.375021 0.000000 
-0.750115 1.375030 0.000000 
-0.000147 1.164301 0.000000 
-0.101317 1.285507 0.000000 
-0.125203 1.544346 0.000000 
-0.111424 1.414603 0.000000 
-0.000268 1.422181 0.000000 
-0.235966 1.397405 0.000000 
-0.375027 1.508903 0.000000 
-0.148903 2.065706 0.000000 
-0.152645 1.935761 0.000000 
-0.000088 1.944093 0.000000 
-0.383507 1.892454 0.000000 
-0.278314 1.914864 0.000000 
-0.382414 2.020973 0.000000 
-0.000247 1.682601 0.000000 
-0.149005 1.805216 0.000000 
-0.138960 1.674623 0.000000 
-0.750090 1.875014 0.000000 
-0.875070 2.000038 0.000000 
-0.500098 1.626483 0.000000 
-0.625102 1.750006 0.000000 
-0.625083 2.000288 0.000000 
-0.625095 1.875081 0.000000 
-0.500105 1.878705 0.000000 
-0.264170 1.655408 0.000000 
-0.382344 1.764184 0.000000 
-0.379238 1.636319 0.000000 
0.097297 1.157447 0.000000 
0.366427 1.129031 0.000000 
0.221627 1.141870 0.000000 
0.100959 1.285817 0.000000 
0.111026 1.414785 0.000000 
0.874823 1.124945 0.000000 
0.749820 1.124939 0.000000 
0.499876 1.375417 0.000000 
0.624835 1.249927 0.000000 
0.624857 1.374938 0.000000 
0.624817 1.124923 0.000000 
0.499818 1.125010 0.000000 
0.148732 1.804914 0.000000 
0.152474 1.935408 0.000000 
0.124804 1.544351 0.000000 
0.138605 1.674451 0.000000 
0.379200 1.636338 0.000000 
0.264071 1.655265 0.000000 
0.374986 1.508906 0.000000 
0.367617 1.255298 0.000000 
0.370748 1.381906 0.000000 
0.235819 1.397564 0.000000 
0.999827 1.124942 0.000000 
0.874834 1.249940 0.000000 
0.874870 1.499941 0.000000 
0.874850 1.374938 0.000000 
0.999851 1.374927 0.000000 
0.749852 1.374942 0.000000 
0.624881 1.499954 0.000000 
0.874946 1.999967 0.000000 
0.874930 1.874960 0.000000 
0.999927 1.874944 0.000000 
0.624943 1.875098 0.000000 
0.749934 1.874976 0.000000 
0.624957 2.000308 0.000000 
0.999889 1.624929 0.000000 
0.874912 1.749953 0.000000 
0.874891 1.624946 0.000000 
0.278153 1.914565 0.000000 
0.148829 2.065396 0.000000 
0.499931 1.626522 0.000000 
0.382263 1.764216 0.000000 
0.382193 2.021003 0.000000 
0.383358 1.892490 0.000000 
0.499959 1.878811 0.000000 
0.749896 1.624958 0.000000 
0.624926 1.750008 0.000000 
0.624905 1.624973 0.000000 
-0.875049 2.125041 0.000000 
-1.000048 2.125059 0.000000 
-0.625065 2.125696 0.000000 
-0.750052 2.125026 0.000000 
-1.000008 2.375054 0.000000 
-0.875026 2.250043 0.000000 
-0.875006 2.375043 0.000000 
-0.138778 2.194274 0.000000 
-0.264231 2.173309 0.000000 
-0.500026 2.386250 0.000000 
-0.375137 2.277244 0.000000 
-0.370893 2.403662 0.000000 
-0.379351 2.149418 0.000000 
-0.500085 2.132402 0.000000 
-1.000001 2.875007 0.000000 
-0.874990 2.750024 0.000000 
-0.874998 2.875019 0.000000 
-0.874991 2.500039 0.000000 
-0.874986 2.625031 0.000000 
-0.999991 2.625030 0.000000 
-0.624973 2.628258 0.000000 
[...]
POINT_DATA 6305

SCALARS u_h float 2
LOOKUP_TABLE default
-0.000403 0.000089 
-0.000451 0.035249 
-0.000087 0.000020 
-0.000157 0.000077 
-0.000075 0.036361 
-0.000177 -0.000045 
-0.000068 0.000056 
0.000000 0.074084 
-0.000058 -0.000046 
0.000000 0.000000 
0.000000 0.000000 
0.000000 0.000000 
-0.000298 0.000015 
-0.000281 -0.000046 
-0.000278 0.000100 
-0.000127 0.030407 
-0.000155 0.000079 
-0.000132 -0.000001 
-0.000171 0.000003 
-0.000139 0.000011 
-0.000202 -0.000053 
-0.000095 0.000874 
-0.000115 0.000046 
-0.000280 0.052118 
-0.000100 0.005396 
-0.000094 0.000853 
-0.000131 -0.000074 
-0.000038 0.005492 
0.000010 0.012036 
0.000005 0.000044 
0.000022 0.066443 
0.000000 0.000000 
-0.000062 0.011898 
-0.000028 -0.000011 
0.000000 0.000000 
-0.000398 0.000027 
-0.000352 0.000031 
-0.000346 0.000093 
-0.024746 0.010190 
-0.000363 -0.000021 
-0.000997 0.010967 
-0.000208 0.000094 
-0.000280 0.000036 
-0.000206 0.000040 
-0.000326 0.030969 
-0.024695 0.010338 
0.024253 0.014454 
-0.000245 0.011641 
-0.000017 0.032276 
-0.000218 -0.000008 
-0.000151 0.000043 
0.000585 0.011016 
0.024338 0.009918 
-0.000107 0.000006 
-0.000091 0.000026 
-0.000088 0.000004 
0.024214 0.010056 
-0.000247 0.011628 
-0.000108 0.000020 
-0.000148 -0.000005 
-0.000187 -0.000055 
-0.000180 -0.000032 
-0.000167 -0.000014 
-0.000210 -0.000051 
-0.024635 0.014713 
-0.000122 0.000036 
-0.000129 0.000058 
0.024333 0.019207 
-0.000109 0.000279 
-0.000099 0.000047 
-0.000111 0.000023 
-0.000101 0.000014 
-0.000218 0.042900 
-0.000060 0.026154 
-0.024552 0.044475 
-0.024513 0.035051 
-0.000178 0.063394 
-0.000103 0.002405 
-0.000074 0.000019 
-0.024548 0.019475 
-0.000167 -0.000062 
-0.000155 0.000153 
-0.000047 0.026163 
0.024392 0.034796 
-0.000164 -0.000068 
-0.000126 -0.000051 
-0.000052 -0.000017 
-0.000084 -0.000032 
-0.000091 -0.000064 
-0.000051 0.002491 
0.024348 0.044211 
-0.000029 0.000037 
-0.000026 0.000059 
-0.000112 0.050546 
-0.000059 0.009494 
0.000005 0.000017 
0.000011 0.000187 
0.000016 0.000433 
0.000089 0.078234 
0.024407 0.045918 
0.000000 0.000000 
0.024536 0.023582 
-0.000085 0.032053 
0.000049 0.007972 
0.000000 0.000000 
-0.000127 0.050515 
-0.000031 -0.000006 
-0.000046 0.009487 
-0.024557 0.046097 
-0.024496 0.023723 
-0.000037 -0.000028 
-0.000020 0.000146 
0.000000 0.000000 
-0.000037 0.000404 
-0.000030 -0.000003 
-0.000071 0.007812 
0.000000 0.000000 
-0.000403 0.000059 
-0.000375 0.000059 
-0.000375 0.000090 
-0.000381 -0.000002 
-0.000376 0.000026 
-0.000378 0.000001 
-0.000314 0.000097 
-0.000348 0.000062 
-0.000316 0.000065 
-0.014340 0.025196 
-0.014583 0.010506 
-0.001292 0.027052 
-0.000318 -0.000040 
-0.007594 0.001289 
-0.008701 0.001274 
-0.000365 0.001355 
-0.004574 0.001351 
-0.000397 -0.000003 
-0.000179 0.000087 
-0.000206 0.000066 
-0.000177 0.000063 
-0.000279 0.000067 
-0.000241 0.000067 
-0.000242 0.000099 
-0.000243 0.000007 
-0.000241 0.000038 
-0.000281 0.000003 
-0.000360 0.000004 
-0.000321 0.000003 
-0.000318 0.000035 
-0.000406 0.032453 
-0.024207 0.024185 
-0.024034 0.023934 
-0.027795 0.023800 
-0.000225 0.030345 
-0.028483 0.010131 
-0.007577 0.001344 
0.023748 0.029339 
0.013683 0.027201 
-0.000026 0.034034 
0.003953 0.002374 
0.013889 0.012830 
0.007082 0.003098 
-0.000052 0.031065 
-0.000096 0.025620 
-0.013899 0.024541 
-0.000176 0.000042 
-0.000153 0.000059 
-0.000249 -0.000034 
-0.000208 0.000015 
-0.000151 0.000033 
-0.000177 0.000025 
-0.000186 0.000029 
-0.014365 0.010828 
-0.000285 0.001863 
-0.004502 0.001530 
0.000556 0.027138 
0.013678 0.025063 
0.004252 0.001302 
0.014193 0.010364 
0.000047 0.001236 
0.023643 0.023891 
0.027347 0.023444 
-0.000096 0.000011 
-0.000094 0.000005 
-0.000087 0.000011 
-0.000134 0.000022 
-0.000102 0.000010 
-0.000129 0.000008 
-0.000090 -0.000000 
-0.000087 0.000003 
-0.000061 0.000005 
-0.000100 0.025613 
-0.013876 0.027374 
0.023700 0.023620 
0.013655 0.024356 
0.003937 0.001515 
0.013864 0.010659 
0.007057 0.001336 
0.007219 0.001271 
0.008252 0.001267 
0.028037 0.009811 
-0.000096 0.000020 
-0.000108 0.000010 
-0.000143 -0.000001 
-0.000124 0.000007 
-0.000122 0.000018 
-0.000126 0.000003 
-0.000156 -0.000005 
-0.000182 -0.000047 
-0.000181 -0.000036 
-0.000175 -0.000030 
-0.000197 -0.000060 
-0.000187 -0.000045 
-0.000194 -0.000072 
-0.000154 0.000000 
-0.000173 -0.000023 
-0.000160 -0.000011 
-0.014339 0.012974 
-0.023981 0.029645 
-0.000196 -0.000024 
-0.000282 0.001838 
-0.007505 0.003059 
-0.004470 0.002341 
-0.000212 -0.000066 
-0.000166 -0.000018 
-0.000191 -0.000042 
-0.000177 -0.000023 
-0.000136 0.000053 
-0.000140 0.000067 
-0.000131 0.000035 
-0.000134 0.000041 
-0.000121 0.000050 
-0.000125 0.000047 
-0.000119 0.000041 
0.027408 0.032092 
0.028074 0.016565 
-0.000098 0.000498 
0.007197 0.005327 
0.004160 0.006921 
0.008268 0.004068 
-0.000129 0.000154 
-0.000086 0.000051 
-0.000100 0.000033 
-0.000087 0.000035 
-0.000114 0.000036 
-0.000108 0.000033 
-0.000108 0.000045 
-0.000104 -0.000003 
-0.000107 0.000017 
-0.000105 0.000008 
-0.000117 0.000030 
-0.000109 0.000021 
-0.000115 0.000030 
-0.000147 0.039301 
0.023683 0.035507 
-0.000203 0.044346 
0.013576 0.039603 
-0.000268 0.047181 
0.014034 0.022405 
-0.000027 0.008903 
-0.023903 0.065706 
-0.027645 0.060761 
-0.000088 0.069093 
-0.008507 0.017454 
-0.028314 0.039864 
-0.007414 0.020973 
-0.000247 0.057601 
-0.024005 0.055216 
-0.013960 0.049623 
-0.000090 0.000014 
-0.000070 0.000038 
-0.000098 0.001483 
-0.000102 0.000006 
-0.000083 0.000288 
-0.000095 0.000081 
-0.000105 0.003705 
-0.014170 0.030408 
-0.007344 0.014184 
-0.004238 0.011319 
-0.027703 0.032447 
-0.008573 0.004031 
-0.028373 0.016870 
-0.024041 0.035817 
-0.013974 0.039785 
-0.000177 -0.000055 
-0.000180 -0.000061 
-0.000124 0.000417 
-0.000165 -0.000073 
-0.000143 -0.000062 
-0.000183 -0.000077 
-0.000182 0.000010 
0.023732 0.054914 
0.027474 0.060408 
-0.000196 0.044351 
0.013605 0.049451 
0.004200 0.011338 
0.014071 0.030265 
-0.000014 0.008906 
-0.007383 0.005298 
-0.004252 0.006906 
-0.014181 0.022564 
-0.000173 -0.000058 
-0.000166 -0.000060 
-0.000130 -0.000059 
-0.000150 -0.000062 
-0.000149 -0.000073 
-0.000148 -0.000058 
-0.000119 -0.000046 
-0.000054 -0.000033 
-0.000070 -0.000040 
-0.000073 -0.000056 
-0.000057 0.000098 
-0.000066 -0.000024 
-0.000043 0.000308 
-0.000111 -0.000071 
-0.000088 -0.000047 
-0.000109 -0.000054 
0.028153 0.039565 
0.023829 0.065396 
-0.000069 0.001522 
0.007263 0.014216 
0.007193 0.021003 
0.008358 0.017490 
-0.000041 0.003811 
-0.000104 -0.000042 
-0.000074 0.000008 
-0.000095 -0.000027 
-0.000049 0.000041 
-0.000048 0.000059 
-0.000065 0.000696 
-0.000052 0.000026 
-0.000008 0.000054 
-0.000026 0.000043 
-0.000006 0.000043 
-0.013778 0.069274 
-0.014231 0.048309 
-0.000026 0.011250 
-0.000137 0.027244 
0.004107 0.028662 
-0.004351 0.024418 
-0.000085 0.007402 
-0.000001 0.000007 
0.000010 0.000024 
0.000002 0.000019 
0.000009 0.000039 
0.000014 0.000031 
0.000009 0.000030 
0.000027 0.003258 
0.000019 0.000348 
0.000011 0.002913 
-0.000040 0.001336 
-0.000013 0.002145 
-0.000007 0.000078 
0.000064 0.077503 
0.000020 0.070440 
0.023876 0.060664 
0.013800 0.067982 
0.000071 0.074974 
0.014028 0.050134 
0.007248 0.027698 
0.000000 0.000000 
0.013800 0.010382 
-0.000089 0.011132 
0.004308 0.005843 
0.014236 0.008468 
0.000000 0.000000 
-0.000039 0.051880 
0.023870 0.029668 
0.027559 0.047692 
0.000007 0.000268 
0.000000 0.000000 
0.000039 0.011112 
0.000028 0.002738 
0.000000 0.000000 
0.000014 0.001245 
0.000027 0.003166 
0.028252 0.037007 
0.007380 0.015611 
0.008448 0.023436 
0.013775 0.069085 
0.004084 0.024428 
0.013997 0.048144 
0.000007 0.070417 
-0.013786 0.068121 
-0.000043 -0.000026 
-0.000040 -0.000013 
-0.000053 0.011172 
-0.000026 0.001323 
-0.000024 0.002106 
-0.000032 0.000704 
-0.000041 0.007456 
-0.023965 0.029886 
-0.013872 0.010475 
-0.023904 0.060914 
-0.027632 0.047971 
-0.008495 0.023309 
-0.028313 0.037201 
-0.007402 0.027599 
-0.000139 0.027223 
-0.004343 0.028602 
-0.014239 0.050231 
-0.000046 -0.000037 
-0.000034 -0.000020 
-0.000026 -0.000008 
-0.000028 -0.000014 
-0.000031 -0.000019 
-0.000023 0.000034 
-0.000028 0.002849 
0.000000 0.000000 
-0.000028 0.000009 
-0.000024 -0.000006 
-0.000062 0.001191 
-0.000044 0.000246 
0.000000 0.000000 
-0.000029 -0.000005 
-0.000030 0.000004 
-0.000027 -0.000003 
-0.014125 0.008517 
0.000000 0.000000 
-0.000069 0.010941 
-0.007323 0.015484 
0.000000 0.000000 
-0.004195 0.005764 
-0.000058 0.003071 
-0.000024 0.000312 
-0.000056 0.002661 
-0.000040 0.003180 
-0.000403 0.000074 
-0.000389 0.000074 
-0.000389 0.000089 
-0.000387 0.000042 
-0.000388 0.000059 
-0.000401 0.000043 
-0.000361 0.000091 
-0.000375 0.000075 
-0.000361 0.000076 
-0.000377 -0.000011 
-0.000380 -0.000004 
-0.000354 0.000000 
-0.000366 0.000028 
-0.000378 0.000011 
-0.000369 0.000014 
-0.000391 0.000012 
-0.000383 0.000010 
-0.000386 0.000026 
-0.000297 0.000099 
-0.000315 0.000081 
-0.000297 0.000082 
-0.000347 0.000077 
-0.000332 0.000079 
-0.000331 0.000095 
-0.000334 0.000048 
-0.000333 0.000063 
-0.000350 0.000046 
-0.000376 0.000043 
-0.000363 0.000044 
-0.000362 0.000060 
-0.004810 0.031583 
-0.007940 0.025999 
-0.000996 0.033023 
-0.020320 0.010317 
-0.016457 0.017899 
-0.022915 0.017522 
-0.001266 0.019006 
-0.009030 0.018398 
-0.007970 0.010738 
-0.000299 -0.000045 
-0.001818 0.000077 
-0.001756 0.000073 
-0.001650 0.000111 
-0.001782 0.000091 
-0.000340 -0.000032 
-0.018561 0.004558 
-0.008420 0.001273 
-0.016689 0.004577 
-0.000242 0.000215 
-0.000761 0.000187 
-0.000380 -0.000001 
-0.005404 0.004758 
-0.002567 0.001373 
-0.000640 0.004739 
-0.000385 -0.000011 
-0.001138 0.000162 
-0.001433 0.000136 
-0.013719 0.004628 
-0.006283 0.001318 
-0.009866 0.004698 
-0.000167 0.000082 
-0.000178 0.000074 
-0.000165 0.000071 
-0.000207 0.000079 
-0.000192 0.000077 
-0.000193 0.000091 
-0.000190 0.000053 
-0.000191 0.000065 
-0.000206 0.000053 
-0.000279 0.000083 
-0.000260 0.000083 
-0.000260 0.000100 
-0.000260 0.000052 
-0.000260 0.000067 
-0.000279 0.000052 
-0.000225 0.000097 
-0.000242 0.000082 
-0.000224 0.000081 
-0.000263 -0.000017 
-0.000261 0.000004 
-0.000281 -0.000019 
-0.000223 0.000039 
-0.000242 0.000023 
-0.000224 0.000025 
-0.000280 0.000020 
-0.000261 0.000022 
-0.000260 0.000037 
-0.000223 0.000067 
-0.000241 0.000053 
-0.000223 0.000053 
-0.000388 -0.000008 
-0.000363 -0.000008 
-0.000380 -0.000006 
-0.000374 0.000002 
-0.000356 0.000017 
-0.000300 -0.000018 
-0.000300 0.000020 
-0.000301 0.000002 
-0.000321 -0.000016 
-0.000342 -0.000012 
-0.000298 0.000066 
-0.000336 0.000033 
-0.000317 0.000050 
-0.000298 0.000051 
-0.000299 0.000036 
-0.000341 0.000004 
-0.000320 0.000019 
-0.000339 0.000019 
-0.000432 0.033633 
-0.008492 0.030525 
-0.014158 0.029197 
-0.011696 0.029748 
-0.000370 0.031586 
-0.019911 0.024602 
-0.027898 0.017261 
-0.013951 0.028727 
-0.015589 0.028616 
-0.000175 0.030297 
-0.030983 0.017111 
-0.026819 0.023806 
-0.027786 0.017254 
-0.000277 0.030563 
-0.016181 0.028650 
-0.015692 0.028838 
-0.008414 0.001296 
-0.001597 0.000081 
-0.027535 0.010128 
-0.019202 0.004575 
-0.016675 0.004733 
-0.018560 0.004632 
-0.027516 0.010201 
-0.026902 0.023923 
-0.032088 0.017062 
-0.031033 0.017111 
0.013726 0.034452 
0.011216 0.033246 
-0.000047 0.035124 
0.022356 0.021125 
0.019382 0.028197 
0.027420 0.022159 
-0.000016 0.033086 
0.007930 0.032191 
0.004092 0.031279 
0.000871 0.000593 
0.005718 0.002707 
0.001132 0.000752 
0.007069 0.012185 
0.009207 0.006544 
0.004625 0.006070 
0.016184 0.007747 
0.013150 0.007101 
0.019749 0.013584 
-0.000085 0.030665 
-0.008045 0.029354 
-0.011378 0.028974 
-0.000037 0.030505 
-0.004177 0.029864 
-0.000029 0.031603 
-0.008421 0.018260 
-0.007237 0.025020 
-0.000173 0.018801 
0.015758 0.020225 
0.008074 0.019453 
0.007039 0.026345 
-0.000164 0.000061 
-0.000155 0.000068 
-0.000190 0.000042 
-0.000176 0.000052 
-0.000152 0.000050 
-0.000163 0.000052 
-0.000163 0.000043 
-0.000265 -0.000042 
-0.000245 -0.000012 
-0.000212 0.000002 
-0.000228 -0.000006 
-0.000233 -0.000022 
-0.000225 0.000011 
-0.000207 0.000028 
-0.000152 0.000031 
-0.000166 0.000025 
-0.000170 0.000052 
-0.000163 0.000036 
-0.000164 0.000029 
-0.000151 0.000037 
-0.000202 0.000009 
-0.000180 0.000018 
-0.000196 0.000010 
-0.000191 0.000031 
-0.000192 0.000020 
-0.000176 0.000033 
-0.019627 0.024180 
-0.007555 0.011191 
-0.016109 0.017826 
-0.022714 0.017492 
-0.020211 0.010546 
0.000539 0.000459 
-0.000249 0.000260 
0.000157 0.000349 
0.001906 0.002094 
-0.000286 0.005672 
-0.001349 0.000102 
-0.013673 0.004882 
-0.006243 0.001420 
-0.001027 0.000138 
-0.000653 0.000190 
-0.005191 0.005346 
-0.002470 0.001676 
-0.009756 0.005085 
0.000140 0.033080 
0.003990 0.031573 
0.008486 0.018354 
0.007239 0.025972 
0.000695 0.019083 
0.007722 0.030450 
0.010990 0.029618 
0.000369 0.000120 
0.002261 0.001296 
-0.000133 0.000085 
0.019925 0.010102 
0.009551 0.004604 
0.013382 0.004502 
0.000329 0.004764 
0.005097 0.004710 
0.007572 0.010687 
0.015731 0.028440 
0.015229 0.028411 
0.013531 0.029025 
0.015151 0.028639 
0.030569 0.016733 
0.026394 0.023584 
0.027417 0.016932 
0.015937 0.017741 
0.022415 0.017266 
0.019295 0.024378 
-0.000092 0.000015 
-0.000092 0.000011 
-0.000087 0.000015 
-0.000099 0.000006 
-0.000095 0.000008 
-0.000101 0.000008 
-0.000088 0.000007 
-0.000091 0.000007 
-0.000091 0.000004 
-0.000154 0.000014 
-0.000131 0.000013 
-0.000147 0.000007 
-0.000097 0.000016 
-0.000114 0.000017 
-0.000113 0.000027 
-0.000116 0.000007 
-0.000115 0.000010 
-0.000105 0.000007 
-0.000098 -0.000000 
-0.000084 -0.000003 
-0.000075 -0.000011 
-0.000090 0.000002 
-0.000088 -0.000000 
-0.000088 0.000001 
-0.000071 0.000019 
-0.000078 0.000004 
-0.000084 0.000012 
-0.000097 0.000006 
-0.000092 0.000008 
-0.000091 0.000004 
-0.008021 0.032294 
-0.011341 0.033393 
-0.000040 0.030501 
-0.004166 0.031331 
-0.008412 0.019546 
-0.007228 0.026431 
-0.000177 0.018791 
0.013675 0.028542 
0.011176 0.028822 
0.022319 0.017205 
0.019343 0.023921 
0.027375 0.016906 
0.007902 0.029245 
0.004077 0.029806 
0.000853 0.000148 
0.005696 0.001410 
0.001113 0.000145 
0.007055 0.011098 
0.009187 0.004993 
0.004614 0.005290 
0.016153 0.004587 
0.013122 0.004759 
0.019717 0.010313 
0.007023 0.024921 
0.015731 0.017620 
0.008058 0.018149 
0.000740 0.000149 
0.001232 0.000166 
0.001027 0.000163 
0.005938 0.001288 
0.016320 0.004429 
0.001288 0.000148 
0.018073 0.004471 
0.007928 0.001290 
0.001367 0.000154 
0.001348 0.000161 
0.026429 0.023458 
0.027109 0.009821 
0.031642 0.016666 
0.030554 0.016725 
0.027051 0.009889 
0.008009 0.001262 
0.018755 0.004408 
0.018156 0.004396 
-0.000092 0.000020 
-0.000096 0.000015 
-0.000108 0.000015 
-0.000101 0.000015 
-0.000101 0.000020 
-0.000101 0.000011 
-0.000108 0.000008 
-0.000141 0.000004 
-0.000132 0.000008 
-0.000130 0.000015 
-0.000135 0.000001 
-0.000133 0.000003 
-0.000145 -0.000004 
-0.000115 0.000020 
-0.000123 0.000011 
-0.000115 0.000013 
-0.000143 0.000002 
-0.000162 -0.000002 
-0.000116 0.000006 
-0.000128 0.000004 
-0.000151 -0.000006 
-0.000140 -0.000000 
-0.000137 -0.000001 
-0.000116 0.000009 
-0.000125 0.000004 
-0.000116 0.000006 
-0.000180 -0.000045 
-0.000179 -0.000039 
-0.000176 -0.000037 
-0.000185 -0.000045 
-0.000182 -0.000041 
-0.000185 -0.000050 
-0.000171 -0.000022 
-0.000178 -0.000032 
-0.000174 -0.000026 
-0.000202 -0.000079 
-0.000196 -0.000067 
-0.000198 -0.000085 
-0.000184 -0.000038 
-0.000191 -0.000051 
-0.000189 -0.000044 
-0.000190 -0.000062 
-0.000192 -0.000057 
-0.000188 -0.000050 
-0.000147 0.000006 
-0.000157 -0.000006 
-0.000149 -0.000001 
-0.000170 -0.000019 
-0.000164 -0.000012 
-0.000161 -0.000007 
-0.000170 -0.000021 
-0.000167 -0.000017 
-0.000176 -0.000027 
-0.000184 -0.000040 
-0.000181 -0.000034 
-0.000177 -0.000029 
-0.019590 0.028445 
-0.013899 0.034633 
-0.007544 0.012253 
-0.016086 0.020413 
-0.027730 0.022493 
-0.022675 0.021395 
-0.020169 0.013793 
-0.000185 -0.000010 
0.000526 0.000161 
-0.000244 0.000227 
0.000152 0.000186 
-0.000204 -0.000038 
0.001898 0.001657 
-0.000286 0.005655 
-0.001521 0.000624 
-0.001295 0.000481 
-0.000209 -0.000065 
-0.013627 0.007191 
-0.006193 0.002671 
-0.016609 0.007861 
-0.000213 -0.000061 
-0.000993 0.000370 
-0.000634 0.000287 
-0.005177 0.006091 
-0.002453 0.002065 
-0.009728 0.006602 
-0.000151 -0.000005 
-0.000174 -0.000025 
-0.000163 -0.000015 
-0.000154 -0.000009 
-0.000157 -0.000011 
-0.000204 -0.000071 
-0.000199 -0.000049 
-0.000203 -0.000061 
-0.000195 -0.000051 
-0.000185 -0.000036 
-0.000175 -0.000013 
-0.000162 -0.000013 
-0.000167 -0.000013 
-0.000185 -0.000025 
-0.000193 -0.000037 
-0.000179 -0.000028 
-0.000185 -0.000032 
-0.000171 -0.000020 
-0.000146 0.000064 
-0.000147 0.000072 
-0.000143 0.000049 
-0.000144 0.000056 
-0.000134 0.000063 
-0.000138 0.000060 
-0.000132 0.000057 
-0.000140 0.000035 
-0.000140 0.000034 
-0.000127 0.000039 
-0.000132 0.000037 
-0.000125 0.000035 
-0.000141 0.000037 
-0.000142 0.000042 
-0.000118 0.000048 
-0.000120 0.000046 
-0.000117 0.000044 
-0.000127 0.000053 
-0.000123 0.000049 
-0.000125 0.000054 
-0.000120 0.000039 
-0.000122 0.000044 
-0.000124 0.000042 
-0.000135 0.000047 
-0.000129 0.000044 
-0.000130 0.000050 
0.015290 0.035814 
0.026486 0.030635 
0.027133 0.017818 
0.031691 0.024663 
0.030609 0.026143 
0.030603 0.023337 
0.027092 0.015445 
-0.000096 0.000662 
0.000682 0.002521 
0.000325 0.003015 
0.001211 0.001736 
0.000985 0.002098 
-0.000103 0.000373 
0.013320 0.012492 
0.005884 0.006079 
0.016304 0.011325 
0.001304 0.000942 
-0.000141 0.000112 
0.018105 0.008487 
0.007951 0.003550 
-0.000118 0.000208 
0.001377 0.001165 
0.001345 0.001428 
0.018166 0.010271 
0.008011 0.004658 
0.018781 0.009327 
-0.000077 0.000053 
-0.000087 0.000043 
-0.000078 0.000045 
-0.000100 0.000040 
-0.000094 0.000042 
-0.000093 0.000049 
-0.000095 0.000024 
-0.000094 0.000033 
-0.000100 0.000024 
-0.000114 0.000042 
-0.000112 0.000040 
-0.000112 0.000045 
-0.000110 0.000027 
-0.000111 0.000035 
-0.000113 0.000030 
-0.000104 0.000045 
-0.000108 0.000040 
-0.000104 0.000040 
-0.000101 0.000113 
-0.000104 0.000001 
-0.000101 0.000069 
-0.000104 0.000015 
-0.000106 0.000007 
-0.000104 0.000004 
-0.000109 0.000015 
-0.000107 0.000011 
-0.000109 0.000019 
-0.000105 0.000033 
-0.000108 0.000026 
-0.000105 0.000024 
-0.000129 0.000036 
-0.000113 0.000033 
-0.000120 0.000035 
-0.000123 0.000033 
-0.000120 0.000032 
-0.000102 0.000045 
-0.000110 0.000020 
-0.000107 0.000014 
-0.000104 0.000034 
-0.000108 0.000032 
-0.000116 0.000039 
-0.000118 0.000033 
-0.000117 0.000036 
-0.000115 0.000033 
-0.000113 0.000026 
-0.000112 0.000026 
-0.000112 0.000025 
-0.000115 0.000029 
-0.000110 0.037751 
0.015802 0.037340 
0.013604 0.040904 
0.015226 0.039035 
-0.000184 0.041016 
0.026452 0.033715 
0.027431 0.027781 
-0.000260 0.050086 
0.003868 0.047547 
-0.000279 0.049572 
0.008108 0.033639 
0.006927 0.041899 
-0.000128 0.035892 
-0.000247 0.044955 
0.007724 0.045164 
0.011045 0.042947 
0.002144 0.007861 
-0.000064 0.003589 
0.019865 0.020736 
0.009420 0.013776 
-0.000022 0.016704 
0.004869 0.015180 
0.007238 0.024212 
0.019292 0.037471 
0.015783 0.031532 
0.022374 0.029577 
-0.013823 0.071968 
-0.015454 0.069614 
-0.000042 0.071725 
-0.030838 0.053790 
-0.026680 0.063351 
-0.027650 0.056122 
-0.000134 0.066288 
-0.016038 0.066992 
-0.015536 0.064200 
-0.001570 0.010432 
-0.008238 0.019198 
-0.001424 0.011801 
-0.027342 0.037455 
-0.019020 0.028086 
-0.018355 0.025991 
-0.016521 0.032264 
-0.018395 0.030193 
-0.027362 0.042225 
-0.000269 0.054803 
-0.008205 0.055551 
-0.004378 0.052762 
-0.013981 0.061319 
-0.011481 0.058418 
-0.000216 0.060480 
-0.022625 0.043360 
-0.019648 0.052399 
-0.027678 0.046002 
-0.031930 0.051276 
-0.030852 0.048658 
-0.026733 0.058024 
-0.000079 0.000036 
-0.000069 0.000047 
-0.000096 0.000014 
-0.000088 0.000025 
-0.000071 0.000029 
-0.000080 0.000027 
-0.000082 0.000016 
-0.000096 0.001144 
-0.000102 0.000186 
-0.000103 0.000455 
-0.000103 0.000297 
-0.000100 0.001900 