# vtk DataFile Version 2.0
Unstructured Grid Example
ASCII
DATASET UNSTRUCTURED_GRID

POINTS 1617 float
-1.000888 0.000136 0.000000 
-0.001669 0.035528 0.000000 
0.999307 0.000000 0.000000 
-1.000544 1.000295 0.000000 
-0.000201 1.036777 0.000000 
0.999412 0.999839 0.000000 
-1.000274 2.000257 0.000000 
0.000037 2.074318 0.000000 
0.999875 1.999902 0.000000 
-1.000000 3.000000 0.000000 
0.000000 3.000000 0.000000 
1.000000 3.000000 0.000000 
-0.500455 0.000332 0.000000 
-0.500900 0.499986 0.000000 
-1.000834 0.500252 0.000000 
-0.000373 0.530842 0.000000 
-0.500545 1.000313 0.000000 
0.499009 -0.000008 0.000000 
0.499359 0.500093 0.000000 
0.999400 0.499929 0.000000 
0.499337 0.999786 0.000000 
-0.500355 1.500967 0.000000 
-1.000441 1.500214 0.000000 
-0.001006 1.551494 0.000000 
-0.500382 2.005313 0.000000 
0.499746 1.500894 0.000000 
0.999608 1.499783 0.000000 
0.499939 2.005698 0.000000 
-0.499947 2.512234 0.000000 
-0.999975 2.500193 0.000000 
0.000099 2.566700 0.000000 
-0.500000 3.000000 0.000000 
0.499784 2.511712 0.000000 
0.999931 2.500015 0.000000 
0.500000 3.000000 0.000000 
-0.750847 0.000099 0.000000 
-0.750933 0.250112 0.000000 
-1.000896 0.250164 0.000000 
-0.275005 0.260850 0.000000 
-0.500978 0.250098 0.000000 
-0.252215 0.010711 0.000000 
-1.000684 0.750306 0.000000 
-0.750865 0.500160 0.000000 
-0.750694 0.750202 0.000000 
-0.001119 0.280792 0.000000 
-0.275019 0.510713 0.000000 
-0.226485 1.014027 0.000000 
-0.250861 0.761468 0.000000 
0.000035 0.783031 0.000000 
-0.500749 0.750108 0.000000 
-0.750534 1.000227 0.000000 
0.250975 0.010866 0.000000 
0.273692 0.259743 0.000000 
0.749355 0.249989 0.000000 
0.499428 0.250112 0.000000 
0.749272 -0.000000 0.000000 
0.273396 0.509592 0.000000 
0.249165 0.761393 0.000000 
0.999356 0.249947 0.000000 
0.749389 0.499971 0.000000 
0.749388 0.999848 0.000000 
0.749377 0.749910 0.000000 
0.999403 0.749896 0.000000 
0.499293 0.749903 0.000000 
0.225186 1.015003 0.000000 
-0.750446 1.250207 0.000000 
-1.000468 1.250249 0.000000 
-0.226186 1.269045 0.000000 
-0.500391 1.250511 0.000000 
-1.000393 1.750222 0.000000 
-0.750425 1.500152 0.000000 
-0.750397 1.750109 0.000000 
-0.000760 1.292640 0.000000 
-0.250191 1.526479 0.000000 
-0.274587 2.044672 0.000000 
-0.274427 1.785566 0.000000 
-0.000629 1.813040 0.000000 
-0.500395 1.752344 0.000000 
-0.750291 2.000117 0.000000 
0.225515 1.270061 0.000000 
0.749473 1.249837 0.000000 
0.499518 1.250024 0.000000 
0.249916 1.526516 0.000000 
0.274071 1.784604 0.000000 
0.999478 1.249789 0.000000 
0.749628 1.499885 0.000000 
0.749897 2.000002 0.000000 
0.749789 1.749955 0.000000 
0.999759 1.749830 0.000000 
0.499905 1.752690 0.000000 
0.273880 2.043671 0.000000 
-0.750109 2.250165 0.000000 
-1.000104 2.250263 0.000000 
-0.250417 2.300233 0.000000 
-0.500218 2.259545 0.000000 
-0.999974 2.750077 0.000000 
-0.749947 2.500327 0.000000 
-0.749926 2.750520 0.000000 
0.000364 2.328759 0.000000 
-0.225938 2.545444 0.000000 
-0.250000 3.000000 0.000000 
-0.225450 2.773446 0.000000 
-0.000311 2.781909 0.000000 
-0.499800 2.758138 0.000000 
-0.750000 3.000000 0.000000 
0.249545 2.300113 0.000000 
0.749949 2.250022 0.000000 
0.499880 2.259529 0.000000 
0.225388 2.546117 0.000000 
0.225611 2.773971 0.000000 
0.999930 2.249968 0.000000 
0.749954 2.500183 0.000000 
0.750000 3.000000 0.000000 
0.749862 2.750409 0.000000 
0.999900 2.750018 0.000000 
0.499725 2.757525 0.000000 
0.250000 3.000000 0.000000 
-0.875884 0.000124 0.000000 
-0.875893 0.125124 0.000000 
-1.000889 0.125140 0.000000 
-0.625904 0.125080 0.000000 
-0.750894 0.125089 0.000000 
-0.625731 0.000105 0.000000 
-1.000880 0.375207 0.000000 
-0.875911 0.250144 0.000000 
-0.875899 0.375174 0.000000 
-0.140282 0.150265 0.000000 
-0.265091 0.135991 0.000000 
-0.128188 0.026959 0.000000 
-0.500947 0.375012 0.000000 
-0.382991 0.251736 0.000000 
-0.384193 0.376458 0.000000 
-0.375574 0.002096 0.000000 
-0.379914 0.127034 0.000000 
-0.500929 0.125206 0.000000 
-1.000607 0.875308 0.000000 
-0.875688 0.750244 0.000000 
-0.875606 0.875252 0.000000 
-0.875849 0.500203 0.000000 
-0.875774 0.625227 0.000000 
-1.000764 0.625287 0.000000 
-0.625802 0.625124 0.000000 
-0.750785 0.625181 0.000000 
-0.625883 0.500101 0.000000 
-0.625967 0.250096 0.000000 
-0.625945 0.375097 0.000000 
-0.750921 0.375138 0.000000 
-0.001417 0.157198 0.000000 
-0.149688 0.274554 0.000000 
-0.149134 0.524646 0.000000 
-0.153021 0.399412 0.000000 
-0.000743 0.405460 0.000000 
-0.278715 0.385719 0.000000 
-0.383183 0.501295 0.000000 
-0.101769 1.029161 0.000000 
-0.111660 0.902332 0.000000 
-0.000009 0.909696 0.000000 
-0.371745 0.877159 0.000000 
-0.236828 0.887467 0.000000 
-0.368510 1.003022 0.000000 
-0.000094 0.656737 0.000000 
-0.125280 0.776051 0.000000 
-0.138991 0.650185 0.000000 
-0.750607 0.875219 0.000000 
-0.875538 1.000251 0.000000 
-0.500835 0.625023 0.000000 
-0.625709 0.750161 0.000000 
-0.625532 1.000228 0.000000 
-0.625616 0.875201 0.000000 
-0.500648 0.875212 0.000000 
-0.264834 0.635924 0.000000 
-0.376019 0.751596 0.000000 
-0.380200 0.626321 0.000000 
0.125580 0.027272 0.000000 
0.138000 0.149755 0.000000 
0.378917 0.126561 0.000000 
0.263827 0.135385 0.000000 
0.374577 0.001287 0.000000 
0.147780 0.273439 0.000000 
0.151546 0.398049 0.000000 
0.874314 0.124981 0.000000 
0.749309 0.124987 0.000000 
0.874295 0.000000 0.000000 
0.499402 0.375137 0.000000 
0.624375 0.250027 0.000000 
0.624390 0.375037 0.000000 
0.624215 0.000000 0.000000 
0.624316 0.124997 0.000000 
0.499379 0.125017 0.000000 
0.124728 0.776013 0.000000 
0.111103 0.902978 0.000000 
0.148080 0.523437 0.000000 
0.138266 0.649467 0.000000 
0.378221 0.626207 0.000000 
0.263119 0.635246 0.000000 
0.381394 0.501178 0.000000 
0.381791 0.251472 0.000000 
0.382695 0.376300 0.000000 
0.277250 0.384437 0.000000 
0.999324 0.124967 0.000000 
0.874351 0.249969 0.000000 
0.874395 0.499945 0.000000 
0.874380 0.374958 0.000000 
0.999384 0.374937 0.000000 
0.749381 0.374986 0.000000 
0.624381 0.500015 0.000000 
0.874401 0.999851 0.000000 
0.874391 0.874875 0.000000 
0.999403 0.874869 0.000000 
0.624347 0.874856 0.000000 
0.749376 0.874875 0.000000 
0.624367 0.999815 0.000000 
0.999404 0.624916 0.000000 
0.874393 0.749901 0.000000 
0.874397 0.624925 0.000000 
0.235277 0.887996 0.000000 
0.101052 1.030312 0.000000 
0.499318 0.625005 0.000000 
0.374024 0.751468 0.000000 
0.367047 1.002871 0.000000 
0.369930 0.877014 0.000000 
0.499297 0.874819 0.000000 
0.749385 0.624944 0.000000 
0.624348 0.749912 0.000000 
0.624363 0.624970 0.000000 
-0.875489 1.125241 0.000000 
-1.000497 1.125274 0.000000 
-0.625467 1.125233 0.000000 
-0.750480 1.125223 0.000000 
-1.000452 1.375227 0.000000 
-0.875459 1.250225 0.000000 
-0.875444 1.375206 0.000000 
-0.098247 1.156676 0.000000 
-0.222593 1.141213 0.000000 
-0.500357 1.375673 0.000000 
-0.368076 1.255617 0.000000 
-0.370971 1.382333 0.000000 
-0.367171 1.129179 0.000000 
-0.500456 1.125406 0.000000 
-1.000343 1.875239 0.000000 
-0.875397 1.750174 0.000000 
-0.875349 1.875178 0.000000 
-0.875436 1.500189 0.000000 
-0.875423 1.625178 0.000000 
-1.000424 1.625213 0.000000 
-0.625402 1.625058 0.000000 
-0.750418 1.625125 0.000000 
-0.625400 1.500114 0.000000 
-0.625423 1.250214 0.000000 
-0.625403 1.375172 0.000000 
-0.750431 1.375181 0.000000 
-0.000480 1.164381 0.000000 
-0.102028 1.284984 0.000000 
-0.125726 1.544055 0.000000 
-0.112089 1.414128 0.000000 
-0.000956 1.421665 0.000000 
-0.236291 1.397492 0.000000 
-0.375073 1.509341 0.000000 
-0.148725 2.066223 0.000000 
-0.152564 1.936207 0.000000 
-0.000292 1.944033 0.000000 
-0.383694 1.892444 0.000000 
-0.278250 1.915275 0.000000 
-0.382708 2.020769 0.000000 
-0.000889 1.682038 0.000000 
-0.149103 1.805463 0.000000 
-0.139277 1.674598 0.000000 
-0.750357 1.875106 0.000000 
-0.875280 2.000188 0.000000 
-0.500373 1.626490 0.000000 
-0.625397 1.750037 0.000000 
-0.625326 2.000317 0.000000 
-0.625375 1.875100 0.000000 
-0.500404 1.878610 0.000000 
-0.264153 1.655891 0.000000 
-0.382431 1.764381 0.000000 
-0.379271 1.636679 0.000000 
0.097280 1.158019 0.000000 
0.366159 1.129041 0.000000 
0.221609 1.142366 0.000000 
0.100811 1.286157 0.000000 
0.110708 1.414816 0.000000 
0.874428 1.124834 0.000000 
0.749420 1.124835 0.000000 
0.499633 1.375363 0.000000 
0.624479 1.249818 0.000000 
0.624563 1.374861 0.000000 
0.624413 1.124800 0.000000 
0.499414 1.124843 0.000000 
0.148162 1.804319 0.000000 
0.151996 1.934873 0.000000 
0.124330 1.544076 0.000000 
0.138037 1.673949 0.000000 
0.379248 1.636759 0.000000 
0.263895 1.655354 0.000000 
0.375057 1.509359 0.000000 
0.367516 1.255515 0.000000 
0.370768 1.382285 0.000000 
0.235872 1.398098 0.000000 
0.999436 1.124810 0.000000 
0.874473 1.249826 0.000000 
0.874615 1.499844 0.000000 
0.874538 1.374829 0.000000 
0.999537 1.374779 0.000000 
0.749545 1.374855 0.000000 
0.624656 1.499917 0.000000 
0.874888 1.999947 0.000000 
0.874838 1.874921 0.000000 
0.999824 1.874865 0.000000 
0.624885 1.875187 0.000000 
0.749852 1.874982 0.000000 
0.624930 2.000412 0.000000 
0.999685 1.624801 0.000000 
0.874773 1.749893 0.000000 
0.874696 1.624866 0.000000 
0.277725 1.914146 0.000000 
0.148516 2.065049 0.000000 
0.499841 1.626654 0.000000 
0.382230 1.764507 0.000000 
0.381939 2.020882 0.000000 
0.383212 1.892584 0.000000 
0.499937 1.879038 0.000000 
0.749712 1.624921 0.000000 
0.624822 1.750064 0.000000 
0.624746 1.624982 0.000000 
-0.875194 2.125197 0.000000 
-1.000191 2.125268 0.000000 
-0.625248 2.125756 0.000000 
-0.750205 2.125138 0.000000 
-1.000028 2.375238 0.000000 
-0.875100 2.250201 0.000000 
-0.875016 2.375194 0.000000 
-0.138605 2.194714 0.000000 
-0.264406 2.173239 0.000000 
-0.500086 2.386385 0.000000 
-0.375519 2.276883 0.000000 
-0.371202 2.403383 0.000000 
-0.379722 2.149085 0.000000 
-0.500320 2.132371 0.000000 
-1.000004 2.875033 0.000000 
-0.874953 2.750095 0.000000 
-0.874989 2.875053 0.000000 
-0.874957 2.500173 0.000000 
-0.874935 2.625137 0.000000 
-0.999958 2.625135 0.000000 
-0.624882 2.628410 0.000000 
[...]
POINT_DATA 1617

SCALARS u_h float 2
LOOKUP_TABLE default
-0.000888 0.000136 
-0.001669 0.035528 
-0.000693 0.000000 
-0.000544 0.000295 
-0.000201 0.036777 
-0.000588 -0.000161 
-0.000274 0.000257 
0.000037 0.074318 
-0.000125 -0.000098 
0.000000 0.000000 
0.000000 0.000000 
0.000000 0.000000 
-0.000455 0.000332 
-0.000900 -0.000014 
-0.000834 0.000252 
-0.000373 0.030842 
-0.000545 0.000313 
-0.000991 -0.000008 
-0.000641 0.000093 
-0.000600 -0.000071 
-0.000663 -0.000214 
-0.000355 0.000967 
-0.000441 0.000214 
-0.001006 0.051494 
-0.000382 0.005313 
-0.000254 0.000894 
-0.000392 -0.000217 
-0.000061 0.005698 
0.000053 0.012234 
0.000025 0.000193 
0.000099 0.066700 
0.000000 0.000000 
-0.000216 0.011712 
-0.000069 0.000015 
0.000000 0.000000 
-0.000847 0.000099 
-0.000933 0.000112 
-0.000896 0.000164 
-0.025005 0.010850 
-0.000978 0.000098 
-0.002215 0.010711 
-0.000684 0.000306 
-0.000865 0.000160 
-0.000694 0.000202 
-0.001119 0.030792 
-0.025019 0.010713 
0.023515 0.014027 
-0.000861 0.011468 
0.000035 0.033031 
-0.000749 0.000108 
-0.000534 0.000227 
0.000975 0.010866 
0.023692 0.009743 
-0.000645 -0.000011 
-0.000572 0.000112 
-0.000728 -0.000000 
0.023396 0.009592 
-0.000835 0.011393 
-0.000644 -0.000053 
-0.000611 -0.000029 
-0.000612 -0.000152 
-0.000623 -0.000090 
-0.000597 -0.000104 
-0.000707 -0.000097 
-0.024814 0.015003 
-0.000446 0.000207 
-0.000468 0.000249 
0.023814 0.019045 
-0.000391 0.000511 
-0.000393 0.000222 
-0.000425 0.000152 
-0.000397 0.000109 
-0.000760 0.042640 
-0.000191 0.026479 
-0.024587 0.044672 
-0.024427 0.035566 
-0.000629 0.063040 
-0.000395 0.002344 
-0.000291 0.000117 
-0.024485 0.020061 
-0.000527 -0.000163 
-0.000482 0.000024 
-0.000084 0.026516 
0.024071 0.034604 
-0.000522 -0.000211 
-0.000372 -0.000115 
-0.000103 0.000002 
-0.000211 -0.000045 
-0.000241 -0.000170 
-0.000095 0.002690 
0.023880 0.043671 
-0.000109 0.000165 
-0.000104 0.000263 
-0.000417 0.050233 
-0.000218 0.009545 
0.000026 0.000077 
0.000053 0.000327 
0.000074 0.000520 
0.000364 0.078759 
0.024062 0.045444 
0.000000 0.000000 
0.024550 0.023446 
-0.000311 0.031909 
0.000200 0.008138 
0.000000 0.000000 
-0.000455 0.050113 
-0.000051 0.000022 
-0.000120 0.009529 
-0.024612 0.046117 
-0.024389 0.023971 
-0.000070 -0.000032 
-0.000046 0.000183 
0.000000 0.000000 
-0.000138 0.000409 
-0.000100 0.000018 
-0.000275 0.007525 
0.000000 0.000000 
-0.000884 0.000124 
-0.000893 0.000124 
-0.000889 0.000140 
-0.000904 0.000080 
-0.000894 0.000089 
-0.000731 0.000105 
-0.000880 0.000207 
-0.000911 0.000144 
-0.000899 0.000174 
-0.015282 0.025265 
-0.015091 0.010991 
-0.003188 0.026959 
-0.000947 0.000012 
-0.007991 0.001736 
-0.009193 0.001458 
-0.000574 0.002096 
-0.004914 0.002034 
-0.000929 0.000206 
-0.000607 0.000308 
-0.000688 0.000244 
-0.000606 0.000252 
-0.000849 0.000203 
-0.000774 0.000227 
-0.000764 0.000287 
-0.000802 0.000124 
-0.000785 0.000181 
-0.000883 0.000101 
-0.000967 0.000096 
-0.000945 0.000097 
-0.000921 0.000138 
-0.001417 0.032198 
-0.024688 0.024554 
-0.024134 0.024646 
-0.028021 0.024412 
-0.000743 0.030460 
-0.028715 0.010719 
-0.008183 0.001295 
0.023231 0.029161 
0.013340 0.027332 
-0.000009 0.034696 
0.003255 0.002159 
0.013172 0.012467 
0.006490 0.003022 
-0.000094 0.031737 
-0.000280 0.026051 
-0.013991 0.025185 
-0.000607 0.000219 
-0.000538 0.000251 
-0.000835 0.000023 
-0.000709 0.000161 
-0.000532 0.000228 
-0.000616 0.000201 
-0.000648 0.000212 
-0.014834 0.010924 
-0.001019 0.001596 
-0.005200 0.001321 
0.000580 0.027272 
0.013000 0.024755 
0.003917 0.001561 
0.013827 0.010385 
-0.000423 0.001287 
0.022780 0.023439 
0.026546 0.023049 
-0.000686 -0.000019 
-0.000691 -0.000013 
-0.000705 0.000000 
-0.000598 0.000137 
-0.000625 0.000027 
-0.000610 0.000037 
-0.000785 0.000000 
-0.000684 -0.000003 
-0.000621 0.000017 
-0.000272 0.026013 
-0.013897 0.027978 
0.023080 0.023437 
0.013266 0.024467 
0.003221 0.001207 
0.013119 0.010246 
0.006394 0.001178 
0.006791 0.001472 
0.007695 0.001300 
0.027250 0.009437 
-0.000676 -0.000033 
-0.000649 -0.000031 
-0.000605 -0.000055 
-0.000620 -0.000042 
-0.000616 -0.000063 
-0.000619 -0.000014 
-0.000619 0.000015 
-0.000599 -0.000149 
-0.000609 -0.000125 
-0.000597 -0.000131 
-0.000653 -0.000144 
-0.000624 -0.000125 
-0.000633 -0.000185 
-0.000596 -0.000084 
-0.000607 -0.000099 
-0.000603 -0.000075 
-0.014723 0.012996 
-0.023948 0.030312 
-0.000682 0.000005 
-0.000976 0.001468 
-0.007953 0.002871 
-0.005070 0.002014 
-0.000703 -0.000181 
-0.000615 -0.000056 
-0.000652 -0.000088 
-0.000637 -0.000030 
-0.000489 0.000241 
-0.000497 0.000274 
-0.000467 0.000233 
-0.000480 0.000223 
-0.000452 0.000227 
-0.000459 0.000225 
-0.000444 0.000206 
0.026753 0.031676 
0.027407 0.016213 
-0.000357 0.000673 
0.006924 0.005617 
0.004029 0.007333 
0.007829 0.004179 
-0.000456 0.000406 
-0.000343 0.000239 
-0.000397 0.000174 
-0.000349 0.000178 
-0.000436 0.000189 
-0.000423 0.000178 
-0.000424 0.000213 
-0.000402 0.000058 
-0.000418 0.000125 
-0.000400 0.000114 
-0.000423 0.000214 
-0.000403 0.000172 
-0.000431 0.000181 
-0.000480 0.039381 
0.022972 0.034984 
-0.000726 0.044055 
0.012911 0.039128 
-0.000956 0.046665 
0.013709 0.022492 
-0.000073 0.009341 
-0.023725 0.066223 
-0.027564 0.061207 
-0.000292 0.069033 
-0.008694 0.017444 
-0.028250 0.040275 
-0.007708 0.020769 
-0.000889 0.057038 
-0.024103 0.055463 
-0.014277 0.049598 
-0.000357 0.000106 
-0.000280 0.000188 
-0.000373 0.001490 
-0.000397 0.000037 
-0.000326 0.000317 
-0.000375 0.000100 
-0.000404 0.003610 
-0.014153 0.030891 
-0.007431 0.014381 
-0.004271 0.011679 
-0.027720 0.033019 
-0.008841 0.004041 
-0.028391 0.017366 
-0.024189 0.036157 
-0.014292 0.039816 
-0.000572 -0.000166 
-0.000580 -0.000165 
-0.000367 0.000363 
-0.000521 -0.000182 
-0.000437 -0.000139 
-0.000587 -0.000200 
-0.000586 -0.000157 
0.023162 0.054319 
0.026996 0.059873 
-0.000670 0.044076 
0.013037 0.048949 
0.004248 0.011759 
0.013895 0.030354 
0.000057 0.009359 
-0.007484 0.005515 
-0.004232 0.007285 
-0.014128 0.023098 
-0.000564 -0.000190 
-0.000527 -0.000174 
-0.000385 -0.000156 
-0.000462 -0.000171 
-0.000463 -0.000221 
-0.000455 -0.000145 
-0.000344 -0.000083 
-0.000112 -0.000053 
-0.000162 -0.000079 
-0.000176 -0.000135 
-0.000115 0.000187 
-0.000148 -0.000018 
-0.000070 0.000412 
-0.000315 -0.000199 
-0.000227 -0.000107 
-0.000304 -0.000134 
0.027725 0.039146 
0.023516 0.065049 
-0.000159 0.001654 
0.007230 0.014507 
0.006939 0.020882 
0.008212 0.017584 
-0.000063 0.004038 
-0.000288 -0.000079 
-0.000178 0.000064 
-0.000254 -0.000018 
-0.000194 0.000197 
-0.000191 0.000268 
-0.000248 0.000756 
-0.000205 0.000138 
-0.000028 0.000238 
-0.000100 0.000201 
-0.000016 0.000194 
-0.013605 0.069714 
-0.014406 0.048239 
-0.000086 0.011385 
-0.000519 0.026883 
0.003798 0.028383 
-0.004722 0.024085 
-0.000320 0.007371 
-0.000004 0.000033 
0.000047 0.000095 
0.000011 0.000053 
0.000043 0.000173 
0.000065 0.000137 
0.000042 0.000135 
0.000118 0.003410 
0.000085 0.000470 
0.000057 0.003072 
-0.000148 0.001436 
-0.000040 0.002284 
-0.000017 0.000218 
0.000275 0.077951 
0.000097 0.070679 
0.023666 0.060402 
0.013729 0.067960 
0.000292 0.075424 
0.013654 0.049672 
0.007089 0.027586 
0.000000 0.000000 
0.013710 0.010191 
-0.000326 0.010974 
0.004572 0.006049 
0.014434 0.008505 
0.000000 0.000000 
-0.000136 0.051906 
0.023639 0.029297 
0.027281 0.047296 
0.000031 0.000310 
0.000000 0.000000 
0.000163 0.011325 
0.000121 0.002852 
0.000000 0.000000 
0.000064 0.001302 
0.000120 0.003237 
0.028047 0.036661 
0.007594 0.015832 
0.008485 0.023519 
0.013654 0.068998 
0.003753 0.024125 
0.013567 0.047614 
0.000053 0.070588 
-0.013638 0.068477 
-0.000079 -0.000031 
-0.000072 0.000010 
-0.000167 0.011098 
-0.000037 0.001402 
-0.000049 0.002146 
-0.000045 0.000807 
-0.000083 0.007598 
-0.023979 0.030113 
-0.013966 0.010539 
-0.023743 0.061339 
-0.027538 0.048341 
-0.008647 0.023048 
-0.028264 0.037387 
-0.007654 0.027221 
-0.000494 0.026808 
-0.004668 0.028164 
-0.014429 0.050033 
-0.000090 -0.000063 
-0.000061 -0.000013 
-0.000062 0.000015 
-0.000054 0.000002 
-0.000063 -0.000005 
-0.000041 0.000070 
-0.000084 0.002837 
0.000000 0.000000 
-0.000108 0.000018 
-0.000087 -0.000007 
-0.000239 0.001098 
-0.000171 0.000225 
0.000000 0.000000 
-0.000084 0.000026 
-0.000106 0.000030 
-0.000080 0.000025 
-0.014011 0.008690 
0.000000 0.000000 
-0.000258 0.010673 
-0.007364 0.015359 
0.000000 0.000000 
-0.004135 0.005749 
-0.000230 0.002870 
-0.000079 0.000340 
-0.000216 0.002557 
-0.000143 0.003113 
-0.000887 0.000133 
-0.000887 0.000133 
-0.000886 0.000136 
-0.000877 0.000106 
-0.000884 0.000122 
-0.000872 0.000111 
-0.000894 0.000149 
-0.000892 0.000136 
-0.000899 0.000145 
-0.000802 0.000120 
-0.000825 0.000077 
-0.000618 0.000163 
-0.000919 0.000099 
-0.000897 0.000076 
-0.000932 0.000088 
-0.000804 0.000092 
-0.000848 0.000074 
-0.000865 0.000087 
-0.000861 0.000230 
-0.000890 0.000191 
-0.000870 0.000209 
-0.000903 0.000157 
-0.000901 0.000173 
-0.000892 0.000184 
-0.000920 0.000142 
-0.000910 0.000159 
-0.000920 0.000128 
-0.000894 0.000107 
-0.000910 0.000115 
-0.000904 0.000132 
-0.006125 0.031493 
-0.009266 0.025950 
-0.002708 0.033142 
-0.020665 0.010932 
-0.017198 0.018180 
-0.023409 0.017974 
-0.002984 0.018773 
-0.010156 0.018453 
-0.008753 0.010965 
-0.000925 -0.000009 
-0.002411 0.000137 
-0.002374 0.000068 
-0.002185 0.000346 
-0.002346 0.000231 
-0.000966 0.000049 
-0.018867 0.005075 
-0.008860 0.001588 
-0.016972 0.005194 
-0.000264 0.000824 
-0.001092 0.000742 
-0.000782 0.000249 
-0.005854 0.005358 
-0.002881 0.002136 
-0.001341 0.005145 
-0.000974 0.000154 
-0.001585 0.000614 
-0.001933 0.000476 
-0.014012 0.005306 
-0.006648 0.001891 
-0.010211 0.005381 
-0.000573 0.000303 
-0.000606 0.000277 
-0.000571 0.000275 
-0.000686 0.000271 
-0.000645 0.000275 
-0.000644 0.000309 
-0.000647 0.000228 
-0.000646 0.000249 
-0.000691 0.000222 
-0.000842 0.000226 
-0.000808 0.000241 
-0.000801 0.000272 
-0.000820 0.000193 
-0.000814 0.000216 
-0.000857 0.000182 
-0.000724 0.000299 
-0.000769 0.000254 
-0.000728 0.000264 
-0.000856 0.000064 
-0.000844 0.000110 
-0.000892 0.000054 
-0.000740 0.000191 
-0.000792 0.000155 
-0.000746 0.000168 
-0.000874 0.000134 
-0.000835 0.000144 
-0.000827 0.000170 
-0.000731 0.000237 
-0.000779 0.000204 
-0.000735 0.000213 
-0.000917 0.000117 
-0.000980 0.000098 
-0.000969 0.000113 
-0.000950 0.000090 
-0.000949 0.000101 
-0.000924 0.000055 
-0.000908 0.000126 
-0.000917 0.000097 
-0.000950 0.000064 
-0.000971 0.000080 
-0.000878 0.000189 
-0.000933 0.000126 
-0.000909 0.000156 
-0.000887 0.000169 
-0.000897 0.000149 
-0.000963 0.000097 
-0.000933 0.000119 
-0.000948 0.000111 
-0.001532 0.033529 
-0.009534 0.030407 
-0.014810 0.029293 
-0.012526 0.029709 
-0.001281 0.031326 
-0.020587 0.024819 
-0.028233 0.017835 
-0.014076 0.029378 
-0.015814 0.029160 
-0.000552 0.030577 
-0.031147 0.017771 
-0.026966 0.024489 
-0.027962 0.017859 
-0.000936 0.030519 
-0.016530 0.029057 
-0.016183 0.029090 
-0.008964 0.001358 
-0.002235 0.000029 
-0.027761 0.010774 
-0.019554 0.004970 
-0.017163 0.004851 
-0.018975 0.004891 
-0.027784 0.010695 
-0.027237 0.024427 
-0.032271 0.017737 
-0.031270 0.017758 
0.013409 0.034570 
0.010999 0.033533 
-0.000089 0.035678 
0.021733 0.020836 
0.018950 0.028169 
0.026748 0.021778 
0.000034 0.033816 
0.007801 0.032632 
0.004033 0.031851 
0.000354 0.000684 
0.005066 0.002553 
0.000667 0.000900 
0.006395 0.011904 
0.008443 0.006165 
0.003863 0.005704 
0.015482 0.007441 
0.012405 0.006743 
0.019011 0.013172 
-0.000218 0.031234 
-0.008053 0.030102 
-0.011430 0.029695 
-0.000051 0.031176 
-0.004172 0.030595 
-0.000008 0.032338 
-0.008754 0.018521 
-0.007364 0.025573 
-0.000582 0.018914 
0.015197 0.020055 
0.007587 0.019420 
0.006781 0.026632 
-0.000570 0.000253 
-0.000540 0.000270 
-0.000650 0.000211 
-0.000606 0.000233 
-0.000536 0.000236 
-0.000569 0.000236 
-0.000568 0.000224 
-0.000870 -0.000003 
-0.000815 0.000082 
-0.000724 0.000137 
-0.000771 0.000107 
-0.000795 0.000061 
-0.000756 0.000141 
-0.000700 0.000182 
-0.000535 0.000242 
-0.000579 0.000223 
-0.000596 0.000264 
-0.000569 0.000218 
-0.000572 0.000217 
-0.000532 0.000224 
-0.000700 0.000159 
-0.000627 0.000198 
-0.000675 0.000169 
-0.000654 0.000196 
-0.000662 0.000182 
-0.000610 0.000208 
-0.019709 0.024878 
-0.008101 0.011147 
-0.016374 0.018223 
-0.022924 0.018006 
-0.020604 0.010784 
-0.000025 0.000496 
-0.000880 0.000208 
-0.000445 0.000337 
0.001180 0.001840 
-0.001023 0.005352 
-0.002000 0.000023 
-0.014236 0.004865 
-0.006901 0.001280 
-0.001683 0.000050 
-0.001302 0.000112 
-0.005884 0.005102 
-0.003195 0.001424 
-0.010390 0.004944 
-0.000431 0.033361 
0.003229 0.031448 
0.008313 0.018250 
0.006824 0.025832 
0.001072 0.019035 
0.006850 0.030125 
0.010088 0.029222 
-0.000180 0.000158 
0.001913 0.001506 
-0.000960 0.000022 
0.019396 0.010037 
0.009249 0.004836 
0.012973 0.004664 
0.000354 0.004847 
0.004919 0.004945 
0.007462 0.010715 
0.015047 0.028259 
0.014669 0.028378 
0.012662 0.028646 
0.014359 0.028338 
0.029741 0.016297 
0.025542 0.023138 
0.026637 0.016557 
0.015443 0.017556 
0.021738 0.016982 
0.018481 0.023970 
-0.000694 -0.000013 
-0.000700 -0.000011 
-0.000699 -0.000000 
-0.000667 -0.000013 
-0.000689 -0.000016 
-0.000668 -0.000020 
-0.000715 0.000000 
-0.000707 -0.000010 
-0.000715 -0.000009 
-0.000619 0.000122 
-0.000604 0.000078 
-0.000614 0.000068 
-0.000603 0.000061 
-0.000599 0.000076 
-0.000580 0.000134 
-0.000623 0.000008 
-0.000614 0.000036 
-0.000638 0.000004 
-0.000852 -0.000000 
-0.000743 -0.000015 
-0.000732 -0.000034 
-0.000725 -0.000010 
-0.000736 -0.000011 
-0.000749 0.000000 
-0.000580 0.000072 
-0.000664 0.000006 
-0.000622 0.000036 
-0.000660 -0.000003 
-0.000647 0.000013 
-0.000691 -0.000009 
-0.007964 0.033017 
-0.011297 0.034086 
-0.000048 0.031157 
-0.004127 0.032041 
-0.008696 0.019754 
-0.007314 0.026948 
-0.000566 0.018858 
0.013246 0.028669 
0.010876 0.029109 
0.021631 0.016888 
0.018836 0.023880 
0.026613 0.016505 
0.007720 0.029681 
0.003993 0.030367 
0.000289 0.000123 
0.004998 0.001168 
0.000573 0.000180 
0.006380 0.010759 
0.008401 0.004544 
0.003859 0.004849 
0.015377 0.004223 
0.012330 0.004338 
0.018923 0.009856 
0.006748 0.025182 
0.015133 0.017414 
0.007562 0.018074 
0.000284 0.000269 
0.000798 0.000346 
0.000597 0.000329 
0.005566 0.001538 
0.015811 0.004488 
0.000777 0.000239 
0.017337 0.004192 
0.007313 0.001226 
0.000886 0.000292 
0.000894 0.000331 
0.025709 0.023155 
0.026378 0.009537 
0.030804 0.016203 
0.029740 0.016274 
0.026235 0.009453 
0.007517 0.001387 
0.018078 0.004234 
0.017555 0.004338 
-0.000687 -0.000018 
-0.000681 -0.000024 
-0.000647 -0.000041 
-0.000665 -0.000033 
-0.000660 -0.000045 
-0.000667 -0.000026 
-0.000649 -0.000022 
-0.000602 -0.000064 
-0.000608 -0.000058 
-0.000606 -0.000066 
-0.000612 -0.000036 
-0.000610 -0.000048 
-0.000608 -0.000044 
-0.000629 -0.000059 
-0.000618 -0.000052 
-0.000631 -0.000047 
-0.000613 0.000030 
-0.000627 0.000049 
-0.000629 -0.000011 
-0.000615 0.000007 
-0.000614 -0.000010 
-0.000613 0.000001 
-0.000613 -0.000020 
-0.000632 -0.000036 
-0.000620 -0.000029 
-0.000632 -0.000025 
-0.000593 -0.000154 
-0.000600 -0.000141 
-0.000594 -0.000146 
-0.000612 -0.000136 
-0.000605 -0.000137 
-0.000605 -0.000147 
-0.000597 -0.000117 
-0.000603 -0.000128 
-0.000603 -0.000115 
-0.000666 -0.000197 
-0.000646 -0.000167 
-0.000648 -0.000220 
-0.000625 -0.000108 
-0.000636 -0.000131 
-0.000637 -0.000110 
-0.000621 -0.000163 
-0.000631 -0.000149 
-0.000620 -0.000139 
-0.000597 -0.000076 
-0.000599 -0.000081 
-0.000600 -0.000072 
-0.000602 -0.000102 
-0.000600 -0.000091 
-0.000596 -0.000093 
-0.000611 -0.000080 
-0.000605 -0.000086 
-0.000614 -0.000094 
-0.000615 -0.000123 
-0.000616 -0.000109 
-0.000609 -0.000112 
-0.019571 0.029100 
-0.013897 0.035253 
-0.008033 0.012140 
-0.016273 0.020754 
-0.027768 0.023036 
-0.022779 0.021850 
-0.020447 0.013953 
-0.000663 0.000053 
-0.000057 0.000076 
-0.000836 0.000043 
-0.000441 0.000047 
-0.000697 -0.000046 
0.001183 0.001305 
-0.000987 0.005254 
-0.001998 0.000405 
-0.001818 0.000246 
-0.000688 -0.000206 
-0.014067 0.007071 
-0.006722 0.002403 
-0.016945 0.007868 
-0.000710 -0.000144 
-0.001550 0.000137 
-0.001215 0.000071 
-0.005806 0.005760 
-0.003109 0.001703 
-0.010268 0.006367 
-0.000603 -0.000064 
-0.000619 -0.000073 
-0.000609 -0.000066 
-0.000607 -0.000054 
-0.000612 -0.000041 
-0.000676 -0.000166 
-0.000676 -0.000091 
-0.000679 -0.000130 
-0.000655 -0.000117 
-0.000635 -0.000088 
-0.000641 0.000020 
-0.000618 -0.000025 
-0.000627 -0.000005 
-0.000655 -0.000014 
-0.000667 -0.000052 
-0.000630 -0.000065 
-0.000645 -0.000058 
-0.000624 -0.000044 
-0.000514 0.000264 
-0.000518 0.000285 
-0.000508 0.000234 
-0.000511 0.000247 
-0.000481 0.000261 
-0.000493 0.000256 
-0.000476 0.000247 
-0.000494 0.000252 
-0.000497 0.000234 
-0.000460 0.000217 
-0.000474 0.000224 
-0.000452 0.000217 
-0.000500 0.000226 
-0.000504 0.000227 
-0.000446 0.000219 
-0.000449 0.000218 
-0.000444 0.000210 
-0.000464 0.000237 
-0.000455 0.000227 
-0.000459 0.000237 
-0.000444 0.000204 
-0.000450 0.000215 
-0.000454 0.000214 
-0.000485 0.000230 
-0.000467 0.000223 
-0.000472 0.000233 
0.014870 0.035762 
0.025892 0.030325 
0.026532 0.017549 
0.030984 0.024197 
0.029919 0.025689 
0.029903 0.022895 
0.026378 0.015039 
-0.000352 0.000798 
0.000497 0.002825 
0.000159 0.003294 
0.000956 0.002042 
0.000769 0.002411 
-0.000370 0.000581 
0.013046 0.012718 
0.005687 0.006440 
0.015931 0.011434 
0.000895 0.001143 
-0.000498 0.000360 
0.017465 0.008261 
0.007432 0.003565 
-0.000420 0.000455 
0.001022 0.001412 
0.001042 0.001711 
0.017696 0.010260 
0.007655 0.004864 
0.018219 0.009201 
-0.000311 0.000249 
-0.000347 0.000210 
-0.000314 0.000216 
-0.000395 0.000200 
-0.000374 0.000204 
-0.000371 0.000230 
-0.000378 0.000143 
-0.000376 0.000175 
-0.000397 0.000144 
-0.000439 0.000204 
-0.000433 0.000200 
-0.000433 0.000212 
-0.000428 0.000161 
-0.000431 0.000182 
-0.000432 0.000171 
-0.000410 0.000216 
-0.000424 0.000198 
-0.000412 0.000198 
-0.000386 0.000179 
-0.000401 0.000084 
-0.000381 0.000167 
-0.000410 0.000116 
-0.000412 0.000094 
-0.000406 0.000080 
-0.000415 0.000132 
-0.000414 0.000112 
-0.000423 0.000138 
-0.000412 0.000175 
-0.000421 0.000153 
-0.000411 0.000147 
-0.000459 0.000254 
-0.000407 0.000233 
-0.000430 0.000247 
-0.000442 0.000226 
-0.000436 0.000206 
-0.000379 0.000174 
-0.000416 0.000153 
-0.000399 0.000144 
-0.000382 0.000192 
-0.000391 0.000214 
-0.000440 0.000197 
-0.000436 0.000195 
-0.000439 0.000193 
-0.000435 0.000182 
-0.000427 0.000167 
-0.000410 0.000196 
-0.000419 0.000174 
-0.000425 0.000192 
-0.000335 0.038005 
0.015283 0.037126 
0.012930 0.040434 
0.014621 0.038680 
-0.000626 0.040920 
0.025757 0.033226 
0.026781 0.027375 
-0.000937 0.049550 
0.003148 0.046966 
-0.001001 0.048981 
0.007690 0.033540 
0.006322 0.041501 
-0.000446 0.035924 
-0.000873 0.044552 
0.006990 0.044578 
0.010326 0.042400 
0.002064 0.008299 
-0.000222 0.003829 
0.019440 0.020695 
0.009240 0.014108 
-0.000051 0.017184 
0.004772 0.015599 
0.007013 0.024424 
0.018590 0.036952 
0.015273 0.031310 
0.021785 0.029251 
-0.013669 0.072419 
-0.015386 0.069970 
-0.000121 0.071817 
-0.030715 0.054270 
-0.026538 0.063851 
-0.027544 0.056540 
-0.000465 0.066075 
-0.016075 0.067227 
-0.015691 0.064294 
-0.001867 0.010270 
-0.008480 0.019086 
-0.001737 0.011611 
-0.027256 0.037935 
-0.019076 0.028290 
-0.018358 0.026308 
-0.016711 0.032213 
-0.018515 0.030272 
-0.027341 0.042540 
-0.000968 0.054188 
-0.008717 0.055211 
-0.004984 0.052309 
-0.014261 0.061263 
-0.011882 0.058214 
-0.000774 0.060006 
-0.022658 0.043744 
-0.019854 0.052514 
-0.027640 0.046461 
-0.031812 0.051784 
-0.030763 0.049159 
-0.026733 0.058384 
-0.000317 0.000183 
-0.000277 0.000221 
-0.000380 0.000105 
-0.000353 0.000144 
-0.000284 0.000154 
-0.000321 0.000148 
-0.000328 0.000110 
-0.000362 0.001194 
-0.000392 0.000222 
-0.000400 0.000445 
-0.000397 0.000307 