# vtk DataFile Version 2.0
Unstructured Grid Example
ASCII
DATASET UNSTRUCTURED_GRID

POINTS 35 float
-0.991177 -0.000000 0.000000 
-0.014816 0.039794 0.000000 
1.005730 0.002505 0.000000 
-1.004161 1.001572 0.000000 
0.009870 1.043362 0.000000 
0.999483 1.001411 0.000000 
-1.002752 2.001351 0.000000 
0.006361 2.073816 0.000000 
1.000823 2.003876 0.000000 
-1.000000 3.000000 0.000000 
0.000000 3.000000 0.000000 
1.000000 3.000000 0.000000 
-0.490260 0.007716 0.000000 
-0.502980 0.505867 0.000000 
-1.002039 0.499956 0.000000 
0.010192 0.539739 0.000000 
-0.502701 0.998488 0.000000 
0.505132 0.000462 0.000000 
0.499608 0.497300 0.000000 
0.998317 0.502063 0.000000 
0.499157 1.004352 0.000000 
-0.496470 1.503926 0.000000 
-0.996619 1.501696 0.000000 
-0.014431 1.550097 0.000000 
-0.505505 2.009338 0.000000 
0.509006 1.507252 0.000000 
1.006780 1.503555 0.000000 
0.501198 2.007717 0.000000 
-0.500499 2.511345 0.000000 
-1.001322 2.501990 0.000000 
0.006018 2.568581 0.000000 
-0.500000 3.000000 0.000000 
0.495502 2.512376 0.000000 
0.999389 2.501942 0.000000 
0.500000 3.000000 0.000000 

CELLS 48 192
3  0 12 14 
3  1 13 12 
3  3 14 13 
3  12 13 14 
3  1 15 13 
3  4 16 15 
3  3 13 16 
3  15 16 13 
3  1 17 15 
3  2 18 17 
3  4 15 18 
3  17 18 15 
3  2 19 18 
3  5 20 19 
3  4 18 20 
3  19 20 18 
3  3 16 22 
3  4 21 16 
3  6 22 21 
3  16 21 22 
3  4 23 21 
3  7 24 23 
3  6 21 24 
3  23 24 21 
3  4 20 23 
3  5 25 20 
3  7 23 25 
3  20 25 23 
3  5 26 25 
3  8 27 26 
3  7 25 27 
3  26 27 25 
3  6 24 29 
3  7 28 24 
3  9 29 28 
3  24 28 29 
3  7 30 28 
3  10 31 30 
3  9 28 31 
3  30 31 28 
3  7 27 30 
3  8 32 27 
3  10 30 32 
3  27 32 30 
3  8 33 32 
3  11 34 33 
3  10 32 34 
3  33 34 32 

CELL_TYPES 48
5
5
5
5
5
5
5
5
5
5
5
5
5
5
5
5
5
5
5
5
5
5
5
5
5
5
5
5
5
5
5
5
5
5
5
5
5
5
5
5
5
5
5
5
5
5
5
5

POINT_DATA 35

SCALARS u_h float 2
LOOKUP_TABLE default
0.008823 -0.000000 
-0.014816 0.039794 
0.005730 0.002505 
-0.004161 0.001572 
0.009870 0.043362 
-0.000517 0.001411 
-0.002752 0.001351 
0.006361 0.073816 
0.000823 0.003876 
0.000000 0.000000 
0.000000 0.000000 
0.000000 0.000000 
0.009740 0.007716 
-0.002980 0.005867 
-0.002039 -0.000044 
0.010192 0.039739 
-0.002701 -0.001512 
0.005132 0.000462 
-0.000392 -0.002700 
-0.001683 0.002063 
-0.000843 0.004352 
0.003530 0.003926 
0.003381 0.001696 
-0.014431 0.050097 
-0.005505 0.009338 
0.009006 0.007252 
0.006780 0.003555 
0.001198 0.007717 
-0.000499 0.011345 
-0.001322 0.001990 
0.006018 0.068581 
0.000000 0.000000 
-0.004498 0.012376 
-0.000611 0.001942 
0.000000 0.000000 

CELL_DATA 48

SCALARS epsilon float 4
LOOKUP_TABLE default
0.002403 0.000365 0.000000 -0.003126
-0.048238 0.000303 0.000000 0.018740
-0.001825 0.003346 0.000000 0.003766
-0.001254 -0.003330 0.000000 -0.006811
0.023887 -0.001223 0.000000 0.058223
0.024882 0.011053 0.000000 0.044211
0.002920 -0.014845 0.000000 -0.002851
0.025960 -0.012661 0.000000 0.034629
0.044019 0.006507 0.000000 -0.015219
0.001302 -0.006290 0.000000 -0.003462
-0.021447 0.010871 0.000000 -0.042442
-0.022292 -0.003494 0.000000 -0.048331
-0.002333 -0.000696 0.000000 -0.002665
0.000668 -0.001274 0.000000 -0.001780
-0.021726 0.017025 0.000000 -0.038909
-0.002576 0.014058 0.000000 0.004245
0.003122 0.000360 0.000000 0.004437
0.023819 0.013495 0.000000 0.050445
0.000429 -0.000627 0.000000 -0.003900
0.000320 0.010771 0.000000 0.008434
-0.030764 0.022386 0.000000 0.020311
0.019199 0.048615 0.000000 0.081814
-0.005072 0.011180 0.000000 -0.001182
-0.034687 0.016952 0.000000 0.036249
-0.024274 0.012666 0.000000 -0.063297
0.000959 0.005915 0.000000 0.006918
0.049731 0.052586 0.000000 -0.020996
0.047552 0.010685 0.000000 -0.033099
-0.004247 0.004415 0.000000 0.003649
-0.000771 0.000579 0.000000 -0.009800
-0.012341 0.007785 0.000000 -0.073918
-0.004455 0.000840 0.000000 -0.011537
-0.005562 0.001361 0.000000 0.009415
0.022242 0.010639 0.000000 0.069079
0.001599 -0.003862 0.000000 0.010712
0.001508 0.003992 0.000000 0.014315
0.013027 -0.003927 0.000000 0.057493
0.000097 -0.146332 0.000000 -0.005866
0.000001 -0.022947 0.000000 0.000499
0.012833 -0.016377 0.000000 0.059048
-0.010472 -0.001504 0.000000 -0.067138
-0.000773 0.009218 0.000000 -0.009505
-0.022753 -0.139010 0.000000 -0.071093
-0.022482 0.014467 0.000000 -0.061475
0.007688 -0.003720 0.000000 -0.011897
0.000001 -0.003891 0.000000 0.000611
0.000043 -0.025059 0.000000 0.004495
0.007976 -0.024642 0.000000 -0.006238

SCALARS sigma float 4
LOOKUP_TABLE default
0.030582 0.015819 0.013920 -0.024152
-0.682363 -0.314242 -0.298982 0.156905
-0.005836 0.033440 0.008281 0.029109
-0.040957 -0.054989 -0.028784 -0.052657
0.282337 0.083395 0.109720 0.442800
0.372704 0.239402 0.183632 0.331886
-0.047151 -0.184786 -0.069581 -0.021830
0.258392 -0.054295 0.061229 0.259803
0.586356 0.291522 0.263363 -0.105572
-0.019763 -0.077907 -0.029301 -0.026920
-0.250692 -0.028982 -0.083902 -0.333642
-0.346714 -0.229203 -0.172775 -0.379692
-0.037211 -0.024103 -0.018394 -0.020453
0.001501 -0.013560 -0.003618 -0.013666
-0.215881 0.059554 -0.046898 -0.305896
0.045563 0.172461 0.065407 0.032795
0.042419 0.021931 0.019305 0.034180
0.371857 0.265846 0.191311 0.379760
0.001084 -0.006532 -0.001634 -0.030037
0.065035 0.145498 0.063160 0.064362
-0.335046 0.052036 -0.084903 0.171393
0.479576 0.650490 0.339020 0.614778
-0.007214 0.117715 0.033150 -0.008013
-0.406188 -0.037812 -0.133200 0.292635
-0.292719 -0.021021 -0.094122 -0.492946
0.044247 0.083583 0.038349 0.052788
0.923540 0.927475 0.555304 -0.154199
0.665786 0.366185 0.309592 -0.240664
-0.033474 0.033769 0.000089 0.027700
-0.008170 0.002537 -0.001690 -0.075387
-0.175553 -0.087967 -0.079056 -0.575120
-0.057073 -0.015533 -0.021782 -0.088825
-0.068040 -0.015629 -0.025101 0.072756
0.311362 0.163603 0.142490 0.520669
-0.001881 -0.045264 -0.014144 0.082328
0.041614 0.059724 0.030401 0.109868
0.113646 -0.066691 0.014087 0.436544
-0.917118 -2.139941 -0.917118 -0.053648
-0.133942 -0.312532 -0.133942 0.003927
0.037030 -0.240556 -0.061058 0.448634
-0.203304 -0.204427 -0.122320 -0.521945
0.041497 0.118303 0.047940 -0.072740
-1.239099 -2.298364 -1.061239 -0.567550
-0.261189 -0.024603 -0.085737 -0.482525
0.080291 -0.008925 0.021410 -0.090948
-0.022492 -0.052482 -0.022492 0.004720
-0.146427 -0.341663 -0.146427 0.035479
-0.038908 -0.293432 -0.099702 -0.046454

