# vtk DataFile Version 2.0
Unstructured Grid Example
ASCII
DATASET UNSTRUCTURED_GRID

POINTS 425 float
-1.001466 0.000709 0.000000 
-0.004974 0.036595 0.000000 
0.997729 -0.000000 0.000000 
-1.001435 1.001310 0.000000 
0.000002 1.038630 0.000000 
0.998855 0.999861 0.000000 
-1.000701 2.000955 0.000000 
0.000413 2.075236 0.000000 
1.000014 2.000119 0.000000 
-1.000000 3.000000 0.000000 
0.000000 3.000000 0.000000 
1.000000 3.000000 0.000000 
-0.500579 0.002035 0.000000 
-0.502162 0.500838 0.000000 
-1.002034 0.501129 0.000000 
-0.000494 0.532955 0.000000 
-0.501412 1.001522 0.000000 
0.497128 -0.000104 0.000000 
0.498535 0.500975 0.000000 
0.998590 0.499911 0.000000 
0.498671 0.999789 0.000000 
-0.500824 1.501477 0.000000 
-1.001170 1.501010 0.000000 
-0.002891 1.549815 0.000000 
-0.500982 2.005257 0.000000 
0.499802 1.501362 0.000000 
0.999348 1.499839 0.000000 
0.500136 2.006682 0.000000 
-0.499816 2.512970 0.000000 
-0.999869 2.500701 0.000000 
0.000460 2.567682 0.000000 
-0.500000 3.000000 0.000000 
0.499511 2.511293 0.000000 
1.000085 2.500325 0.000000 
0.500000 3.000000 0.000000 
-0.751327 0.001032 0.000000 
-0.752064 0.251018 0.000000 
-1.001944 0.250825 0.000000 
-0.275207 0.263557 0.000000 
-0.502133 0.251328 0.000000 
-0.254907 0.012183 0.000000 
-1.001758 0.751319 0.000000 
-0.752122 0.501102 0.000000 
-0.751780 0.751175 0.000000 
-0.002896 0.280994 0.000000 
-0.275435 0.512504 0.000000 
-0.228270 1.013163 0.000000 
-0.252228 0.761497 0.000000 
0.000854 0.786072 0.000000 
-0.501909 0.751098 0.000000 
-0.751396 1.001207 0.000000 
0.252461 0.013080 0.000000 
0.272370 0.260313 0.000000 
0.748245 0.250205 0.000000 
0.498577 0.250887 0.000000 
0.747612 0.000075 0.000000 
0.271564 0.508932 0.000000 
0.248006 0.761303 0.000000 
0.998196 0.249863 0.000000 
0.748599 0.500253 0.000000 
0.748813 0.999949 0.000000 
0.748719 0.750112 0.000000 
0.998763 0.749923 0.000000 
0.498456 0.750348 0.000000 
0.225252 1.016464 0.000000 
-0.751163 1.251086 0.000000 
-1.001250 1.251167 0.000000 
-0.227342 1.268914 0.000000 
-0.500962 1.251565 0.000000 
-1.001031 1.750942 0.000000 
-0.751088 1.500831 0.000000 
-0.751003 1.750607 0.000000 
-0.001965 1.292228 0.000000 
-0.250220 1.527796 0.000000 
-0.274496 2.045468 0.000000 
-0.273878 1.787420 0.000000 
-0.001728 1.812139 0.000000 
-0.500947 1.752343 0.000000 
-0.750720 2.000561 0.000000 
0.226285 1.272362 0.000000 
0.749042 1.249935 0.000000 
0.499209 1.250033 0.000000 
0.250313 1.527993 0.000000 
0.273496 1.784279 0.000000 
0.999032 1.249805 0.000000 
0.749410 1.500094 0.000000 
0.750051 2.000401 0.000000 
0.749786 1.750301 0.000000 
0.999718 1.749965 0.000000 
0.500144 1.753645 0.000000 
0.272716 2.042162 0.000000 
-0.750232 2.250664 0.000000 
-1.000232 2.250921 0.000000 
-0.251211 2.299376 0.000000 
-0.500589 2.259886 0.000000 
-0.999888 2.750322 0.000000 
-0.749784 2.500859 0.000000 
-0.749721 2.750869 0.000000 
0.001415 2.330573 0.000000 
-0.226880 2.544015 0.000000 
-0.250000 3.000000 0.000000 
-0.225351 2.772963 0.000000 
-0.000917 2.781675 0.000000 
-0.499310 2.758746 0.000000 
-0.750000 3.000000 0.000000 
0.248663 2.298945 0.000000 
0.750183 2.250391 0.000000 
0.499886 2.259946 0.000000 
0.225224 2.546167 0.000000 
0.225909 2.774642 0.000000 
1.000151 2.250249 0.000000 
0.750112 2.500471 0.000000 
0.750000 3.000000 0.000000 
0.749631 2.750479 0.000000 
0.999815 2.750214 0.000000 
0.499185 2.756694 0.000000 
0.250000 3.000000 0.000000 
-0.876448 0.000885 0.000000 
-0.876753 0.125874 0.000000 
-1.001731 0.125726 0.000000 
-0.626781 0.126176 0.000000 
-0.751762 0.125975 0.000000 
-0.626043 0.001296 0.000000 
-1.002050 0.375976 0.000000 
-0.876999 0.250934 0.000000 
-0.877111 0.376023 0.000000 
-0.142391 0.150943 0.000000 
-0.266047 0.138425 0.000000 
-0.132684 0.026898 0.000000 
-0.502184 0.375981 0.000000 
-0.383526 0.254025 0.000000 
-0.385013 0.377863 0.000000 
-0.375925 0.005063 0.000000 
-0.380404 0.130024 0.000000 
-0.501820 0.126743 0.000000 
-1.001586 0.876338 0.000000 
-0.876769 0.751218 0.000000 
-0.876580 0.876235 0.000000 
-0.877082 0.501108 0.000000 
-0.876951 0.626175 0.000000 
-1.001922 0.626249 0.000000 
-0.627004 0.626071 0.000000 
-0.751974 0.626136 0.000000 
-0.627152 0.501049 0.000000 
-0.627147 0.251154 0.000000 
-0.627222 0.376091 0.000000 
-0.752173 0.376067 0.000000 
-0.003737 0.156987 0.000000 
-0.150541 0.276210 0.000000 
-0.148864 0.527489 0.000000 
-0.153140 0.401896 0.000000 
-0.001714 0.406593 0.000000 
-0.278831 0.388172 0.000000 
-0.384411 0.501881 0.000000 
-0.102792 1.029133 0.000000 
-0.112118 0.903326 0.000000 
0.000683 0.912389 0.000000 
-0.373484 0.876946 0.000000 
-0.238527 0.886855 0.000000 
-0.369968 1.003181 0.000000 
0.000435 0.659557 0.000000 
-0.125242 0.778021 0.000000 
-0.138678 0.652834 0.000000 
-0.751577 0.876204 0.000000 
-0.876415 1.001222 0.000000 
-0.502074 0.625900 0.000000 
-0.626809 0.751144 0.000000 
-0.626383 1.001277 0.000000 
-0.626593 0.876229 0.000000 
-0.501677 0.876336 0.000000 
-0.265725 0.636830 0.000000 
-0.377803 0.751308 0.000000 
-0.381791 0.626309 0.000000 
0.125856 0.027786 0.000000 
0.136377 0.149580 0.000000 
0.378597 0.128319 0.000000 
0.263280 0.137000 0.000000 
0.374246 0.002852 0.000000 
0.145725 0.272942 0.000000 
0.149741 0.397701 0.000000 
0.872919 0.125012 0.000000 
0.747946 0.125118 0.000000 
0.872708 0.000003 0.000000 
0.498593 0.376057 0.000000 
0.623356 0.250452 0.000000 
0.623516 0.375554 0.000000 
0.622427 0.000108 0.000000 
0.623035 0.125252 0.000000 
0.498330 0.125439 0.000000 
0.124863 0.777953 0.000000 
0.111668 0.905492 0.000000 
0.146859 0.523687 0.000000 
0.137753 0.650568 0.000000 
0.376653 0.625832 0.000000 
0.261496 0.634660 0.000000 
0.379985 0.501306 0.000000 
0.381141 0.252878 0.000000 
0.381630 0.377086 0.000000 
0.275518 0.384182 0.000000 
0.997938 0.124891 0.000000 
0.873200 0.250032 0.000000 
0.873596 0.500060 0.000000 
0.873433 0.375054 0.000000 
0.998423 0.374881 0.000000 
0.748462 0.375257 0.000000 
0.623589 0.500530 0.000000 
0.873840 0.999924 0.000000 
0.873792 0.874964 0.000000 
0.998807 0.874898 0.000000 
0.623675 0.875035 0.000000 
0.748757 0.875021 0.000000 
0.623756 0.999896 0.000000 
0.998698 0.624928 0.000000 
0.873753 0.750008 0.000000 
0.873696 0.625044 0.000000 
0.234729 0.888662 0.000000 
0.101737 1.032956 0.000000 
0.498474 0.625707 0.000000 
0.372537 0.750879 0.000000 
0.366375 1.002842 0.000000 
0.368764 0.876554 0.000000 
0.498517 0.875007 0.000000 
0.748676 0.625198 0.000000 
0.623636 0.750222 0.000000 
0.623618 0.625404 0.000000 
-0.876292 1.126177 0.000000 
-1.001322 1.126249 0.000000 
-0.626206 1.126253 0.000000 
-0.751255 1.126169 0.000000 
-1.001206 1.376082 0.000000 
-0.876214 1.251107 0.000000 
-0.876170 1.376021 0.000000 
-0.099737 1.155838 0.000000 
-0.224183 1.140534 0.000000 
-0.500848 1.376483 0.000000 
-0.368566 1.256854 0.000000 
-0.371014 1.383939 0.000000 
-0.368176 1.129878 0.000000 
-0.501160 1.126598 0.000000 
-1.000892 1.875944 0.000000 
-0.876022 1.750802 0.000000 
-0.875891 1.875774 0.000000 
-0.876141 1.500933 0.000000 
-0.876100 1.625856 0.000000 
-1.001119 1.625962 0.000000 
-0.625979 1.625491 0.000000 
-0.751060 1.625702 0.000000 
-0.625981 1.500718 0.000000 
-0.626078 1.251142 0.000000 
-0.626007 1.375952 0.000000 
-0.751113 1.375967 0.000000 
-0.000977 1.165106 0.000000 
-0.103748 1.283743 0.000000 
-0.126991 1.543421 0.000000 
-0.113731 1.412972 0.000000 
-0.002672 1.420383 0.000000 
-0.236879 1.398101 0.000000 
-0.374840 1.511027 0.000000 
-0.147961 2.068020 0.000000 
-0.152082 1.937792 0.000000 
-0.000644 1.944036 0.000000 
-0.383958 1.892674 0.000000 
-0.277814 1.916772 0.000000 
-0.383370 2.020341 0.000000 
-0.002549 1.680510 0.000000 
-0.149148 1.806442 0.000000 
-0.139959 1.674756 0.000000 
-0.750894 1.875559 0.000000 
-0.875702 2.000767 0.000000 
-0.500871 1.626707 0.000000 
-0.625972 1.750340 0.000000 
-0.625816 2.000572 0.000000 
-0.625926 1.875342 0.000000 
-0.501002 1.878512 0.000000 
-0.263770 1.657672 0.000000 
-0.382345 1.765289 0.000000 
-0.378997 1.638116 0.000000 
0.097762 1.160292 0.000000 
0.366043 1.129623 0.000000 
0.222149 1.144431 0.000000 
0.100841 1.287638 0.000000 
0.110175 1.415273 0.000000 
0.873917 1.124900 0.000000 
0.748906 1.124918 0.000000 
0.499520 1.375565 0.000000 
0.624068 1.249880 0.000000 
0.624280 1.375007 0.000000 
0.623889 1.124839 0.000000 
0.498912 1.124780 0.000000 
0.146770 1.802694 0.000000 
0.150859 1.933407 0.000000 
0.123286 1.543524 0.000000 
0.136677 1.672647 0.000000 
0.379880 1.638435 0.000000 
0.263819 1.655955 0.000000 
0.375845 1.511202 0.000000 
0.367895 1.256719 0.000000 
0.371470 1.383953 0.000000 
0.236583 1.400190 0.000000 
0.998926 1.124825 0.000000 
0.874032 1.249901 0.000000 
0.874369 1.499985 0.000000 
0.874187 1.374931 0.000000 
0.999175 1.374808 0.000000 
0.749215 1.374998 0.000000 
0.624500 1.500192 0.000000 
0.875037 2.000237 0.000000 
0.874910 1.875189 0.000000 
0.999882 1.875043 0.000000 
0.625033 1.875826 0.000000 
0.749936 1.875369 0.000000 
0.625136 2.001083 0.000000 
0.999535 1.624894 0.000000 
0.874748 1.750125 0.000000 
0.874562 1.625053 0.000000 
0.276755 1.913061 0.000000 
0.147842 2.064146 0.000000 
0.500018 1.627397 0.000000 
0.382518 1.765707 0.000000 
0.381390 2.020689 0.000000 
0.383069 1.893111 0.000000 
0.500180 1.880084 0.000000 
0.749607 1.625203 0.000000 
0.624890 1.750610 0.000000 
0.624709 1.625400 0.000000 
-0.875467 2.125769 0.000000 
-1.000472 2.125954 0.000000 
-0.625627 2.126087 0.000000 
-0.750491 2.125600 0.000000 
-1.000017 2.375839 0.000000 
-0.875213 2.250762 0.000000 
-0.874978 2.375731 0.000000 
-0.137867 2.196265 0.000000 
-0.264777 2.173173 0.000000 
-0.500225 2.386962 0.000000 
-0.376594 2.275837 0.000000 
-0.372111 2.402531 0.000000 
-0.380693 2.148191 0.000000 
-0.500848 2.132478 0.000000 
-1.000002 2.875148 0.000000 
-0.874814 2.750373 0.000000 
-0.874945 2.875189 0.000000 
-0.874808 2.500656 0.000000 
-0.874750 2.625533 0.000000 
-0.999825 2.625518 0.000000 
-0.624589 2.628992 0.000000 
[...]
POINT_DATA 425

SCALARS u_h float 2
LOOKUP_TABLE default
-0.001466 0.000709 
-0.004974 0.036595 
-0.002271 -0.000000 
-0.001435 0.001310 
0.000002 0.038630 
-0.001145 -0.000139 
-0.000701 0.000955 
0.000413 0.075236 
0.000014 0.000119 
0.000000 0.000000 
0.000000 0.000000 
0.000000 0.000000 
-0.000579 0.002035 
-0.002162 0.000838 
-0.002034 0.001129 
-0.000494 0.032955 
-0.001412 0.001522 
-0.002872 -0.000104 
-0.001465 0.000975 
-0.001410 -0.000089 
-0.001329 -0.000211 
-0.000824 0.001477 
-0.001170 0.001010 
-0.002891 0.049815 
-0.000982 0.005257 
-0.000198 0.001362 
-0.000652 -0.000161 
0.000136 0.006682 
0.000184 0.012970 
0.000131 0.000701 
0.000460 0.067682 
0.000000 0.000000 
-0.000489 0.011293 
0.000085 0.000325 
0.000000 0.000000 
-0.001327 0.001032 
-0.002064 0.001018 
-0.001944 0.000825 
-0.025207 0.013557 
-0.002133 0.001328 
-0.004907 0.012183 
-0.001758 0.001319 
-0.002122 0.001102 
-0.001780 0.001175 
-0.002896 0.030994 
-0.025435 0.012504 
0.021730 0.013163 
-0.002228 0.011497 
0.000854 0.036072 
-0.001909 0.001098 
-0.001396 0.001207 
0.002461 0.013080 
0.022370 0.010313 
-0.001755 0.000205 
-0.001423 0.000887 
-0.002388 0.000075 
0.021564 0.008932 
-0.001994 0.011303 
-0.001804 -0.000137 
-0.001401 0.000253 
-0.001187 -0.000051 
-0.001281 0.000112 
-0.001237 -0.000077 
-0.001544 0.000348 
-0.024748 0.016464 
-0.001163 0.001086 
-0.001250 0.001167 
0.022658 0.018914 
-0.000962 0.001565 
-0.001031 0.000942 
-0.001088 0.000831 
-0.001003 0.000607 
-0.001965 0.042228 
-0.000220 0.027796 
-0.024496 0.045468 
-0.023878 0.037420 
-0.001728 0.062139 
-0.000947 0.002343 
-0.000720 0.000561 
-0.023715 0.022362 
-0.000958 -0.000065 
-0.000791 0.000033 
0.000313 0.027993 
0.023496 0.034279 
-0.000968 -0.000195 
-0.000590 0.000094 
0.000051 0.000401 
-0.000214 0.000301 
-0.000282 -0.000035 
0.000144 0.003645 
0.022716 0.042162 
-0.000232 0.000664 
-0.000232 0.000921 
-0.001211 0.049376 
-0.000589 0.009886 
0.000112 0.000322 
0.000216 0.000859 
0.000279 0.000869 
0.001415 0.080573 
0.023120 0.044015 
0.000000 0.000000 
0.024649 0.022963 
-0.000917 0.031675 
0.000690 0.008746 
0.000000 0.000000 
-0.001337 0.048945 
0.000183 0.000391 
-0.000114 0.009946 
-0.024776 0.046167 
-0.024091 0.024642 
0.000151 0.000249 
0.000112 0.000471 
0.000000 0.000000 
-0.000369 0.000479 
-0.000185 0.000214 
-0.000815 0.006694 
0.000000 0.000000 
-0.001448 0.000885 
-0.001753 0.000874 
-0.001731 0.000726 
-0.001781 0.001176 
-0.001762 0.000975 
-0.001043 0.001296 
-0.002050 0.000976 
-0.001999 0.000934 
-0.002111 0.001023 
-0.017391 0.025943 
-0.016047 0.013425 
-0.007684 0.026898 
-0.002184 0.000981 
-0.008526 0.004025 
-0.010013 0.002863 
-0.000925 0.005063 
-0.005404 0.005024 
-0.001820 0.001743 
-0.001586 0.001338 
-0.001769 0.001218 
-0.001580 0.001235 
-0.002082 0.001108 
-0.001951 0.001175 
-0.001922 0.001249 
-0.002004 0.001071 
-0.001974 0.001136 
-0.002152 0.001049 
-0.002147 0.001154 
-0.002222 0.001091 
-0.002173 0.001067 
-0.003737 0.031987 
-0.025541 0.026210 
-0.023864 0.027489 
-0.028140 0.026896 
-0.001714 0.031593 
-0.028831 0.013172 
-0.009411 0.001881 
0.022208 0.029133 
0.012882 0.028326 
0.000683 0.037389 
0.001516 0.001946 
0.011473 0.011855 
0.005032 0.003181 
0.000435 0.034557 
-0.000242 0.028021 
-0.013678 0.027834 
-0.001577 0.001204 
-0.001415 0.001222 
-0.002074 0.000900 
-0.001809 0.001144 
-0.001383 0.001277 
-0.001593 0.001229 
-0.001677 0.001336 
-0.015725 0.011830 
-0.002803 0.001308 
-0.006791 0.001309 
0.000856 0.027786 
0.011377 0.024580 
0.003597 0.003319 
0.013280 0.012000 
-0.000754 0.002852 
0.020725 0.022942 
0.024741 0.022701 
-0.002081 0.000012 
-0.002054 0.000118 
-0.002292 0.000003 
-0.001407 0.001057 
-0.001644 0.000452 
-0.001484 0.000554 
-0.002573 0.000108 
-0.001965 0.000252 
-0.001670 0.000439 
-0.000137 0.027953 
-0.013332 0.030492 
0.021859 0.023687 
0.012753 0.025568 
0.001653 0.000832 
0.011496 0.009660 
0.004985 0.001306 
0.006141 0.002878 
0.006630 0.002086 
0.025518 0.009182 
-0.002062 -0.000109 
-0.001800 0.000032 
-0.001404 0.000060 
-0.001567 0.000054 
-0.001577 -0.000119 
-0.001538 0.000257 
-0.001411 0.000530 
-0.001160 -0.000076 
-0.001208 -0.000036 
-0.001193 -0.000102 
-0.001325 0.000035 
-0.001243 0.000021 
-0.001244 -0.000104 
-0.001302 -0.000072 
-0.001247 0.000008 
-0.001304 0.000044 
-0.015271 0.013662 
-0.023263 0.032956 
-0.001526 0.000707 
-0.002463 0.000879 
-0.008625 0.002842 
-0.006236 0.001554 
-0.001483 0.000007 
-0.001324 0.000198 
-0.001364 0.000222 
-0.001382 0.000404 
-0.001292 0.001177 
-0.001322 0.001249 
-0.001206 0.001253 
-0.001255 0.001169 
-0.001206 0.001082 
-0.001214 0.001107 
-0.001170 0.001021 
0.025263 0.030838 
0.025817 0.015534 
-0.000848 0.001483 
0.006434 0.006854 
0.003986 0.008939 
0.006824 0.004878 
-0.001160 0.001598 
-0.000892 0.000944 
-0.001022 0.000802 
-0.000891 0.000774 
-0.001141 0.000933 
-0.001100 0.000856 
-0.001119 0.000962 
-0.000979 0.000491 
-0.001060 0.000702 
-0.000981 0.000718 
-0.001078 0.001142 
-0.001007 0.000952 
-0.001113 0.000967 
-0.000977 0.040106 
0.021252 0.033743 
-0.001991 0.043421 
0.011269 0.037972 
-0.002672 0.045383 
0.013121 0.023101 
0.000160 0.011027 
-0.022961 0.068020 
-0.027082 0.062792 
-0.000644 0.069036 
-0.008958 0.017674 
-0.027814 0.041772 
-0.008370 0.020341 
-0.002549 0.055510 
-0.024148 0.056442 
-0.014959 0.049756 
-0.000894 0.000559 
-0.000702 0.000767 
-0.000871 0.001707 
-0.000972 0.000340 
-0.000816 0.000572 
-0.000926 0.000342 
-0.001002 0.003512 
-0.013770 0.032672 
-0.007345 0.015289 
-0.003997 0.013116 
-0.027238 0.035292 
-0.008957 0.004623 
-0.027851 0.019431 
-0.024159 0.037638 
-0.014825 0.040273 
-0.001083 -0.000100 
-0.001094 -0.000082 
-0.000480 0.000565 
-0.000932 -0.000120 
-0.000720 0.000007 
-0.001111 -0.000161 
-0.001088 -0.000220 
0.021770 0.052694 
0.025859 0.058407 
-0.001714 0.043524 
0.011677 0.047647 
0.004880 0.013435 
0.013819 0.030955 
0.000845 0.011202 
-0.007105 0.006719 
-0.003530 0.008953 
-0.013417 0.025190 
-0.001074 -0.000175 
-0.000968 -0.000099 
-0.000631 -0.000015 
-0.000813 -0.000069 
-0.000825 -0.000192 
-0.000785 -0.000002 
-0.000500 0.000192 
0.000037 0.000237 
-0.000090 0.000189 
-0.000118 0.000043 
0.000033 0.000826 
-0.000064 0.000369 
0.000136 0.001083 
-0.000465 -0.000106 
-0.000252 0.000125 
-0.000438 0.000053 
0.026755 0.038061 
0.022842 0.064146 
0.000018 0.002397 
0.007518 0.015707 
0.006390 0.020689 
0.008069 0.018111 
0.000180 0.005084 
-0.000393 0.000203 
-0.000110 0.000610 
-0.000291 0.000400 
-0.000467 0.000769 
-0.000472 0.000954 
-0.000627 0.001087 
-0.000491 0.000600 
-0.000017 0.000839 
-0.000213 0.000762 
0.000022 0.000731 
-0.012867 0.071265 
-0.014777 0.048173 
-0.000225 0.011962 
-0.001594 0.025837 
0.002889 0.027531 
-0.005693 0.023191 
-0.000848 0.007478 
-0.000002 0.000148 
0.000186 0.000373 
0.000055 0.000189 
0.000192 0.000656 
0.000250 0.000533 
0.000175 0.000518 
0.000411 0.003992 
0.000313 0.000942 
0.000215 0.003682 
-0.000368 0.001880 
-0.000069 0.002835 
0.000019 0.000751 
0.001162 0.079532 
0.000530 0.071600 
0.023195 0.059752 
0.013699 0.068060 
0.001136 0.076999 
0.012631 0.048315 
0.006608 0.027203 
0.000000 0.000000 
0.013431 0.009668 
-0.000960 0.010660 
0.005442 0.006621 
0.015011 0.008531 
0.000000 0.000000 
-0.000337 0.052182 
0.023031 0.028272 
0.026581 0.046218 
0.000128 0.000488 
0.000000 0.000000 
0.000536 0.012082 
0.000442 0.003307 
0.000000 0.000000 
0.000265 0.001547 
0.000488 0.003558 
0.027518 0.035581 
0.008261 0.016429 
0.008595 0.023704 
0.013513 0.068881 
0.002919 0.023325 
0.012443 0.046090 
0.000361 0.071247 
-0.013093 0.069687 
0.000124 0.000269 
0.000133 0.000400 
-0.000291 0.011096 
0.000199 0.001919 
0.000131 0.002486 
0.000194 0.001437 
0.000032 0.008362 
-0.024000 0.030900 
-0.014145 0.010829 
-0.023221 0.062739 
-0.027252 0.049564 
-0.009042 0.022245 
-0.028143 0.037907 
-0.008326 0.026100 
-0.001438 0.025631 
-0.005544 0.026889 
-0.014957 0.049454 
0.000105 0.000189 
0.000167 0.000287 
0.000091 0.000287 
0.000159 0.000294 
0.000147 0.000298 
0.000187 0.000409 
-0.000032 0.002959 
0.000000 0.000000 
-0.000348 0.000060 
-0.000253 0.000049 
-0.000762 0.000841 
-0.000541 0.000175 
0.000000 0.000000 
-0.000036 0.000308 
-0.000239 0.000185 
-0.000049 0.000257 
-0.013649 0.009136 
0.000000 0.000000 
-0.000684 0.009937 
-0.007465 0.014919 
0.000000 0.000000 
-0.004019 0.005609 
-0.000752 0.002298 
-0.000081 0.000538 
-0.000629 0.002303 
-0.000303 0.003013 

CELL_DATA 768

SCALARS epsilon float 4
LOOKUP_TABLE default
0.000148 0.000146 0.000000 -0.000356
0.000970 -0.000086 0.000000 -0.000632
-0.000174 0.000791 0.000000 -0.000262
-0.000171 -0.000086 0.000000 -0.000631
0.003760 -0.000911 0.000000 0.000020
-0.000139 0.000344 0.000000 -0.000404
0.002287 -0.000448 0.000000 -0.000680
-0.000118 -0.000952 0.000000 -0.002147
-0.000486 0.001227 0.000000 0.000253
-0.000439 0.001207 0.000000 0.000012
-0.000519 0.000716 0.000000 -0.000113
-0.000485 0.000716 0.000000 -0.000257
-0.000063 -0.000455 0.000000 -0.001335
-0.000516 0.000341 0.000000 -0.000874
-0.000436 0.000483 0.000000 -0.000547
-0.000068 0.000482 0.000000 -0.000579
0.030262 0.001151 0.000000 0.001054
-0.000725 0.013483 0.000000 0.012986
-0.007910 0.027406 0.000000 0.012714
0.000166 0.005347 0.000000 0.011207
-0.064590 -0.001022 0.000000 0.007594
-0.052440 -0.002511 0.000000 0.010568
-0.141011 -0.004346 0.000000 0.030726
-0.064314 -0.009015 0.000000 0.001216
-0.002483 -0.001804 0.000000 0.007160
-0.029573 0.003516 0.000000 0.009954
-0.029010 -0.002887 0.000000 0.011869
-0.027434 0.001018 0.000000 -0.005327
-0.132340 0.011298 0.000000 -0.005005
-0.051527 -0.007193 0.000000 -0.002320
-0.077738 0.018956 0.000000 -0.015673
-0.086531 -0.003448 0.000000 0.019942
0.000047 -0.000217 0.000000 0.000193
-0.000084 0.000149 0.000000 0.000288
-0.000081 0.000135 0.000000 0.000583
0.000047 0.000136 0.000000 0.000347
-0.000382 0.000958 0.000000 0.000364
-0.000320 0.000531 0.000000 0.000496
-0.000231 0.000561 0.000000 0.000359
-0.000231 0.000532 0.000000 0.000226
-0.000080 0.000176 0.000000 -0.000255
-0.000236 0.000306 0.000000 0.000517
-0.000234 0.000279 0.000000 0.000382
-0.000237 0.000173 0.000000 0.000328
-0.000084 0.000349 0.000000 0.000325
-0.000182 0.000279 0.000000 0.000438
-0.000081 0.000306 0.000000 0.000605
-0.000182 0.000348 0.000000 0.000575
-0.000223 -0.002287 0.000000 -0.002695
0.000121 -0.003318 0.000000 -0.000552
-0.000657 -0.000170 0.000000 -0.000921
-0.000300 -0.000150 0.000000 0.000801
-0.000082 -0.001146 0.000000 -0.000758
-0.000235 -0.000329 0.000000 0.000071
0.000302 -0.002780 0.000000 -0.000642
0.000303 -0.000329 0.000000 -0.000156
-0.000383 0.000680 0.000000 0.000031
-0.000495 0.000394 0.000000 -0.000261
-0.000320 0.000279 0.000000 0.000175
-0.000496 0.000680 0.000000 0.000288
0.000115 -0.000508 0.000000 0.000398
-0.000393 0.000279 0.000000 0.000297
-0.000663 0.000395 0.000000 0.000112
-0.000393 -0.000510 0.000000 -0.000204
0.102922 -0.036960 0.000000 0.029315
0.164939 -0.007660 0.000000 0.021685
0.006004 0.013778 0.000000 0.017815
0.107838 0.005908 0.000000 -0.005511
0.169598 0.011143 0.000000 0.025200
0.009025 0.007696 0.000000 0.076545
0.189490 0.004962 0.000000 0.022034
0.189114 0.004157 0.000000 0.032255
-0.059695 -0.007889 0.000000 0.006747
-0.158201 0.004444 0.000000 0.023046
-0.138349 -0.003190 0.000000 0.057339
-0.161957 -0.003565 0.000000 0.043086
0.165944 0.006659 0.000000 0.009781
0.002898 -0.002278 0.000000 0.068698
0.000692 0.005008 0.000000 0.036231
0.007979 0.013596 0.000000 0.044256
-0.192200 0.014560 0.000000 0.032556
-0.002885 0.005106 0.000000 0.100633
-0.102192 0.013751 0.000000 0.034698
-0.104785 0.003687 0.000000 0.076884
0.050232 0.009556 0.000000 0.019929
0.073689 -0.002477 0.000000 0.090110
0.121721 0.007128 0.000000 0.075206
0.074797 0.010436 0.000000 0.052072
0.106265 0.013523 0.000000 0.029620
0.008522 0.013821 0.000000 0.033472
0.007439 -0.003886 0.000000 0.118890
0.106144 -0.002528 0.000000 0.074889
0.003866 0.008262 0.000000 0.105775
0.007395 -0.002804 0.000000 0.119847
0.007482 -0.002219 0.000000 0.084162
0.002982 -0.002623 0.000000 0.117629
0.000159 -0.000107 0.000000 0.000304
0.000027 0.000236 0.000000 0.000687
0.000157 0.000023 0.000000 0.000665
0.000027 -0.000107 0.000000 0.000535
-0.000561 0.000498 0.000000 -0.000332
-0.000799 0.001586 0.000000 0.000477
-0.000236 0.000587 0.000000 0.000658
-0.000559 0.000590 0.000000 0.000097
-0.000237 0.001480 0.000000 0.002036
0.000101 0.000387 0.000000 0.001121
-0.000677 0.001899 0.000000 0.001356
-0.000677 0.000386 0.000000 0.001269
-0.000236 0.000236 0.000000 0.000690
-0.000799 0.000678 0.000000 0.000683
-0.000129 0.000023 0.000000 0.000824
-0.000128 0.000677 0.000000 0.000965
0.169345 0.000437 0.000000 0.055604
0.008346 -0.008193 0.000000 0.117292
0.006235 -0.007484 0.000000 0.098615
0.009220 0.000522 0.000000 0.103926
0.025214 0.001484 0.000000 0.003467
-0.007178 0.001899 0.000000 0.001771
0.002385 0.005572 0.000000 0.057748
0.025621 0.004936 0.000000 0.019271
-0.059671 0.000529 0.000000 0.004526
-0.137952 -0.001823 0.000000 0.053754
-0.038451 0.001587 0.000000 0.002317
-0.038279 -0.004650 0.000000 0.012529
0.001677 -0.008116 0.000000 0.094598
-0.006714 -0.000060 0.000000 0.016906
-0.077479 -0.008305 0.000000 0.083831
-0.076293 0.001228 0.000000 0.058992
0.046290 -0.034408 0.000000 -0.031787
0.026303 -0.009030 0.000000 -0.018801
0.114059 -0.006197 0.000000 -0.026515
0.121130 -0.019963 0.000000 0.007502
-0.015626 0.004848 0.000000 0.005927
-0.071790 -0.005181 0.000000 0.004423
-0.014791 0.002168 0.000000 0.003167
-0.077152 0.009133 0.000000 -0.015504
0.190506 0.013085 0.000000 -0.030079
0.172093 0.006739 0.000000 -0.027265
0.016775 0.006236 0.000000 -0.034748
0.192107 0.001683 0.000000 -0.021271
0.027356 0.004857 0.000000 -0.008101
0.022999 -0.001236 0.000000 -0.015303
0.177571 -0.007600 0.000000 -0.000330
0.025332 -0.000739 0.000000 -0.014132
0.000173 0.000071 0.000000 0.000832
-0.000209 0.000696 0.000000 0.000774
0.000774 0.000347 0.000000 0.001047
-0.000211 0.000072 0.000000 0.000420
-0.000614 -0.000649 0.000000 -0.002243
-0.001771 0.001366 0.000000 -0.001675
-0.000882 0.000820 0.000000 -0.000346
-0.000606 0.000829 0.000000 -0.001369
0.002413 0.004318 0.000000 0.005640
0.001493 0.001149 0.000000 0.002294
-0.002361 0.003578 0.000000 0.000243
-0.002347 0.001156 0.000000 0.001690
-0.000878 0.000700 0.000000 0.000212
-0.001759 0.001612 0.000000 -0.000451
-0.000707 0.000348 0.000000 0.000801
-0.000707 0.001600 0.000000 0.000750
-0.118613 0.011440 0.000000 -0.029945
-0.008043 0.012493 0.000000 -0.032820
-0.023378 0.015053 0.000000 -0.118793
-0.117766 0.015537 0.000000 -0.085987
0.163677 0.015126 0.000000 -0.032600
-0.008260 0.013315 0.000000 -0.094648
0.093948 0.014349 0.000000 -0.033717
0.091209 0.012322 0.000000 -0.068319
-0.052606 -0.003871 0.000000 -0.015380
-0.083159 0.007765 0.000000 -0.093116
-0.142418 0.002633 0.000000 -0.075989
-0.083435 -0.002881 0.000000 -0.049645
-0.009330 0.014349 0.000000 -0.083823
-0.017117 0.003799 0.000000 -0.103917
-0.023452 0.007715 0.000000 -0.120454
-0.017838 0.013979 0.000000 -0.114488
-0.042737 0.004849 0.000000 -0.006429
-0.062297 0.003750 0.000000 -0.006851
-0.136431 0.000203 0.000000 -0.017500
-0.042300 -0.002756 0.000000 -0.000914
-0.052931 -0.000653 0.000000 -0.001563
-0.142011 -0.004685 0.000000 -0.037552
-0.066355 0.001399 0.000000 -0.004026
-0.066372 -0.006340 0.000000 -0.011153
0.161989 0.008369 0.000000 -0.045724
0.009240 -0.000509 0.000000 -0.042054
-0.005613 0.001323 0.000000 -0.074989
0.003993 0.011110 0.000000 -0.065110
-0.062257 -0.006140 0.000000 -0.005899
-0.163509 -0.001868 0.000000 -0.046142
-0.135948 -0.004982 0.000000 -0.014891
-0.161890 -0.003826 0.000000 -0.025356
0.000156 -0.000869 0.000000 0.000352
-0.000023 -0.000222 0.000000 0.000356
-0.000357 0.000168 0.000000 0.000434
0.000157 0.000166 0.000000 0.000641
-0.000050 0.000240 0.000000 0.000073
-0.000017 0.000051 0.000000 -0.000121
-0.000079 0.000152 0.000000 0.000218
-0.000081 0.000051 0.000000 -0.000037
0.000436 -0.000179 0.000000 -0.001486
-0.000431 0.000423 0.000000 -0.000322
0.000078 -0.000026 0.000000 -0.000560
-0.000435 -0.000183 0.000000 -0.000895
-0.000024 0.000175 0.000000 0.000257
-0.000223 -0.000027 0.000000 -0.000263
-0.000359 0.000420 0.000000 0.000176
-0.000220 0.000176 0.000000 0.000122
0.000118 -0.000296 0.000000 -0.000062
0.000215 -0.000323 0.000000 0.000090
0.000121 -0.000206 0.000000 -0.000088
0.000121 -0.000323 0.000000 -0.000073
0.000679 -0.001119 0.000000 0.000753
0.000656 -0.000734 0.000000 0.000091
0.000457 -0.000573 0.000000 0.000441
0.000656 -0.001119 0.000000 0.000267
0.000017 0.000139 0.000000 -0.000028
0.000083 -0.000040 0.000000 -0.000080
0.000266 -0.000281 0.000000 -0.000190
0.000017 -0.000281 0.000000 -0.000234
0.000283 -0.000573 0.000000 -0.000001
0.000265 -0.000734 0.000000 -0.000267
0.000083 -0.000355 0.000000 -0.000182
0.000283 -0.000355 0.000000 -0.000069
-0.202034 0.016667 0.000000 -0.069840
-0.024220 0.013614 0.000000 -0.119955
-0.019022 0.020914 0.000000 -0.102844
-0.023146 0.017990 0.000000 -0.106321
-0.025756 -0.002142 0.000000 -0.000750
0.007326 -0.002869 0.000000 -0.002199
-0.005964 0.001141 0.000000 -0.058201
-0.025219 0.000347 0.000000 -0.017388
0.056703 -0.001450 0.000000 -0.011613
0.119107 0.013000 0.000000 -0.061716
0.037307 -0.002659 0.000000 -0.005965
0.037242 0.010091 0.000000 -0.015326
-0.006946 0.013373 0.000000 -0.094218
0.007644 0.005268 0.000000 -0.017094
0.065414 0.019400 0.000000 -0.082537
0.067374 0.006729 0.000000 -0.062045
-0.000051 -0.000127 0.000000 -0.000196
0.000159 -0.000687 0.000000 -0.000447
-0.000019 -0.000434 0.000000 -0.000464
0.000159 -0.000127 0.000000 -0.000221
0.001262 -0.001746 0.000000 0.000731
0.001438 -0.002735 0.000000 -0.000265
0.000667 -0.001491 0.000000 -0.000283
0.001262 -0.001492 0.000000 0.000270
0.000432 -0.002138 0.000000 -0.002028
0.000076 -0.001005 0.000000 -0.000997
0.001152 -0.002875 0.000000 -0.001285
0.001153 -0.001004 0.000000 -0.001099
0.000667 -0.000687 0.000000 -0.000264
0.001437 -0.001463 0.000000 -0.000434
0.000468 -0.000434 0.000000 -0.000515
0.000467 -0.001462 0.000000 -0.000752
0.000158 -0.000494 0.000000 0.000095
0.000156 -0.000353 0.000000 0.000433
0.000241 -0.000652 0.000000 0.000006
0.000242 -0.000353 0.000000 0.000207
-0.000237 -0.000195 0.000000 0.001687
0.000399 -0.000662 0.000000 0.000706
0.000101 -0.000304 0.000000 0.000843
0.000399 -0.000195 0.000000 0.001046
0.000283 -0.000577 0.000000 -0.000104
0.000286 -0.000678 0.000000 -0.000064
0.000405 -0.000690 0.000000 0.000091
0.000283 -0.000689 0.000000 -0.000071
0.000293 -0.000303 0.000000 0.000527
0.000405 -0.000661 0.000000 0.000285
0.000286 -0.000561 0.000000 0.000074
0.000293 -0.000562 0.000000 0.000279
-0.194390 0.015490 0.000000 0.050541
-0.001113 0.036821 0.000000 0.046926
0.000240 0.022564 0.000000 0.078974
-0.007113 0.017982 0.000000 0.072664
0.037917 0.001585 0.000000 0.029873
0.057383 0.000112 0.000000 0.021534
0.123250 0.021696 0.000000 0.038143
0.039203 0.019233 0.000000 0.019866
0.050208 0.000667 0.000000 0.007577
0.123881 0.014908 0.000000 0.045177
0.061801 -0.000003 0.000000 0.013817
0.061580 0.013432 0.000000 0.019632
0.123791 0.032215 0.000000 0.035155
0.057546 0.016582 0.000000 0.019287
0.138652 0.019063 0.000000 0.055312
0.140826 0.018566 0.000000 0.039872
0.000008 0.000089 0.000000 0.000084
0.000072 0.000019 0.000000 -0.000002
0.000154 -0.000222 0.000000 -0.000256
0.000007 -0.000222 0.000000 -0.000156
0.000235 -0.000385 0.000000 -0.000107
0.000427 -0.000613 0.000000 -0.000244
0.000157 -0.000162 0.000000 -0.000070
0.000156 -0.000613 0.000000 -0.000260
0.001253 -0.001793 0.000000 0.003049
0.000648 -0.000763 0.000000 -0.000616
0.000851 -0.001028 0.000000 -0.000344
0.000647 -0.001810 0.000000 -0.000838
0.000071 -0.000432 0.000000 -0.000249
0.000317 -0.001027 0.000000 -0.000507
0.000153 -0.000763 0.000000 -0.000554
0.000318 -0.000432 0.000000 -0.000305
0.000365 0.000611 0.000000 0.002390
0.000928 -0.000268 0.000000 0.002483
0.000678 -0.000894 0.000000 0.000729