# vtk DataFile Version 2.0
Unstructured Grid Example
ASCII
DATASET UNSTRUCTURED_GRID

POINTS 12 float
-0.956139 -0.009301 0.000000 
0.078822 0.020442 0.000000 
1.118330 0.058561 0.000000 
-1.081707 0.953854 0.000000 
-0.083367 1.023114 0.000000 
0.911201 1.054972 0.000000 
-1.122421 1.996221 0.000000 
-0.114539 2.049801 0.000000 
0.898910 2.007777 0.000000 
-1.000000 3.000000 0.000000 
0.000000 3.000000 0.000000 
1.000000 3.000000 0.000000 

CELLS 12 48
3  0 1 3 
3  1 4 3 
3  1 2 4 
3  2 5 4 
3  3 4 6 
3  4 7 6 
3  4 5 7 
3  5 8 7 
3  6 7 9 
3  7 10 9 
3  7 8 10 
3  8 11 10 

CELL_TYPES 12
5
5
5
5
5
5
5
5
5
5
5
5

POINT_DATA 12

SCALARS u_h float 2
LOOKUP_TABLE default
0.043861 -0.009301 
0.078822 0.020442 
0.118330 0.058561 
-0.081707 -0.046146 
-0.083367 0.023114 
-0.088799 0.054972 
-0.122421 -0.003779 
-0.114539 0.049801 
-0.101090 0.007777 
0.000000 0.000000 
0.000000 0.000000 
0.000000 0.000000 

CELL_DATA 12

SCALARS epsilon float 4
LOOKUP_TABLE default
0.045961 -0.033346 0.000000 -0.045172
0.022334 0.016168 0.000000 -0.046679
0.056598 0.009244 0.000000 -0.059034
0.022745 0.003551 0.000000 -0.088143
0.001806 0.046375 0.000000 0.012870
0.009915 0.029279 0.000000 0.010639
-0.004009 0.027788 0.000000 -0.000145
0.012905 -0.047892 0.000000 -0.028098
0.008763 -0.001312 0.000000 0.087421
0.007265 -0.051038 0.000000 0.057112
0.025347 -0.045121 0.000000 0.034278
0.005190 -0.007807 0.000000 0.050542

SCALARS sigma float 4
LOOKUP_TABLE default
0.304946 -0.247098 0.017354 -0.368348
0.206483 0.239406 0.133767 -0.353095
0.637292 0.367040 0.301300 -0.455132
0.033529 0.047736 0.024380 -0.675742
0.263503 0.588070 0.255472 0.105223
0.285806 0.425376 0.213354 0.083154
0.095054 0.336776 0.129549 0.002580
-0.117468 -0.600832 -0.215490 -0.216459
0.002318 -0.029077 -0.008028 0.673472
-0.302373 -0.705537 -0.302373 0.463626
-0.027465 -0.530200 -0.167299 0.288188
-0.045220 -0.105514 -0.045220 0.391856

