# vtk DataFile Version 2.0
Unstructured Grid Example
ASCII
DATASET UNSTRUCTURED_GRID

POINTS 117 float
-0.996407 0.000487 0.000000 
-0.005231 0.039525 0.000000 
1.000070 0.002333 0.000000 
-1.000019 1.001552 0.000000 
0.003962 1.043393 0.000000 
1.001572 1.002707 0.000000 
-1.000374 2.001284 0.000000 
0.002143 2.077097 0.000000 
1.001977 2.002497 0.000000 
-1.000000 3.000000 0.000000 
0.000000 3.000000 0.000000 
1.000000 3.000000 0.000000 
-0.495785 0.004489 0.000000 
-0.499463 0.502043 0.000000 
-0.999657 0.501062 0.000000 
0.004305 0.539126 0.000000 
-0.500232 1.003123 0.000000 
0.500379 0.003125 0.000000 
0.501564 0.504586 0.000000 
1.002054 0.502756 0.000000 
0.501604 1.001674 0.000000 
-0.500066 1.502406 0.000000 
-1.000621 1.501402 0.000000 
-0.004751 1.546797 0.000000 
-0.500850 2.004745 0.000000 
0.502314 1.504504 0.000000 
1.001384 1.502676 0.000000 
0.501666 2.009842 0.000000 
-0.499365 2.514129 0.000000 
-0.998942 2.501208 0.000000 
0.001531 2.570217 0.000000 
-0.500000 3.000000 0.000000 
0.499613 2.510956 0.000000 
1.001229 2.501975 0.000000 
0.500000 3.000000 0.000000 
-0.746301 0.002081 0.000000 
-0.748701 0.251931 0.000000 
-0.998528 0.250593 0.000000 
-0.270540 0.268076 0.000000 
-0.498804 0.253587 0.000000 
-0.252458 0.016078 0.000000 
-0.999952 0.751421 0.000000 
-0.749771 0.501891 0.000000 
-0.749949 0.751855 0.000000 
-0.000555 0.283890 0.000000 
-0.272216 0.515414 0.000000 
-0.228910 1.011847 0.000000 
-0.251734 0.761542 0.000000 
0.006840 0.793611 0.000000 
-0.500060 0.752242 0.000000 
-0.750015 1.001983 0.000000 
0.261604 0.018878 0.000000 
0.275718 0.263930 0.000000 
0.751586 0.253449 0.000000 
0.501944 0.254905 0.000000 
0.750002 0.003243 0.000000 
0.272679 0.510230 0.000000 
0.249465 0.763163 0.000000 
1.001507 0.252560 0.000000 
0.752009 0.503259 0.000000 
0.751571 1.002416 0.000000 
0.751875 0.752761 0.000000 
1.001947 0.752772 0.000000 
0.501348 0.752905 0.000000 
0.228772 1.020749 0.000000 
-0.750215 1.251938 0.000000 
-1.000269 1.251526 0.000000 
-0.226774 1.268971 0.000000 
-0.500078 1.253227 0.000000 
-1.000733 1.751291 0.000000 
-0.750503 1.501530 0.000000 
-0.750624 1.750995 0.000000 
-0.001695 1.292076 0.000000 
-0.247756 1.530260 0.000000 
-0.273766 2.046393 0.000000 
-0.271158 1.790506 0.000000 
-0.002557 1.810443 0.000000 
-0.500434 1.752250 0.000000 
-0.750352 2.000744 0.000000 
0.231166 1.277992 0.000000 
0.751384 1.252489 0.000000 
0.502069 1.252238 0.000000 
0.254124 1.532019 0.000000 
0.274394 1.784742 0.000000 
1.001321 1.252674 0.000000 
0.751421 1.502810 0.000000 
0.751848 2.002752 0.000000 
0.751609 1.752988 0.000000 
1.001685 1.752625 0.000000 
0.502149 1.757353 0.000000 
0.271089 2.039888 0.000000 
-0.749677 2.251010 0.000000 
-0.999625 2.251332 0.000000 
-0.252869 2.297291 0.000000 
-0.500601 2.259968 0.000000 
-0.999086 2.750698 0.000000 
-0.748938 2.501613 0.000000 
-0.748878 2.751649 0.000000 
0.004148 2.334362 0.000000 
-0.228747 2.540995 0.000000 
-0.250000 3.000000 0.000000 
-0.224808 2.771635 0.000000 
-0.001918 2.782267 0.000000 
-0.498135 2.760329 0.000000 
-0.750000 3.000000 0.000000 
0.246538 2.296548 0.000000 
0.751873 2.252272 0.000000 
0.500909 2.261486 0.000000 
0.224284 2.545414 0.000000 
0.226576 2.774871 0.000000 
1.001934 2.252344 0.000000 
0.751072 2.501798 0.000000 
0.750000 3.000000 0.000000 
0.749056 2.750910 0.000000 
0.999717 2.750877 0.000000 
0.497901 2.755565 0.000000 
0.250000 3.000000 0.000000 

CELLS 192 768
3  0 35 37 
3  12 36 35 
3  14 37 36 
3  35 36 37 
3  1 38 40 
3  13 39 38 
3  12 40 39 
3  38 39 40 
3  3 41 43 
3  14 42 41 
3  13 43 42 
3  41 42 43 
3  12 39 36 
3  13 42 39 
3  14 36 42 
3  39 42 36 
3  1 44 38 
3  15 45 44 
3  13 38 45 
3  44 45 38 
3  4 46 48 
3  16 47 46 
3  15 48 47 
3  46 47 48 
3  3 43 50 
3  13 49 43 
3  16 50 49 
3  43 49 50 
3  15 47 45 
3  16 49 47 
3  13 45 49 
3  47 49 45 
3  1 51 44 
3  17 52 51 
3  15 44 52 
3  51 52 44 
3  2 53 55 
3  18 54 53 
3  17 55 54 
3  53 54 55 
3  4 48 57 
3  15 56 48 
3  18 57 56 
3  48 56 57 
3  17 54 52 
3  18 56 54 
3  15 52 56 
3  54 56 52 
3  2 58 53 
3  19 59 58 
3  18 53 59 
3  58 59 53 
3  5 60 62 
3  20 61 60 
3  19 62 61 
3  60 61 62 
3  4 57 64 
3  18 63 57 
3  20 64 63 
3  57 63 64 
3  19 61 59 
3  20 63 61 
3  18 59 63 
3  61 63 59 
3  3 50 66 
3  16 65 50 
3  22 66 65 
3  50 65 66 
3  4 67 46 
3  21 68 67 
3  16 46 68 
3  67 68 46 
3  6 69 71 
3  22 70 69 
3  21 71 70 
3  69 70 71 
3  16 68 65 
3  21 70 68 
3  22 65 70 
3  68 70 65 
3  4 72 67 
3  23 73 72 
3  21 67 73 
3  72 73 67 
3  7 74 76 
3  24 75 74 
3  23 76 75 
3  74 75 76 
3  6 71 78 
3  21 77 71 
3  24 78 77 
3  71 77 78 
3  23 75 73 
3  24 77 75 
3  21 73 77 
3  75 77 73 
3  4 64 72 
3  20 79 64 
3  23 72 79 
3  64 79 72 
3  5 80 60 
3  25 81 80 
3  20 60 81 
3  80 81 60 
3  7 76 83 
3  23 82 76 
3  25 83 82 
3  76 82 83 
3  20 81 79 
3  25 82 81 
3  23 79 82 
3  81 82 79 
3  5 84 80 
3  26 85 84 
3  25 80 85 
3  84 85 80 
3  8 86 88 
3  27 87 86 
3  26 88 87 
3  86 87 88 
3  7 83 90 
3  25 89 83 
3  27 90 89 
3  83 89 90 
3  26 87 85 
3  27 89 87 
3  25 85 89 
3  87 89 85 
3  6 78 92 
3  24 91 78 
3  29 92 91 
3  78 91 92 
3  7 93 74 
3  28 94 93 
3  24 74 94 
3  93 94 74 
3  9 95 97 
3  29 96 95 
3  28 97 96 
3  95 96 97 
3  24 94 91 
3  28 96 94 
3  29 91 96 
3  94 96 91 
3  7 98 93 
3  30 99 98 
3  28 93 99 
3  98 99 93 
3  10 100 102 
3  31 101 100 
3  30 102 101 
3  100 101 102 
3  9 97 104 
3  28 103 97 
3  31 104 103 
3  97 103 104 
3  30 101 99 
3  31 103 101 
3  28 99 103 
3  101 103 99 
3  7 90 98 
3  27 105 90 
3  30 98 105 
3  90 105 98 
3  8 106 86 
3  32 107 106 
3  27 86 107 
3  106 107 86 
3  10 102 109 
3  30 108 102 
3  32 109 108 
3  102 108 109 
3  27 107 105 
3  32 108 107 
3  30 105 108 
3  107 108 105 
3  8 110 106 
3  33 111 110 
3  32 106 111 
3  110 111 106 
3  11 112 114 
3  34 113 112 
3  33 114 113 
3  112 113 114 
3  10 109 116 
3  32 115 109 
3  34 116 115 
3  109 115 116 
3  33 113 111 
3  34 115 113 
3  32 111 115 
3  113 115 111 

CELL_TYPES 192
5
5
5
5
5
5
5
5
5
5
5
5
5
5
5
5
5
5
5
5
5
5
5
5
5
5
5
5
5
5
5
5
5
5
5
5
5
5
5
5
5
5
5
5
5
5
5
5
5
5
5
5
5
5
5
5
5
5
5
5
5
5
5
5
5
5
5
5
5
5
5
5
5
5
5
5
5
5
5
5
5
5
5
5
5
5
5
5
5
5
5
5
5
5
5
5
5
5
5
5
5
5
5
5
5
5
5
5
5
5
5
5
5
5
5
5
5
5
5
5
5
5
5
5
5
5
5
5
5
5
5
5
5
5
5
5
5
5
5
5
5
5
5
5
5
5
5
5
5
5
5
5
5
5
5
5
5
5
5
5
5
5
5
5
5
5
5
5
5
5
5
5
5
5
5
5
5
5
5
5
5
5
5
5
5
5
5
5
5
5
5
5

POINT_DATA 117

SCALARS u_h float 2
LOOKUP_TABLE default
0.003593 0.000487 
-0.005231 0.039525 
0.000070 0.002333 
-0.000019 0.001552 
0.003962 0.043393 
0.001572 0.002707 
-0.000374 0.001284 
0.002143 0.077097 
0.001977 0.002497 
0.000000 0.000000 
0.000000 0.000000 
0.000000 0.000000 
0.004215 0.004489 
0.000537 0.002043 
0.000343 0.001062 
0.004305 0.039126 
-0.000232 0.003123 
0.000379 0.003125 
0.001564 0.004586 
0.002054 0.002756 
0.001604 0.001674 
-0.000066 0.002406 
-0.000621 0.001402 
-0.004751 0.046797 
-0.000850 0.004745 
0.002314 0.004504 
0.001384 0.002676 
0.001666 0.009842 
0.000635 0.014129 
0.001058 0.001208 
0.001531 0.070217 
0.000000 0.000000 
-0.000387 0.010956 
0.001229 0.001975 
0.000000 0.000000 
0.003699 0.002081 
0.001299 0.001931 
0.001472 0.000593 
-0.020540 0.018076 
0.001196 0.003587 
-0.002458 0.016078 
0.000048 0.001421 
0.000229 0.001891 
0.000051 0.001855 
-0.000555 0.033890 
-0.022216 0.015414 
0.021090 0.011847 
-0.001734 0.011542 
0.006840 0.043611 
-0.000060 0.002242 
-0.000015 0.001983 
0.011604 0.018878 
0.025718 0.013930 
0.001586 0.003449 
0.001944 0.004905 
0.000002 0.003243 
0.022679 0.010230 
-0.000535 0.013163 
0.001507 0.002560 
0.002009 0.003259 
0.001571 0.002416 
0.001875 0.002761 
0.001947 0.002772 
0.001348 0.002905 
-0.021228 0.020749 
-0.000215 0.001938 
-0.000269 0.001526 
0.023226 0.018971 
-0.000078 0.003227 
-0.000733 0.001291 
-0.000503 0.001530 
-0.000624 0.000995 
-0.001695 0.042076 
0.002244 0.030260 
-0.023766 0.046393 
-0.021158 0.040506 
-0.002557 0.060443 
-0.000434 0.002250 
-0.000352 0.000744 
-0.018834 0.027992 
0.001384 0.002489 
0.002069 0.002238 
0.004124 0.032019 
0.024394 0.034742 
0.001321 0.002674 
0.001421 0.002810 
0.001848 0.002752 
0.001609 0.002988 
0.001685 0.002625 
0.002149 0.007353 
0.021089 0.039888 
0.000323 0.001010 
0.000375 0.001332 
-0.002869 0.047291 
-0.000601 0.009968 
0.000914 0.000698 
0.001062 0.001613 
0.001122 0.001649 
0.004148 0.084362 
0.021253 0.040995 
0.000000 0.000000 
0.025192 0.021635 
-0.001918 0.032267 
0.001865 0.010329 
0.000000 0.000000 
-0.003462 0.046548 
0.001873 0.002272 
0.000909 0.011486 
-0.025716 0.045414 
-0.023424 0.024871 
0.001934 0.002344 
0.001072 0.001798 
0.000000 0.000000 
-0.000944 0.000910 
-0.000283 0.000877 
-0.002099 0.005565 
0.000000 0.000000 

CELL_DATA 192

SCALARS epsilon float 4
LOOKUP_TABLE default
0.000512 0.000496 0.000000 -0.001054
0.002201 -0.000461 0.000000 0.000028
-0.000660 0.001911 0.000000 0.000412
-0.000597 -0.000534 0.000000 -0.002125
-0.001776 0.019111 0.000000 0.009958
-0.090518 -0.003985 0.000000 0.027454
-0.026392 -0.001898 0.000000 0.017040
-0.083123 0.014472 0.000000 -0.011087
0.000014 0.000525 0.000000 0.000733
-0.000455 0.001447 0.000000 0.001065
0.001233 -0.000143 0.000000 -0.000050
0.000015 -0.000141 0.000000 0.000513
-0.000259 -0.003514 0.000000 -0.002719
0.001237 -0.006191 0.000000 -0.001010
-0.000436 -0.000141 0.000000 -0.000482
-0.000375 -0.000111 0.000000 0.001170
0.075804 -0.022113 0.000000 0.040839
0.099039 0.022629 0.000000 0.054823
-0.094688 -0.008541 0.000000 0.023075
0.077176 -0.008559 0.000000 0.028689
-0.069218 0.009849 0.000000 0.056640
0.082304 -0.001195 0.000000 0.059388
0.032523 0.023982 0.000000 0.067844
0.026322 -0.002302 0.000000 0.108159
0.000019 0.000514 0.000000 0.000730
-0.000437 0.000798 0.000000 -0.000421
-0.000865 0.003533 0.000000 0.001927
-0.000443 0.000514 0.000000 0.000640
0.096281 -0.018920 0.000000 0.084800
-0.006695 0.004242 0.000000 0.018187
-0.094968 0.002662 0.000000 0.025141
-0.006311 -0.018002 0.000000 0.060115
0.066715 -0.018189 0.000000 -0.033314
-0.040315 -0.013946 0.000000 -0.002533
0.101133 0.024595 0.000000 -0.029945
0.105083 -0.013140 0.000000 -0.014790
0.000315 0.000854 0.000000 0.001349
-0.001441 -0.001267 0.000000 -0.003677
-0.001493 0.007090 0.000000 0.003367
-0.001376 0.000878 0.000000 0.000263
-0.031309 0.005591 0.000000 -0.066817
0.071917 0.024431 0.000000 -0.051778
-0.085198 0.009695 0.000000 -0.061764
-0.036927 0.007951 0.000000 -0.107920
-0.099300 0.008125 0.000000 -0.014268
-0.088035 -0.001008 0.000000 -0.012038
0.069550 -0.010251 0.000000 -0.064055
-0.099963 -0.014581 0.000000 -0.024833
-0.000282 0.000933 0.000000 0.001097
0.000184 0.000793 0.000000 0.000090
0.001792 -0.000737 0.000000 -0.001812
-0.000311 -0.000748 0.000000 -0.000933
0.000008 -0.000258 0.000000 -0.000168
-0.000128 -0.001371 0.000000 0.000881
0.000289 0.000062 0.000000 -0.000192
0.000290 -0.001379 0.000000 -0.000585
-0.109733 0.026622 0.000000 -0.089312
0.007468 -0.005940 0.000000 -0.021081
0.087261 -0.002399 0.000000 -0.037602
0.007426 0.027397 0.000000 -0.060961
0.000177 -0.001993 0.000000 -0.001277
0.002104 -0.004938 0.000000 0.000221
0.001777 -0.006736 0.000000 -0.003102
0.002103 -0.001994 0.000000 -0.000559
0.000021 -0.000100 0.000000 0.000363
-0.000864 -0.000166 0.000000 0.001878
0.000218 -0.000495 0.000000 0.000122
0.000216 -0.000177 0.000000 0.000423
-0.071925 0.035659 0.000000 0.065583
0.088902 -0.001625 0.000000 0.031385
0.081653 0.000914 0.000000 0.017617
0.088458 0.029183 0.000000 0.034301
0.000439 -0.000023 0.000000 0.000126
0.000471 -0.000444 0.000000 0.000031
0.001749 -0.002134 0.000000 0.001513
0.000436 -0.002142 0.000000 -0.000835
0.000546 0.000427 0.000000 0.002884
0.001747 -0.003286 0.000000 0.001782
0.000472 -0.001633 0.000000 -0.000317
0.000556 -0.001615 0.000000 0.002008
-0.101972 0.002353 0.000000 0.033343
-0.027482 0.021748 0.000000 0.026150
0.021132 0.058425 0.000000 0.011816
-0.092565 0.057073 0.000000 -0.002733
0.096497 0.067911 0.000000 0.065570
-0.093912 0.041131 0.000000 0.074843
0.071064 0.054964 0.000000 0.041707
0.072447 0.026652 0.000000 0.033914
0.000094 -0.000999 0.000000 -0.000536
0.000768 -0.000603 0.000000 0.001775
-0.001967 0.010085 0.000000 0.007091
0.000755 -0.000997 0.000000 0.003057
-0.018049 0.048345 0.000000 -0.016297
-0.086027 0.023846 0.000000 0.074235
0.009361 0.005639 0.000000 0.055009
-0.066844 0.067474 0.000000 0.022207
-0.107718 -0.002423 0.000000 -0.057511
0.087871 0.031507 0.000000 -0.032429
-0.071530 0.019744 0.000000 -0.034053
-0.070281 0.030840 0.000000 -0.022092
0.000006 0.000290 0.000000 0.000206
-0.002743 0.009022 0.000000 0.000988
-0.000136 0.002253 0.000000 0.002411
-0.002741 0.000290 0.000000 0.000126
0.103791 0.069804 0.000000 -0.039271
0.035380 0.055037 0.000000 -0.023765
0.004789 0.025592 0.000000 -0.013618
0.111969 0.022399 0.000000 -0.013717
0.080312 0.006927 0.000000 -0.050228
-0.007161 0.015164 0.000000 -0.054040
0.043781 0.022685 0.000000 0.015281
0.092054 0.028833 0.000000 -0.007977
-0.000250 -0.000128 0.000000 -0.000131
-0.000148 0.000007 0.000000 -0.000142
-0.003576 0.001308 0.000000 -0.003310
-0.000251 0.001284 0.000000 0.000445
0.000518 -0.000508 0.000000 0.000075
0.000757 -0.000513 0.000000 -0.013716
0.000305 -0.000203 0.000000 -0.000124
0.000305 -0.000940 0.000000 -0.000248
0.071214 0.027800 0.000000 -0.078713
-0.092978 0.018323 0.000000 -0.054006
-0.080935 0.017987 0.000000 -0.060122
-0.094343 0.025778 0.000000 -0.060396
-0.000148 0.000712 0.000000 0.000109
-0.002193 0.010025 0.000000 -0.009612
-0.003581 0.011350 0.000000 -0.003680
-0.002148 0.000877 0.000000 -0.008347
0.000102 0.000199 0.000000 0.000418
-0.002034 0.001146 0.000000 0.009345
-0.000201 -0.000491 0.000000 0.000722
-0.000201 0.001065 0.000000 0.000705
0.091979 0.000535 0.000000 0.098610
-0.009832 0.026769 0.000000 0.075910
-0.096000 0.036637 0.000000 0.081304
-0.018113 0.002512 0.000000 0.116516
0.000852 -0.002774 0.000000 0.000080
0.000016 -0.002040 0.000000 0.000524
-0.001721 0.001389 0.000000 0.025150
0.000830 0.000150 0.000000 0.002022
-0.003737 0.021258 0.000000 0.018049
-0.001941 0.017479 0.000000 0.027099
0.000015 0.002406 0.000000 0.002286
-0.003804 0.002947 0.000000 0.019357
0.026580 0.037361 0.000000 0.075897
-0.080506 -0.047752 0.000000 0.055849
0.073530 -0.030077 0.000000 0.099381
0.018071 -0.028598 0.000000 0.122894
0.000039 -0.137216 0.000000 0.003751
0.006085 -0.090252 0.000000 -0.049932
-0.113301 -0.160622 0.000000 0.017212
-0.101482 -0.083699 0.000000 -0.033097
0.000010 -0.006616 0.000000 -0.002244
0.002805 -0.014869 0.000000 0.020081
0.000030 -0.042170 0.000000 -0.003722
0.003132 -0.005853 0.000000 0.015239
-0.083956 -0.073067 0.000000 0.071349
0.089333 -0.040919 0.000000 0.020009
0.078608 -0.010724 0.000000 0.056518
0.088408 -0.080110 0.000000 0.031488
0.074025 0.038735 0.000000 -0.068222
-0.087614 0.022007 0.000000 -0.111200
-0.032569 -0.046182 0.000000 -0.085453
-0.040900 0.023153 0.000000 -0.124141
0.000516 -0.001922 0.000000 -0.000461
0.003671 -0.001635 0.000000 -0.021048
0.000649 0.006863 0.000000 -0.015601
0.003852 -0.001242 0.000000 -0.018413
-0.089364 -0.136246 0.000000 -0.012731
-0.116456 -0.156057 0.000000 -0.065069
0.097506 -0.075009 0.000000 -0.070306
-0.089313 -0.084579 0.000000 -0.011002
0.016921 0.015521 0.000000 -0.071135
0.095593 0.005103 0.000000 -0.070838
-0.119544 -0.008172 0.000000 -0.098885
0.008890 -0.007122 0.000000 -0.114173
0.000243 -0.000612 0.000000 0.000058
0.000633 -0.001476 0.000000 -0.001054
0.005706 -0.001350 0.000000 -0.019943
0.000249 -0.001898 0.000000 -0.001457
0.000001 -0.003512 0.000000 0.000566
0.000007 -0.003648 0.000000 0.001888
0.002658 -0.004405 0.000000 -0.003084
0.002648 -0.003648 0.000000 0.001815
0.005413 -0.104370 0.000000 0.046277
0.081210 -0.019647 0.000000 -0.042376
0.000037 -0.022507 0.000000 0.004196
0.093539 -0.094002 0.000000 0.000150
0.000665 -0.003549 0.000000 -0.003674
0.004806 -0.022168 0.000000 -0.005344
0.005587 -0.021358 0.000000 -0.022123
0.004492 -0.003532 0.000000 -0.013356

SCALARS sigma float 4
LOOKUP_TABLE default
0.009150 0.009150 0.005490 -0.008108
0.026048 0.005588 0.009491 0.000117
0.001905 0.021643 0.007064 0.003219
-0.011823 -0.011092 -0.006875 -0.016357
0.025450 0.171755 0.059161 0.082233
-1.314218 -0.629641 -0.583158 0.234457
-0.378722 -0.195759 -0.172344 0.135862
-1.143274 -0.353384 -0.448997 -0.059786
0.003214 0.007129 0.003103 0.005642
0.002180 0.016764 0.005683 0.008205
0.015759 0.005184 0.006283 -0.000389
-0.000615 -0.001825 -0.000732 0.003949
-0.024909 -0.049603 -0.022354 -0.021071
-0.019231 -0.076489 -0.028716 -0.007835
-0.006839 -0.004544 -0.003415 -0.003704
-0.005936 -0.004001 -0.002981 0.009007
0.842822 0.095213 0.281410 0.298954
1.380296 0.799372 0.653901 0.389908
-1.401685 -0.714590 -0.634882 0.199993
0.941608 0.289659 0.369380 0.203500
-0.963614 -0.405430 -0.410713 0.473145
1.011501 0.414651 0.427846 0.447990
0.524957 0.405276 0.279070 0.506271
0.238667 -0.009831 0.068651 0.824840
0.003210 0.007005 0.003064 0.005616
-0.001324 0.008190 0.002060 -0.003231
0.008639 0.042346 0.015295 0.014849
-0.003010 0.004339 0.000398 0.004929
1.070745 0.205777 0.382957 0.628853
-0.070015 0.008885 -0.018339 0.140877
-1.340343 -0.564176 -0.571356 0.216004
-0.242235 -0.311601 -0.166151 0.469989
0.743646 0.081943 0.247677 -0.235177
-0.673661 -0.468125 -0.342536 -0.026812
1.423047 0.850090 0.681941 -0.205610
1.238597 0.355434 0.478209 -0.082678
0.008855 0.013102 0.006587 0.010359
-0.026838 -0.025625 -0.015739 -0.028328
0.020381 0.086367 0.032024 0.025736
-0.013840 0.003529 -0.003093 0.001971
-0.442667 -0.215234 -0.197370 -0.529513
1.042799 0.652127 0.508478 -0.370730
-1.221282 -0.420628 -0.492573 -0.480394
-0.570350 -0.243575 -0.244178 -0.850587
-1.368806 -0.506262 -0.562520 -0.125915
-1.250020 -0.550161 -0.540054 -0.101372
0.810489 0.167436 0.293377 -0.465162
-1.511564 -0.818385 -0.698985 -0.208300
0.001331 0.010752 0.003625 0.008412
0.007012 0.011693 0.005612 0.000687
0.019739 0.000199 0.005981 -0.013894
-0.008562 -0.011963 -0.006157 -0.007178
-0.001406 -0.003446 -0.001455 -0.001294
-0.009671 -0.019265 -0.008681 0.006771
0.004245 0.002499 0.002023 -0.001479
-0.004071 -0.016904 -0.006293 -0.004503
-1.506296 -0.408921 -0.574565 -0.725466
0.060899 -0.048671 0.003669 -0.161009
1.099303 0.417519 0.455046 -0.266596
0.208301 0.377903 0.175861 -0.460204
-0.009143 -0.025863 -0.010502 -0.009824
-0.000275 -0.054517 -0.016437 0.001722
-0.015182 -0.080937 -0.028836 -0.023851
0.016756 -0.014754 0.000601 -0.004296
-0.000316 -0.001254 -0.000471 0.002792
-0.012660 -0.007365 -0.006008 0.014462
0.000055 -0.005427 -0.001612 0.000931
0.001872 -0.001163 0.000213 0.003251
-0.852854 -0.073075 -0.277779 0.541485
1.128777 0.447495 0.472882 0.222469
1.059919 0.458617 0.455561 0.125801
1.299118 0.856120 0.646572 0.244773
0.005762 0.002211 0.002392 0.000974
0.003776 -0.003260 0.000155 0.000239
0.011160 -0.018762 -0.002280 0.011609
-0.006507 -0.026358 -0.009860 -0.006425
0.009739 0.008722 0.005538 0.022174
0.004471 -0.034321 -0.008955 0.013682
-0.003091 -0.019290 -0.006714 -0.002450
-0.001927 -0.018732 -0.006198 0.015426
-1.472714 -0.663593 -0.640892 0.299015
-0.264685 0.099024 -0.049698 0.209245
0.538218 0.797827 0.400814 0.099356
-1.073897 0.100491 -0.292022 0.034422
1.589822 1.347402 0.881167 0.463612
-1.187579 -0.236112 -0.427107 0.644793
1.219719 1.085090 0.691443 0.300694
1.078692 0.723229 0.540576 0.242243
-0.004523 -0.012951 -0.005242 -0.004121
0.006772 -0.003865 0.000872 0.013634
0.030654 0.122033 0.045806 0.054726
0.004325 -0.009246 -0.001476 0.023504
-0.042451 0.478647 0.130859 -0.103745
-1.154114 -0.383024 -0.461141 0.628335
0.122766 0.047555 0.051096 0.419184
-0.690695 0.292670 -0.119407 0.235833
-1.586650 -0.763534 -0.705055 -0.487868
1.300663 0.873771 0.652330 -0.228387
-0.898445 -0.189216 -0.326298 -0.278054
-0.817042 -0.034753 -0.255539 -0.187537
0.001744 0.003926 0.001701 0.001584
0.014838 0.105052 0.035967 0.007578
0.011103 0.029441 0.012163 0.018531
-0.035285 -0.011945 -0.014169 0.000979
1.698947 1.431242 0.939057 -0.272992
0.768920 0.903282 0.501660 -0.177191
0.133760 0.271544 0.121591 -0.110100
1.504069 0.843324 0.704218 -0.074068
1.054870 0.478761 0.460089 -0.358182
-0.044318 0.080883 0.010969 -0.418765
0.648856 0.507800 0.346997 0.118997
1.284334 0.816767 0.630330 -0.038733
-0.004109 -0.003174 -0.002185 -0.001005
-0.001960 -0.000764 -0.000817 -0.001095
-0.040818 -0.003387 -0.013262 -0.025554
0.004020 0.015817 0.005951 0.003422
0.004023 -0.003862 0.000049 0.000580
0.004897 -0.007963 -0.000920 -0.105419
0.002922 -0.000991 0.000579 -0.000953
-0.001337 -0.010918 -0.003677 -0.001905
1.032048 0.644612 0.502998 -0.568705
-1.251391 -0.413338 -0.499419 -0.460107
-1.082153 -0.358143 -0.432089 -0.504345
-1.230305 -0.322437 -0.465823 -0.508676
0.002109 0.008722 0.003249 0.000838
0.027111 0.119604 0.044015 -0.074015
0.016684 0.130925 0.044283 -0.028376
-0.024773 -0.002659 -0.008230 -0.064356
0.002447 0.003206 0.001696 0.003214
-0.021587 0.001925 -0.005899 0.072003
-0.005589 -0.007803 -0.004018 0.005558
0.003386 0.013141 0.004958 0.005412
1.116865 0.415530 0.459718 0.723446
-0.042887 0.153605 0.033215 0.589272
-1.244081 -0.310230 -0.466293 0.695205
-0.348260 -0.249086 -0.179204 0.912099
-0.004697 -0.032620 -0.011195 0.000563
-0.011572 -0.027420 -0.011698 0.004023
-0.022423 -0.008165 -0.009176 0.193796
0.011995 0.006708 0.005611 0.015539
0.067453 0.253402 0.096257 0.139269
0.066761 0.205886 0.081794 0.208525
0.014000 0.032394 0.013918 0.017554
-0.038093 0.008958 -0.008740 0.149404
0.509416 0.516646 0.307819 0.568889
-1.469736 -1.272567 -0.822691 0.470356
0.694424 -0.098154 0.178881 0.750751
-0.056877 -0.471541 -0.158526 0.952995
-0.854981 -1.994957 -0.854981 0.033878
-0.546577 -1.275345 -0.546577 -0.424285
-2.652819 -3.093535 -1.723906 0.146014
-2.071784 -1.866034 -1.181345 -0.273605
-0.038297 -0.089360 -0.038297 -0.017378
-0.052518 -0.194038 -0.073967 0.154388
-0.248646 -0.580175 -0.248646 -0.029921
0.004567 -0.069259 -0.019408 0.116696
-1.682457 -1.669314 -1.005531 0.601661
0.906137 -0.081580 0.247367 0.138535
0.927495 0.222362 0.344957 0.405661
0.651508 -0.651592 -0.000025 0.232688
1.130745 0.806449 0.581158 -0.488697
-1.239429 -0.381142 -0.486171 -0.898279
-0.803334 -1.023542 -0.548063 -0.681202
-0.568409 -0.120610 -0.206706 -0.978515
-0.004160 -0.022927 -0.008126 -0.003546
0.035791 -0.010101 0.007707 -0.161437
0.045854 0.090482 0.040901 -0.119860
0.040673 -0.003674 0.011100 -0.141097
-2.115928 -2.531766 -1.394308 -0.105861
-2.718857 -3.155389 -1.762274 -0.576170
0.744992 -0.649606 0.028616 -0.488960
-1.776755 -1.741430 -1.055455 -0.093599
0.261131 0.179146 0.132083 -0.538286
1.214435 0.489969 0.511321 -0.500840
-1.883140 -0.968181 -0.855396 -0.824425
-0.032416 -0.201756 -0.070252 -0.881454
-0.000259 -0.006836 -0.002128 0.000444
-0.000059 -0.016257 -0.004895 -0.008124
0.064890 0.005639 0.021159 -0.152635
-0.007675 -0.024163 -0.009551 -0.011228
-0.020298 -0.047363 -0.020298 0.004369
-0.021086 -0.049201 -0.021086 0.014577
0.010023 -0.044213 -0.010257 -0.023824
0.014425 -0.033976 -0.005865 0.014017
-0.637340 -1.487127 -0.637340 0.400184
0.921756 0.147257 0.320704 -0.304661
-0.131343 -0.306468 -0.131343 0.033031
0.558917 -0.884766 -0.097755 0.064356
-0.012002 -0.044220 -0.016866 -0.028373
-0.066359 -0.276829 -0.102956 -0.040015
-0.053969 -0.268178 -0.096644 -0.169978
0.038487 -0.024300 0.004256 -0.102533

