# vtk DataFile Version 2.0
Unstructured Grid Example
ASCII
DATASET UNSTRUCTURED_GRID

POINTS 256 float
0.000000 0.000000 0.000000 
0.007812 0.000000 0.000000 
0.007812 0.000000 0.000000 
0.015625 0.000000 0.000000 
0.015625 0.000000 0.000000 
0.023438 0.000000 0.000000 
0.023438 0.000000 0.000000 
0.031250 0.000000 0.000000 
0.046875 0.000000 0.000000 
0.054688 0.000000 0.000000 
0.054688 0.000000 0.000000 
0.062500 0.000000 0.000000 
0.031250 0.000000 0.000000 
0.039062 0.000000 0.000000 
0.039062 0.000000 0.000000 
0.046875 0.000000 0.000000 
0.109375 0.000000 0.000000 
0.117188 0.000000 0.000000 
0.117188 0.000000 0.000000 
0.125000 0.000000 0.000000 
0.093750 0.000000 0.000000 
0.101562 0.000000 0.000000 
0.101562 0.000000 0.000000 
0.109375 0.000000 0.000000 
0.062500 0.000000 0.000000 
0.070312 0.000000 0.000000 
0.070312 0.000000 0.000000 
0.078125 0.000000 0.000000 
0.078125 0.000000 0.000000 
0.085938 0.000000 0.000000 
0.085938 0.000000 0.000000 
0.093750 0.000000 0.000000 
0.234375 0.000000 0.000000 
0.242188 0.000000 0.000000 
0.242188 0.000000 0.000000 
0.250000 0.000000 0.000000 
0.218750 0.000000 0.000000 
0.226562 0.000000 0.000000 
0.226562 0.000000 0.000000 
0.234375 0.000000 0.000000 
0.187500 0.000000 0.000000 
0.195312 0.000000 0.000000 
0.195312 0.000000 0.000000 
0.203125 0.000000 0.000000 
0.203125 0.000000 0.000000 
0.210938 0.000000 0.000000 
0.210938 0.000000 0.000000 
0.218750 0.000000 0.000000 
0.125000 0.000000 0.000000 
0.132812 0.000000 0.000000 
0.132812 0.000000 0.000000 
0.140625 0.000000 0.000000 
0.140625 0.000000 0.000000 
0.148438 0.000000 0.000000 
0.148438 0.000000 0.000000 
0.156250 0.000000 0.000000 
0.171875 0.000000 0.000000 
0.179688 0.000000 0.000000 
0.179688 0.000000 0.000000 
0.187500 0.000000 0.000000 
0.156250 0.000000 0.000000 
0.164062 0.000000 0.000000 
0.164062 0.000000 0.000000 
0.171875 0.000000 0.000000 
0.484375 -8.927062 0.000000 
0.492188 -8.911921 0.000000 
0.492188 -8.936920 0.000000 
0.500000 -8.877063 0.000000 
0.468750 -8.967983 0.000000 
0.476562 -8.916211 0.000000 
0.476562 -8.944922 0.000000 
0.484375 -8.910562 0.000000 
0.437500 -9.121459 0.000000 
0.445312 -8.996035 0.000000 
0.445312 -9.073007 0.000000 
0.453125 -8.967514 0.000000 
0.453125 -9.031617 0.000000 
0.460938 -8.944802 0.000000 
0.460938 -8.996755 0.000000 
0.468750 -8.927712 0.000000 
0.375000 -9.881822 0.000000 
0.382812 -9.494147 0.000000 
0.382812 -9.736067 0.000000 
0.390625 -9.397982 0.000000 
0.390625 -9.609134 0.000000 
0.398438 -9.313762 0.000000 
0.398438 -9.498285 0.000000 
0.406250 -9.240088 0.000000 
0.421875 -9.242313 0.000000 
0.429688 -9.071803 0.000000 
0.429688 -9.177628 0.000000 
0.437500 -9.030662 0.000000 
0.406250 -9.401327 0.000000 
0.414062 -9.175807 0.000000 
0.414062 -9.316485 0.000000 
0.421875 -9.119972 0.000000 
0.250000 54.164477 0.000000 
0.257812 -108.328954 0.000000 
0.257812 -84.228478 0.000000 
0.265625 5.963526 0.000000 
0.265625 -29.655128 0.000000 
0.273438 -12.991171 0.000000 
0.273438 -21.097757 0.000000 
0.281250 -13.441957 0.000000 
0.296875 -14.180677 0.000000 
0.304688 -11.814126 0.000000 
0.304688 -13.213900 0.000000 
0.312500 -11.381127 0.000000 
0.281250 -17.532907 0.000000 
0.289062 -12.915857 0.000000 
0.289062 -15.517921 0.000000 
0.296875 -12.328779 0.000000 
0.359375 -10.244558 0.000000 
0.367188 -9.729556 0.000000 
0.367188 -10.049849 0.000000 
0.375000 -9.603971 0.000000 
0.343750 -10.738679 0.000000 
0.351562 -10.039072 0.000000 
0.351562 -10.471658 0.000000 
0.359375 -9.873506 0.000000 
0.312500 -12.478987 0.000000 
0.320312 -11.018180 0.000000 
0.320312 -11.901535 0.000000 
0.328125 -10.712277 0.000000 
0.328125 -11.436784 0.000000 
0.335938 -10.452523 0.000000 
0.335938 -11.055743 0.000000 
0.343750 -10.230343 0.000000 
0.500000 -8.877063 0.000000 
0.507812 -8.936920 0.000000 
0.507812 -8.911921 0.000000 
0.515625 -8.927062 0.000000 
0.515625 -8.910562 0.000000 
0.523438 -8.944922 0.000000 
0.523438 -8.916211 0.000000 
0.531250 -8.967983 0.000000 
0.546875 -8.967514 0.000000 
0.554688 -9.073007 0.000000 
0.554688 -8.996035 0.000000 
0.562500 -9.121459 0.000000 
0.531250 -8.927712 0.000000 
0.539062 -8.996755 0.000000 
0.539062 -8.944802 0.000000 
0.546875 -9.031617 0.000000 
0.609375 -9.397982 0.000000 
0.617188 -9.736067 0.000000 
0.617188 -9.494147 0.000000 
0.625000 -9.881822 0.000000 
0.593750 -9.240088 0.000000 
0.601562 -9.498285 0.000000 
0.601562 -9.313762 0.000000 
0.609375 -9.609134 0.000000 
0.562500 -9.030662 0.000000 
0.570312 -9.177628 0.000000 
0.570312 -9.071803 0.000000 
0.578125 -9.242313 0.000000 
0.578125 -9.119972 0.000000 
0.585938 -9.316485 0.000000 
0.585938 -9.175807 0.000000 
0.593750 -9.401327 0.000000 
0.734375 5.963526 0.000000 
0.742188 -84.228478 0.000000 
0.742188 -108.328954 0.000000 
0.750000 54.164477 0.000000 
0.718750 -13.441957 0.000000 
0.726562 -21.097757 0.000000 
0.726562 -12.991171 0.000000 
0.734375 -29.655128 0.000000 
0.687500 -11.381127 0.000000 
0.695312 -13.213900 0.000000 
0.695312 -11.814126 0.000000 
0.703125 -14.180677 0.000000 
0.703125 -12.328779 0.000000 
0.710938 -15.517921 0.000000 
0.710938 -12.915857 0.000000 
0.718750 -17.532907 0.000000 
0.625000 -9.603971 0.000000 
0.632812 -10.049849 0.000000 
0.632812 -9.729556 0.000000 
0.640625 -10.244558 0.000000 
0.640625 -9.873506 0.000000 
0.648438 -10.471658 0.000000 
0.648438 -10.039072 0.000000 
0.656250 -10.738679 0.000000 
0.671875 -10.712277 0.000000 
0.679688 -11.901535 0.000000 
0.679688 -11.018180 0.000000 
0.687500 -12.478987 0.000000 
0.656250 -10.230343 0.000000 
0.664062 -11.055743 0.000000 
0.664062 -10.452523 0.000000 
0.671875 -11.436784 0.000000 
0.984375 0.000000 0.000000 
0.992188 0.000000 0.000000 
0.992188 0.000000 0.000000 
1.000000 0.000000 0.000000 
0.968750 0.000000 0.000000 
0.976562 0.000000 0.000000 
0.976562 0.000000 0.000000 
0.984375 0.000000 0.000000 
0.937500 0.000000 0.000000 
0.945312 0.000000 0.000000 
0.945312 0.000000 0.000000 
0.953125 0.000000 0.000000 
0.953125 0.000000 0.000000 
0.960938 0.000000 0.000000 
0.960938 0.000000 0.000000 
0.968750 0.000000 0.000000 
0.875000 0.000000 0.000000 
0.882812 0.000000 0.000000 
0.882812 0.000000 0.000000 
0.890625 0.000000 0.000000 
0.890625 0.000000 0.000000 
0.898438 0.000000 0.000000 
0.898438 0.000000 0.000000 
0.906250 0.000000 0.000000 
0.921875 0.000000 0.000000 
0.929688 0.000000 0.000000 
0.929688 0.000000 0.000000 
0.937500 0.000000 0.000000 
0.906250 0.000000 0.000000 
0.914062 0.000000 0.000000 
0.914062 0.000000 0.000000 
0.921875 0.000000 0.000000 
0.750000 0.000000 0.000000 
0.757812 0.000000 0.000000 
0.757812 0.000000 0.000000 
0.765625 0.000000 0.000000 
0.765625 0.000000 0.000000 
0.773438 0.000000 0.000000 
0.773438 0.000000 0.000000 
0.781250 0.000000 0.000000 
0.796875 0.000000 0.000000 
0.804688 0.000000 0.000000 
0.804688 0.000000 0.000000 
0.812500 0.000000 0.000000 
0.781250 0.000000 0.000000 
0.789062 0.000000 0.000000 
0.789062 0.000000 0.000000 
0.796875 0.000000 0.000000 
0.859375 0.000000 0.000000 
0.867188 0.000000 0.000000 
0.867188 0.000000 0.000000 
0.875000 0.000000 0.000000 
0.843750 0.000000 0.000000 
0.851562 0.000000 0.000000 
0.851562 0.000000 0.000000 
0.859375 0.000000 0.000000 
0.812500 0.000000 0.000000 
0.820312 0.000000 0.000000 
0.820312 0.000000 0.000000 
0.828125 0.000000 0.000000 
0.828125 0.000000 0.000000 
0.835938 0.000000 0.000000 
0.835938 0.000000 0.000000 
0.843750 0.000000 0.000000 

CELLS 128 384
2  0 1 
2  2 3 
2  4 5 
2  6 7 
2  8 9 
2  10 11 
2  12 13 
2  14 15 
2  16 17 
2  18 19 
2  20 21 
2  22 23 
2  24 25 
2  26 27 
2  28 29 
2  30 31 
2  32 33 
2  34 35 
2  36 37 
2  38 39 
2  40 41 
2  42 43 
2  44 45 
2  46 47 
2  48 49 
2  50 51 
2  52 53 
2  54 55 
2  56 57 
2  58 59 
2  60 61 
2  62 63 
2  64 65 
2  66 67 
2  68 69 
2  70 71 
2  72 73 
2  74 75 
2  76 77 
2  78 79 
2  80 81 
2  82 83 
2  84 85 
2  86 87 
2  88 89 
2  90 91 
2  92 93 
2  94 95 
2  96 97 
2  98 99 
2  100 101 
2  102 103 
2  104 105 
2  106 107 
2  108 109 
2  110 111 
2  112 113 
2  114 115 
2  116 117 
2  118 119 
2  120 121 
2  122 123 
2  124 125 
2  126 127 
2  128 129 
2  130 131 
2  132 133 
2  134 135 
2  136 137 
2  138 139 
2  140 141 
2  142 143 
2  144 145 
2  146 147 
2  148 149 
2  150 151 
2  152 153 
2  154 155 
2  156 157 
2  158 159 
2  160 161 
2  162 163 
2  164 165 
2  166 167 
2  168 169 
2  170 171 
2  172 173 
2  174 175 
2  176 177 
2  178 179 
2  180 181 
2  182 183 
2  184 185 
2  186 187 
2  188 189 
2  190 191 
2  192 193 
2  194 195 
2  196 197 
2  198 199 
2  200 201 
2  202 203 
2  204 205 
2  206 207 
2  208 209 
2  210 211 
2  212 213 
2  214 215 
2  216 217 
2  218 219 
2  220 221 
2  222 223 
2  224 225 
2  226 227 
2  228 229 
2  230 231 
2  232 233 
2  234 235 
2  236 237 
2  238 239 
2  240 241 
2  242 243 
2  244 245 
2  246 247 
2  248 249 
2  250 251 
2  252 253 
2  254 255 

CELL_TYPES 128
3
3
3
3
3
3
3
3
3
3
3
3
3
3
3
3
3
3
3
3
3
3
3
3
3
3
3
3
3
3
3
3
3
3
3
3
3
3
3
3
3
3
3
3
3
3
3
3
3
3
3
3
3
3
3
3
3
3
3
3
3
3
3
3
3
3
3
3
3
3
3
3
3
3
3
3
3
3
3
3
3
3
3
3
3
3
3
3
3
3
3
3
3
3
3
3
3
3
3
3
3
3
3
3
3
3
3
3
3
3
3
3
3
3
3
3
3
3
3
3
3
3
3
3
3
3
3
3

POINT_DATA 256

SCALARS lambda_h float 1
LOOKUP_TABLE default
0.000000 
0.000000 
0.000000 
0.000000 
0.000000 
0.000000 
0.000000 
0.000000 
0.000000 
0.000000 
0.000000 
0.000000 
0.000000 
0.000000 
0.000000 
0.000000 
0.000000 
0.000000 
0.000000 
0.000000 
0.000000 
0.000000 
0.000000 
0.000000 
0.000000 
0.000000 
0.000000 
0.000000 
0.000000 
0.000000 
0.000000 
0.000000 
0.000000 
0.000000 
0.000000 
0.000000 
0.000000 
0.000000 
0.000000 
0.000000 
0.000000 
0.000000 
0.000000 
0.000000 
0.000000 
0.000000 
0.000000 
0.000000 
0.000000 
0.000000 
0.000000 
0.000000 
0.000000 
0.000000 
0.000000 
0.000000 
0.000000 
0.000000 
0.000000 
0.000000 
0.000000 
0.000000 
0.000000 
0.000000 
-8.927062 
-8.911921 
-8.936920 
-8.877063 
-8.967983 
-8.916211 
-8.944922 
-8.910562 
-9.121459 
-8.996035 
-9.073007 
-8.967514 
-9.031617 
-8.944802 
-8.996755 
-8.927712 
-9.881822 
-9.494147 
-9.736067 
-9.397982 
-9.609134 
-9.313762 
-9.498285 
-9.240088 
-9.242313 
-9.071803 
-9.177628 
-9.030662 
-9.401327 
-9.175807 
-9.316485 
-9.119972 
54.164477 
-108.328954 
-84.228478 
5.963526 
-29.655128 
-12.991171 
-21.097757 
-13.441957 
-14.180677 
-11.814126 
-13.213900 
-11.381127 
-17.532907 
-12.915857 
-15.517921 
-12.328779 
-10.244558 
-9.729556 
-10.049849 
-9.603971 
-10.738679 
-10.039072 
-10.471658 
-9.873506 
-12.478987 
-11.018180 
-11.901535 
-10.712277 
-11.436784 
-10.452523 
-11.055743 
-10.230343 
-8.877063 
-8.936920 
-8.911921 
-8.927062 
-8.910562 
-8.944922 
-8.916211 
-8.967983 
-8.967514 
-9.073007 
-8.996035 
-9.121459 
-8.927712 
-8.996755 
-8.944802 
-9.031617 
-9.397982 
-9.736067 
-9.494147 
-9.881822 
-9.240088 
-9.498285 
-9.313762 
-9.609134 
-9.030662 
-9.177628 
-9.071803 
-9.242313 
-9.119972 
-9.316485 
-9.175807 
-9.401327 
5.963526 
-84.228478 
-108.328954 
54.164477 
-13.441957 
-21.097757 
-12.991171 
-29.655128 
-11.381127 
-13.213900 
-11.814126 
-14.180677 
-12.328779 
-15.517921 
-12.915857 
-17.532907 
-9.603971 
-10.049849 
-9.729556 
-10.244558 
-9.873506 
-10.471658 
-10.039072 
-10.738679 
-10.712277 
-11.901535 
-11.018180 
-12.478987 
-10.230343 
-11.055743 
-10.452523 
-11.436784 
0.000000 
0.000000 
0.000000 
0.000000 
0.000000 
0.000000 
0.000000 
0.000000 
0.000000 
0.000000 
0.000000 
0.000000 
0.000000 
0.000000 
0.000000 
0.000000 
0.000000 
0.000000 
0.000000 
0.000000 
0.000000 
0.000000 
0.000000 
0.000000 
0.000000 
0.000000 
0.000000 
0.000000 
0.000000 
0.000000 
0.000000 
0.000000 
0.000000 
0.000000 
0.000000 
0.000000 
0.000000 
0.000000 
0.000000 
0.000000 
0.000000 
0.000000 
0.000000 
0.000000 
0.000000 
0.000000 
0.000000 
0.000000 
0.000000 
0.000000 
0.000000 
0.000000 
0.000000 
0.000000 
0.000000 
0.000000 
0.000000 
0.000000 
0.000000 
0.000000 
0.000000 
0.000000 
0.000000 
0.000000 

