# vtk DataFile Version 2.0
Unstructured Grid Example
ASCII
DATASET UNSTRUCTURED_GRID

POINTS 32 float
0.000000 0.000000 0.000000 
0.062500 0.000000 0.000000 
0.062500 0.000000 0.000000 
0.125000 0.000000 0.000000 
0.125000 0.000000 0.000000 
0.187500 0.000000 0.000000 
0.187500 0.000000 0.000000 
0.250000 0.000000 0.000000 
0.375000 -12.295916 0.000000 
0.437500 -8.033110 0.000000 
0.437500 -9.463900 0.000000 
0.500000 -9.434335 0.000000 
0.250000 20.853173 0.000000 
0.312500 -41.706346 0.000000 
0.312500 -30.831365 0.000000 
0.375000 -0.896788 0.000000 
0.500000 -9.434335 0.000000 
0.562500 -9.463900 0.000000 
0.562500 -8.033110 0.000000 
0.625000 -12.295916 0.000000 
0.625000 -0.896788 0.000000 
0.687500 -30.831365 0.000000 
0.687500 -41.706346 0.000000 
0.750000 20.853173 0.000000 
0.875000 0.000000 0.000000 
0.937500 0.000000 0.000000 
0.937500 0.000000 0.000000 
1.000000 0.000000 0.000000 
0.750000 0.000000 0.000000 
0.812500 0.000000 0.000000 
0.812500 0.000000 0.000000 
0.875000 0.000000 0.000000 

CELLS 16 48
2  0 1 
2  2 3 
2  4 5 
2  6 7 
2  8 9 
2  10 11 
2  12 13 
2  14 15 
2  16 17 
2  18 19 
2  20 21 
2  22 23 
2  24 25 
2  26 27 
2  28 29 
2  30 31 

CELL_TYPES 16
3
3
3
3
3
3
3
3
3
3
3
3
3
3
3
3

POINT_DATA 32

SCALARS lambda_h float 1
LOOKUP_TABLE default
0.000000 
0.000000 
0.000000 
0.000000 
0.000000 
0.000000 
0.000000 
0.000000 
-12.295916 
-8.033110 
-9.463900 
-9.434335 
20.853173 
-41.706346 
-30.831365 
-0.896788 
-9.434335 
-9.463900 
-8.033110 
-12.295916 
-0.896788 
-30.831365 
-41.706346 
20.853173 
0.000000 
0.000000 
0.000000 
0.000000 
0.000000 
0.000000 
0.000000 
0.000000 

