# vtk DataFile Version 2.0
Unstructured Grid Example
ASCII
DATASET UNSTRUCTURED_GRID

POINTS 128 float
0.000000 0.000000 0.000000 
0.015625 0.000000 0.000000 
0.015625 0.000000 0.000000 
0.031250 0.000000 0.000000 
0.031250 0.000000 0.000000 
0.046875 0.000000 0.000000 
0.046875 0.000000 0.000000 
0.062500 0.000000 0.000000 
0.093750 0.000000 0.000000 
0.109375 0.000000 0.000000 
0.109375 0.000000 0.000000 
0.125000 0.000000 0.000000 
0.062500 0.000000 0.000000 
0.078125 0.000000 0.000000 
0.078125 0.000000 0.000000 
0.093750 0.000000 0.000000 
0.218750 0.000000 0.000000 
0.234375 0.000000 0.000000 
0.234375 0.000000 0.000000 
0.250000 0.000000 0.000000 
0.187500 0.000000 0.000000 
0.203125 0.000000 0.000000 
0.203125 0.000000 0.000000 
0.218750 0.000000 0.000000 
0.125000 0.000000 0.000000 
0.140625 0.000000 0.000000 
0.140625 0.000000 0.000000 
0.156250 0.000000 0.000000 
0.156250 0.000000 0.000000 
0.171875 0.000000 0.000000 
0.171875 0.000000 0.000000 
0.187500 0.000000 0.000000 
0.468750 -9.034286 0.000000 
0.484375 -8.959901 0.000000 
0.484375 -9.013305 0.000000 
0.500000 -8.927479 0.000000 
0.437500 -9.226188 0.000000 
0.453125 -8.981405 0.000000 
0.453125 -9.116507 0.000000 
0.468750 -8.955983 0.000000 
0.375000 -10.122485 0.000000 
0.390625 -9.346761 0.000000 
0.390625 -9.802680 0.000000 
0.406250 -9.210646 0.000000 
0.406250 -9.558423 0.000000 
0.421875 -9.107126 0.000000 
0.421875 -9.370523 0.000000 
0.437500 -9.031629 0.000000 
0.250000 38.814409 0.000000 
0.265625 -77.628819 0.000000 
0.265625 -59.887381 0.000000 
0.281250 3.331534 0.000000 
0.281250 -21.517481 0.000000 
0.296875 -10.189351 0.000000 
0.296875 -15.640824 0.000000 
0.312500 -10.614536 0.000000 
0.343750 -11.129949 0.000000 
0.359375 -9.743945 0.000000 
0.359375 -10.547983 0.000000 
0.375000 -9.521874 0.000000 
0.312500 -13.263957 0.000000 
0.328125 -10.341981 0.000000 
0.328125 -11.963998 0.000000 
0.343750 -10.019923 0.000000 
0.500000 -8.927479 0.000000 
0.515625 -9.013305 0.000000 
0.515625 -8.959901 0.000000 
0.531250 -9.034286 0.000000 
0.531250 -8.955983 0.000000 
0.546875 -9.116507 0.000000 
0.546875 -8.981405 0.000000 
0.562500 -9.226188 0.000000 
0.593750 -9.210646 0.000000 
0.609375 -9.802680 0.000000 
0.609375 -9.346761 0.000000 
0.625000 -10.122485 0.000000 
0.562500 -9.031629 0.000000 
0.578125 -9.370523 0.000000 
0.578125 -9.107126 0.000000 
0.593750 -9.558423 0.000000 
0.718750 3.331534 0.000000 
0.734375 -59.887381 0.000000 
0.734375 -77.628819 0.000000 
0.750000 38.814409 0.000000 
0.687500 -10.614536 0.000000 
0.703125 -15.640824 0.000000 
0.703125 -10.189351 0.000000 
0.718750 -21.517481 0.000000 
0.625000 -9.521874 0.000000 
0.640625 -10.547983 0.000000 
0.640625 -9.743945 0.000000 
0.656250 -11.129949 0.000000 
0.656250 -10.019923 0.000000 
0.671875 -11.963998 0.000000 
0.671875 -10.341981 0.000000 
0.687500 -13.263957 0.000000 
0.968750 0.000000 0.000000 
0.984375 0.000000 0.000000 
0.984375 0.000000 0.000000 
1.000000 0.000000 0.000000 
0.937500 0.000000 0.000000 
0.953125 0.000000 0.000000 
0.953125 0.000000 0.000000 
0.968750 0.000000 0.000000 
0.875000 0.000000 0.000000 
0.890625 0.000000 0.000000 
0.890625 0.000000 0.000000 
0.906250 0.000000 0.000000 
0.906250 0.000000 0.000000 
0.921875 0.000000 0.000000 
0.921875 0.000000 0.000000 
0.937500 0.000000 0.000000 
0.750000 0.000000 0.000000 
0.765625 0.000000 0.000000 
0.765625 0.000000 0.000000 
0.781250 0.000000 0.000000 
0.781250 0.000000 0.000000 
0.796875 0.000000 0.000000 
0.796875 0.000000 0.000000 
0.812500 0.000000 0.000000 
0.843750 0.000000 0.000000 
0.859375 0.000000 0.000000 
0.859375 0.000000 0.000000 
0.875000 0.000000 0.000000 
0.812500 0.000000 0.000000 
0.828125 0.000000 0.000000 
0.828125 0.000000 0.000000 
0.843750 0.000000 0.000000 

CELLS 64 192
2  0 1 
2  2 3 
2  4 5 
2  6 7 
2  8 9 
2  10 11 
2  12 13 
2  14 15 
2  16 17 
2  18 19 
2  20 21 
2  22 23 
2  24 25 
2  26 27 
2  28 29 
2  30 31 
2  32 33 
2  34 35 
2  36 37 
2  38 39 
2  40 41 
2  42 43 
2  44 45 
2  46 47 
2  48 49 
2  50 51 
2  52 53 
2  54 55 
2  56 57 
2  58 59 
2  60 61 
2  62 63 
2  64 65 
2  66 67 
2  68 69 
2  70 71 
2  72 73 
2  74 75 
2  76 77 
2  78 79 
2  80 81 
2  82 83 
2  84 85 
2  86 87 
2  88 89 
2  90 91 
2  92 93 
2  94 95 
2  96 97 
2  98 99 
2  100 101 
2  102 103 
2  104 105 
2  106 107 
2  108 109 
2  110 111 
2  112 113 
2  114 115 
2  116 117 
2  118 119 
2  120 121 
2  122 123 
2  124 125 
2  126 127 

CELL_TYPES 64
3
3
3
3
3
3
3
3
3
3
3
3
3
3
3
3
3
3
3
3
3
3
3
3
3
3
3
3
3
3
3
3
3
3
3
3
3
3
3
3
3
3
3
3
3
3
3
3
3
3
3
3
3
3
3
3
3
3
3
3
3
3
3
3

POINT_DATA 128

SCALARS lambda_h float 1
LOOKUP_TABLE default
0.000000 
0.000000 
0.000000 
0.000000 
0.000000 
0.000000 
0.000000 
0.000000 
0.000000 
0.000000 
0.000000 
0.000000 
0.000000 
0.000000 
0.000000 
0.000000 
0.000000 
0.000000 
0.000000 
0.000000 
0.000000 
0.000000 
0.000000 
0.000000 
0.000000 
0.000000 
0.000000 
0.000000 
0.000000 
0.000000 
0.000000 
0.000000 
-9.034286 
-8.959901 
-9.013305 
-8.927479 
-9.226188 
-8.981405 
-9.116507 
-8.955983 
-10.122485 
-9.346761 
-9.802680 
-9.210646 
-9.558423 
-9.107126 
-9.370523 
-9.031629 
38.814409 
-77.628819 
-59.887381 
3.331534 
-21.517481 
-10.189351 
-15.640824 
-10.614536 
-11.129949 
-9.743945 
-10.547983 
-9.521874 
-13.263957 
-10.341981 
-11.963998 
-10.019923 
-8.927479 
-9.013305 
-8.959901 
-9.034286 
-8.955983 
-9.116507 
-8.981405 
-9.226188 
-9.210646 
-9.802680 
-9.346761 
-10.122485 
-9.031629 
-9.370523 
-9.107126 
-9.558423 
3.331534 
-59.887381 
-77.628819 
38.814409 
-10.614536 
-15.640824 
-10.189351 
-21.517481 
-9.521874 
-10.547983 
-9.743945 
-11.129949 
-10.019923 
-11.963998 
-10.341981 
-13.263957 
0.000000 
0.000000 
0.000000 
0.000000 
0.000000 
0.000000 
0.000000 
0.000000 
0.000000 
0.000000 
0.000000 
0.000000 
0.000000 
0.000000 
0.000000 
0.000000 
0.000000 
0.000000 
0.000000 
0.000000 
0.000000 
0.000000 
0.000000 
0.000000 
0.000000 
0.000000 
0.000000 
0.000000 
0.000000 
0.000000 
0.000000 
0.000000 

