# vtk DataFile Version 2.0
Unstructured Grid Example
ASCII
DATASET UNSTRUCTURED_GRID

POINTS 16641 float
0.026096 -0.268454 0.000000 
0.973904 -0.268454 0.000000 
1.000000 1.000000 0.000000 
0.000000 1.000000 0.000000 
0.500000 -0.100000 0.000000 
0.980553 0.316533 0.000000 
0.500000 1.000000 0.000000 
0.019447 0.316533 0.000000 
0.500000 0.327040 0.000000 
0.290224 -0.130409 0.000000 
0.500000 0.086804 0.000000 
0.233597 0.056059 0.000000 
0.709776 -0.130409 0.000000 
0.766403 0.056059 0.000000 
1.010353 0.015351 0.000000 
0.746998 0.315088 0.000000 
0.950059 0.632199 0.000000 
0.731274 0.634396 0.000000 
0.750000 1.000000 0.000000 
0.500000 0.638179 0.000000 
0.250000 1.000000 0.000000 
0.268726 0.634396 0.000000 
0.049941 0.632199 0.000000 
0.253002 0.315088 0.000000 
-0.010353 0.015351 0.000000 
0.154855 -0.234212 0.000000 
0.238236 -0.048905 0.000000 
0.116008 -0.104764 0.000000 
0.500000 -0.009995 0.000000 
0.373020 -0.015090 0.000000 
0.385484 -0.100000 0.000000 
0.369336 0.192251 0.000000 
0.366568 0.079544 0.000000 
0.500000 0.197776 0.000000 
0.614516 -0.100000 0.000000 
0.626980 -0.015090 0.000000 
0.883992 -0.104764 0.000000 
0.761764 -0.048905 0.000000 
0.845145 -0.234212 0.000000 
0.633432 0.079544 0.000000 
0.630664 0.192251 0.000000 
1.002321 -0.133350 0.000000 
0.891925 0.026890 0.000000 
0.865338 0.308745 0.000000 
0.881856 0.163474 0.000000 
0.999327 0.165449 0.000000 
0.758916 0.177786 0.000000 
0.624723 0.323545 0.000000 
0.962015 0.471287 0.000000 
0.849855 0.464272 0.000000 
0.847989 0.811572 0.000000 
0.841531 0.631464 0.000000 
0.953161 0.802003 0.000000 
0.736243 0.467557 0.000000 
0.619308 0.472499 0.000000 
0.875000 1.000000 0.000000 
0.735941 0.813426 0.000000 
0.500000 0.814441 0.000000 
0.619039 0.814160 0.000000 
0.625000 1.000000 0.000000 
0.616928 0.637098 0.000000 
0.500000 0.474611 0.000000 
0.375000 1.000000 0.000000 
0.380961 0.814160 0.000000 
0.152011 0.811572 0.000000 
0.264059 0.813426 0.000000 
0.125000 1.000000 0.000000 
0.383072 0.637098 0.000000 
0.380692 0.472499 0.000000 
0.046839 0.802003 0.000000 
0.158469 0.631464 0.000000 
0.134662 0.308745 0.000000 
0.150145 0.464272 0.000000 
0.037985 0.471287 0.000000 
0.263757 0.467557 0.000000 
0.375277 0.323545 0.000000 
0.000673 0.165449 0.000000 
0.118144 0.163474 0.000000 
0.108075 0.026890 0.000000 
-0.002321 -0.133350 0.000000 
0.241084 0.177786 0.000000 
0.089103 -0.253149 0.000000 
0.131767 -0.170589 0.000000 
0.071528 -0.189119 0.000000 
0.249683 -0.092818 0.000000 
0.189878 -0.140407 0.000000 
0.223267 -0.203613 0.000000 
0.169792 -0.020113 0.000000 
0.175194 -0.079589 0.000000 
0.233771 0.001271 0.000000 
0.500000 -0.055698 0.000000 
0.440566 -0.056061 0.000000 
0.442297 -0.100000 0.000000 
0.434539 0.035548 0.000000 
0.437162 -0.011037 0.000000 
0.500000 0.037133 0.000000 
0.331392 -0.100000 0.000000 
0.380722 -0.057660 0.000000 
0.318338 -0.063857 0.000000 
0.435938 0.258927 0.000000 
0.434549 0.196371 0.000000 
0.500000 0.260073 0.000000 
0.299615 0.069769 0.000000 
0.367244 0.133558 0.000000 
0.301291 0.125463 0.000000 
0.500000 0.140122 0.000000 
0.433590 0.138484 0.000000 
0.433438 0.085054 0.000000 
0.306179 -0.025828 0.000000 
0.368181 0.030130 0.000000 
0.300727 0.019066 0.000000 
0.557703 -0.100000 0.000000 
0.559434 -0.056061 0.000000 
0.681662 -0.063857 0.000000 
0.619278 -0.057660 0.000000 
0.668608 -0.100000 0.000000 
0.562838 -0.011037 0.000000 
0.565461 0.035548 0.000000 
0.928472 -0.189119 0.000000 
0.868233 -0.170589 0.000000 
0.910897 -0.253149 0.000000 
0.766229 0.001271 0.000000 
0.824806 -0.079589 0.000000 
0.830208 -0.020113 0.000000 
0.776733 -0.203613 0.000000 
0.810122 -0.140407 0.000000 
0.750317 -0.092818 0.000000 
0.565451 0.196371 0.000000 
0.564062 0.258927 0.000000 
0.566562 0.085054 0.000000 
0.566410 0.138484 0.000000 
0.698709 0.125463 0.000000 
0.632756 0.133558 0.000000 
0.700385 0.069769 0.000000 
0.693821 -0.025828 0.000000 
0.699273 0.019066 0.000000 
0.631819 0.030130 0.000000 
0.989268 -0.203610 0.000000 
0.943053 -0.121686 0.000000 
0.951830 0.017760 0.000000 
0.950731 -0.052488 0.000000 
1.009435 -0.059596 0.000000 
0.891157 -0.039139 0.000000 
0.830318 0.040622 0.000000 
0.923179 0.309961 0.000000 
0.932505 0.234849 0.000000 
0.990337 0.240693 0.000000 
0.814123 0.238765 0.000000 
0.873872 0.234909 0.000000 
0.806674 0.311006 0.000000 
1.006451 0.090418 0.000000 
0.941158 0.161263 0.000000 
0.948064 0.088969 0.000000 
0.627819 0.255608 0.000000 
0.562522 0.326163 0.000000 
0.763627 0.114949 0.000000 
0.695297 0.185777 0.000000 
0.686299 0.319616 0.000000 
0.690948 0.250536 0.000000 
0.753127 0.244512 0.000000 
0.888294 0.094239 0.000000 
0.821147 0.169711 0.000000 
0.826886 0.103736 0.000000 
0.970858 0.393272 0.000000 
0.914055 0.386843 0.000000 
0.899443 0.546965 0.000000 
0.905887 0.465751 0.000000 
0.954791 0.550839 0.000000 
0.857088 0.385144 0.000000 
0.799548 0.386496 0.000000 
0.914883 0.903514 0.000000 
0.901074 0.808486 0.000000 
0.965831 0.892695 0.000000 
0.786907 0.632837 0.000000 
0.842322 0.719901 0.000000 
0.787977 0.721451 0.000000 
0.948952 0.715713 0.000000 
0.895569 0.717772 0.000000 
0.895612 0.630818 0.000000 
0.621772 0.395913 0.000000 
0.561046 0.397951 0.000000 
0.741174 0.389460 0.000000 
0.681886 0.392887 0.000000 
0.675619 0.551281 0.000000 
0.678185 0.470182 0.000000 
0.732763 0.549265 0.000000 
0.844388 0.546313 0.000000 
0.788971 0.547400 0.000000 
0.793422 0.465283 0.000000 
0.937500 1.000000 0.000000 
0.859392 0.905618 0.000000 
0.742135 0.906100 0.000000 
0.801376 0.906016 0.000000 
0.812500 1.000000 0.000000 
0.792798 0.812809 0.000000 
0.732249 0.722625 0.000000 
0.500000 0.906226 0.000000 
0.560921 0.906212 0.000000 
0.562500 1.000000 0.000000 
0.558858 0.724785 0.000000 
0.559649 0.814366 0.000000 
0.500000 0.724953 0.000000 
0.687500 1.000000 0.000000 
0.621692 0.906179 0.000000 
0.682157 0.906140 0.000000 
0.559817 0.474061 0.000000 
0.500000 0.398664 0.000000 
0.674563 0.635880 0.000000 
0.617616 0.553015 0.000000 
0.500000 0.554582 0.000000 
0.558976 0.554174 0.000000 
0.558634 0.637898 0.000000 
0.677901 0.813844 0.000000 
0.617396 0.724309 0.000000 
0.675296 0.723573 0.000000 
0.437500 1.000000 0.000000 
0.439079 0.906212 0.000000 
0.317843 0.906140 0.000000 
0.378308 0.906179 0.000000 
0.312500 1.000000 0.000000 
0.440351 0.814366 0.000000 
0.441142 0.724785 0.000000 
0.085117 0.903514 0.000000 
0.140608 0.905618 0.000000 
0.062500 1.000000 0.000000 
0.267751 0.722625 0.000000 
0.207202 0.812809 0.000000 
0.212023 0.721451 0.000000 
0.187500 1.000000 0.000000 
0.198624 0.906016 0.000000 
0.257865 0.906100 0.000000 
0.440183 0.474061 0.000000 
0.438954 0.397951 0.000000 
0.441366 0.637898 0.000000 
0.441024 0.554174 0.000000 
0.324381 0.551281 0.000000 
0.382384 0.553015 0.000000 
0.325437 0.635880 0.000000 
0.322099 0.813844 0.000000 
0.324704 0.723573 0.000000 
0.382604 0.724309 0.000000 
0.034169 0.892695 0.000000 
0.098926 0.808486 0.000000 
0.104388 0.630818 0.000000 
0.104431 0.717772 0.000000 
0.051048 0.715713 0.000000 
0.157678 0.719901 0.000000 
0.213093 0.632837 0.000000 
0.076821 0.309961 0.000000 
0.085945 0.386843 0.000000 
0.029142 0.393272 0.000000 
0.200452 0.386496 0.000000 
0.142912 0.385144 0.000000 
0.193326 0.311006 0.000000 
0.045209 0.550839 0.000000 
0.094113 0.465751 0.000000 
0.100557 0.546965 0.000000 
0.378228 0.395913 0.000000 
0.437478 0.326163 0.000000 
0.267237 0.549265 0.000000 
0.321815 0.470182 0.000000 
0.313701 0.319616 0.000000 
0.318114 0.392887 0.000000 
0.258826 0.389460 0.000000 
0.155612 0.546313 0.000000 
0.206578 0.465283 0.000000 
0.211029 0.547400 0.000000 
0.009663 0.240693 0.000000 
0.067495 0.234849 0.000000 
0.051936 0.088969 0.000000 
0.058842 0.161263 0.000000 
-0.006451 0.090418 0.000000 
0.126128 0.234909 0.000000 
0.185877 0.238765 0.000000 
0.056947 -0.121686 0.000000 
0.010732 -0.203610 0.000000 
0.169682 0.040622 0.000000 
0.108843 -0.039139 0.000000 
-0.009435 -0.059596 0.000000 
0.049269 -0.052488 0.000000 
0.048170 0.017760 0.000000 
0.372181 0.255608 0.000000 
0.246873 0.244512 0.000000 
0.309052 0.250536 0.000000 
0.304703 0.185777 0.000000 
0.236373 0.114949 0.000000 
0.111706 0.094239 0.000000 
0.173114 0.103736 0.000000 
0.178853 0.169711 0.000000 
0.057351 -0.260866 0.000000 
0.080436 -0.221667 0.000000 
0.049343 -0.229193 0.000000 
0.142910 -0.203011 0.000000 
0.111679 -0.213242 0.000000 
0.121601 -0.244553 0.000000 
0.093259 -0.147637 0.000000 
0.101821 -0.180798 0.000000 
0.122710 -0.137688 0.000000 
0.260846 -0.111149 0.000000 
0.232154 -0.147139 0.000000 
0.258065 -0.178361 0.000000 
0.210809 -0.091089 0.000000 
0.218594 -0.118222 0.000000 
0.242778 -0.071841 0.000000 
0.188782 -0.221090 0.000000 
0.203798 -0.172258 0.000000 
0.173808 -0.189890 0.000000 
0.200858 0.019110 0.000000 
0.201327 -0.009355 0.000000 
0.233243 0.028134 0.000000 
0.145429 -0.093279 0.000000 
0.171676 -0.049893 0.000000 
0.141328 -0.061706 0.000000 
0.235356 -0.024453 0.000000 
0.202930 -0.037108 0.000000 
0.205935 -0.064266 0.000000 
0.161147 -0.157518 0.000000 
0.180912 -0.109588 0.000000 
0.151829 -0.125182 0.000000 
0.500000 -0.078096 0.000000 
0.470883 -0.078123 0.000000 
0.471098 -0.100000 0.000000 
0.469496 -0.033143 0.000000 
0.470297 -0.055780 0.000000 
0.500000 -0.032982 0.000000 
0.413707 -0.100000 0.000000 
0.441826 -0.078232 0.000000 
0.412887 -0.078447 0.000000 
0.466946 0.061150 0.000000 
0.467332 0.036745 0.000000 
0.500000 0.061573 0.000000 
0.405349 -0.012541 0.000000 
0.435669 0.011974 0.000000 
0.403129 0.010086 0.000000 
0.500000 0.013331 0.000000 
0.467910 0.013002 0.000000 
0.468656 -0.010244 0.000000 
0.307635 -0.100000 0.000000 
0.326698 -0.081286 0.000000 
0.295882 -0.086908 0.000000 
0.384114 -0.078838 0.000000 
0.355491 -0.079587 0.000000 
0.357878 -0.100000 0.000000 
0.344558 -0.039805 0.000000 
0.350152 -0.059652 0.000000 
0.376689 -0.036534 0.000000 
0.438884 -0.033668 0.000000 
0.408021 -0.034696 0.000000 
0.410753 -0.056623 0.000000 
[...]
POINT_DATA 16641

SCALARS u_h float 2
LOOKUP_TABLE default
0.026096 -0.268454 
-0.026096 -0.268454 
0.000000 0.000000 
0.000000 0.000000 
-0.000000 -0.100000 
-0.019447 -0.183467 
0.000000 0.000000 
0.019447 -0.183467 
-0.000000 -0.172960 
0.040224 -0.130409 
-0.000000 -0.163196 
-0.016403 -0.193941 
-0.040224 -0.130409 
0.016403 -0.193941 
0.010353 -0.234649 
-0.003002 -0.184912 
-0.049941 -0.117801 
-0.018726 -0.115604 
0.000000 0.000000 
-0.000000 -0.111821 
0.000000 0.000000 
0.018726 -0.115604 
0.049941 -0.117801 
0.003002 -0.184912 
-0.010353 -0.234649 
0.029855 -0.234212 
-0.011764 -0.173905 
-0.008992 -0.229764 
-0.000000 -0.134995 
-0.001980 -0.140090 
0.010484 -0.100000 
-0.005664 -0.182749 
-0.008432 -0.170456 
-0.000000 -0.177224 
-0.010484 -0.100000 
0.001980 -0.140090 
0.008992 -0.229764 
0.011764 -0.173905 
-0.029855 -0.234212 
0.008432 -0.170456 
0.005664 -0.182749 
0.002321 -0.258350 
0.016925 -0.223110 
-0.009662 -0.191255 
0.006856 -0.211526 
-0.000673 -0.209551 
0.008916 -0.197214 
-0.000277 -0.176455 
-0.037985 -0.153713 
-0.025145 -0.160728 
-0.027011 -0.063428 
-0.033469 -0.118536 
-0.046839 -0.072997 
-0.013757 -0.157443 
-0.005692 -0.152501 
0.000000 0.000000 
-0.014059 -0.061574 
-0.000000 -0.060559 
-0.005961 -0.060840 
0.000000 0.000000 
-0.008072 -0.112902 
-0.000000 -0.150389 
0.000000 0.000000 
0.005961 -0.060840 
0.027011 -0.063428 
0.014059 -0.061574 
0.000000 0.000000 
0.008072 -0.112902 
0.005692 -0.152501 
0.046839 -0.072997 
0.033469 -0.118536 
0.009662 -0.191255 
0.025145 -0.160728 
0.037985 -0.153713 
0.013757 -0.157443 
0.000277 -0.176455 
0.000673 -0.209551 
-0.006856 -0.211526 
-0.016925 -0.223110 
-0.002321 -0.258350 
-0.008916 -0.197214 
0.026603 -0.253149 
0.006767 -0.233089 
0.009028 -0.251619 
-0.000317 -0.155318 
0.002378 -0.202907 
0.035767 -0.203613 
-0.017708 -0.207613 
-0.012306 -0.204589 
-0.016229 -0.186229 
-0.000000 -0.118198 
0.003066 -0.118561 
0.004797 -0.100000 
-0.002961 -0.151952 
-0.000338 -0.136037 
-0.000000 -0.150367 
0.018892 -0.100000 
0.005722 -0.120160 
0.005838 -0.126357 
-0.001562 -0.178573 
-0.002951 -0.178629 
-0.000000 -0.177427 
-0.012885 -0.180231 
-0.007756 -0.178942 
-0.011209 -0.187037 
-0.000000 -0.172378 
-0.003910 -0.174016 
-0.004062 -0.164946 
-0.006321 -0.150828 
-0.006819 -0.157370 
-0.011773 -0.168434 
-0.004797 -0.100000 
-0.003066 -0.118561 
-0.005838 -0.126357 
-0.005722 -0.120160 
-0.018892 -0.100000 
0.000338 -0.136037 
0.002961 -0.151952 
-0.009028 -0.251619 
-0.006767 -0.233089 
-0.026603 -0.253149 
0.016229 -0.186229 
0.012306 -0.204589 
0.017708 -0.207613 
-0.035767 -0.203613 
-0.002378 -0.202907 
0.000317 -0.155318 
0.002951 -0.178629 
0.001562 -0.178573 
0.004062 -0.164946 
0.003910 -0.174016 
0.011209 -0.187037 
0.007756 -0.178942 
0.012885 -0.180231 
0.006321 -0.150828 
0.011773 -0.168434 
0.006819 -0.157370 
-0.010732 -0.266110 
0.005553 -0.246686 
0.014330 -0.232240 
0.013231 -0.239988 
0.009435 -0.247096 
0.016157 -0.226639 
0.017818 -0.209378 
-0.014321 -0.190039 
-0.004995 -0.202651 
-0.009663 -0.196807 
0.001623 -0.198735 
-0.001128 -0.202591 
-0.005826 -0.188994 
0.006451 -0.222082 
0.003658 -0.213737 
0.010564 -0.223531 
0.002819 -0.181892 
0.000022 -0.173837 
0.013627 -0.197551 
0.007797 -0.189223 
-0.001201 -0.180384 
0.003448 -0.186964 
0.003127 -0.192988 
0.013294 -0.218261 
0.008647 -0.205289 
0.014386 -0.208764 
-0.029142 -0.169228 
-0.023445 -0.175657 
-0.038057 -0.140535 
-0.031613 -0.159249 
-0.045209 -0.136661 
-0.017912 -0.177356 
-0.012952 -0.176004 
-0.022617 -0.033986 
-0.036426 -0.066514 
-0.034169 -0.044805 
-0.025593 -0.117163 
-0.032678 -0.092599 
-0.024523 -0.091049 
-0.051048 -0.096787 
-0.041931 -0.094728 
-0.041888 -0.119182 
-0.003228 -0.166587 
-0.001454 -0.164549 
-0.008826 -0.173040 
-0.005614 -0.169613 
-0.011881 -0.136219 
-0.009315 -0.154818 
-0.017237 -0.138235 
-0.030612 -0.141187 
-0.023529 -0.140100 
-0.019078 -0.159717 
0.000000 0.000000 
-0.015608 -0.031882 
-0.007865 -0.031400 
-0.011124 -0.031484 
0.000000 0.000000 
-0.019702 -0.062191 
-0.017751 -0.089875 
-0.000000 -0.031274 
-0.001579 -0.031288 
0.000000 0.000000 
-0.003642 -0.087715 
-0.002851 -0.060634 
-0.000000 -0.087547 
0.000000 0.000000 
-0.003308 -0.031321 
-0.005343 -0.031360 
-0.002683 -0.150939 
-0.000000 -0.163836 
-0.012937 -0.114120 
-0.007384 -0.134485 
-0.000000 -0.132918 
-0.003524 -0.133326 
-0.003866 -0.112102 
-0.009599 -0.061156 
-0.007604 -0.088191 
-0.012204 -0.088927 
0.000000 0.000000 
0.001579 -0.031288 
0.005343 -0.031360 
0.003308 -0.031321 
0.000000 0.000000 
0.002851 -0.060634 
0.003642 -0.087715 
0.022617 -0.033986 
0.015608 -0.031882 
0.000000 0.000000 
0.017751 -0.089875 
0.019702 -0.062191 
0.024523 -0.091049 
0.000000 0.000000 
0.011124 -0.031484 
0.007865 -0.031400 
0.002683 -0.150939 
0.001454 -0.164549 
0.003866 -0.112102 
0.003524 -0.133326 
0.011881 -0.136219 
0.007384 -0.134485 
0.012937 -0.114120 
0.009599 -0.061156 
0.012204 -0.088927 
0.007604 -0.088191 
0.034169 -0.044805 
0.036426 -0.066514 
0.041888 -0.119182 
0.041931 -0.094728 
0.051048 -0.096787 
0.032678 -0.092599 
0.025593 -0.117163 
0.014321 -0.190039 
0.023445 -0.175657 
0.029142 -0.169228 
0.012952 -0.176004 
0.017912 -0.177356 
0.005826 -0.188994 
0.045209 -0.136661 
0.031613 -0.159249 
0.038057 -0.140535 
0.003228 -0.166587 
-0.000022 -0.173837 
0.017237 -0.138235 
0.009315 -0.154818 
0.001201 -0.180384 
0.005614 -0.169613 
0.008826 -0.173040 
0.030612 -0.141187 
0.019078 -0.159717 
0.023529 -0.140100 
0.009663 -0.196807 
0.004995 -0.202651 
-0.010564 -0.223531 
-0.003658 -0.213737 
-0.006451 -0.222082 
0.001128 -0.202591 
-0.001623 -0.198735 
-0.005553 -0.246686 
0.010732 -0.266110 
-0.017818 -0.209378 
-0.016157 -0.226639 
-0.009435 -0.247096 
-0.013231 -0.239988 
-0.014330 -0.232240 
-0.002819 -0.181892 
-0.003127 -0.192988 
-0.003448 -0.186964 
-0.007797 -0.189223 
-0.013627 -0.197551 
-0.013294 -0.218261 
-0.014386 -0.208764 
-0.008647 -0.205289 
0.026101 -0.260866 
0.017936 -0.252917 
0.018093 -0.260443 
0.017910 -0.234261 
0.017929 -0.244492 
0.027851 -0.244553 
-0.000491 -0.241387 
0.008071 -0.243298 
-0.002290 -0.231438 
0.010846 -0.142399 
0.013404 -0.178389 
0.039315 -0.178361 
-0.007941 -0.184839 
-0.000156 -0.180722 
-0.007222 -0.165591 
0.032532 -0.221090 
0.016298 -0.203508 
0.017558 -0.221140 
-0.017892 -0.199640 
-0.017423 -0.196855 
-0.016757 -0.190616 
-0.010821 -0.218279 
-0.015824 -0.206143 
-0.014922 -0.217956 
-0.014644 -0.180703 
-0.015820 -0.193358 
-0.012815 -0.189266 
0.004897 -0.220018 
-0.006588 -0.203338 
-0.004421 -0.218932 
-0.000000 -0.109346 
0.002133 -0.109373 
0.002348 -0.100000 
0.000746 -0.126893 
0.001547 -0.118280 
-0.000000 -0.126732 
0.007457 -0.100000 
0.004326 -0.109482 
0.006637 -0.109697 
-0.001804 -0.157600 
-0.001418 -0.150755 
-0.000000 -0.157177 
-0.000901 -0.137541 
-0.001831 -0.144276 
-0.003121 -0.146164 
-0.000000 -0.142919 
-0.000840 -0.143248 
-0.000094 -0.135244 
0.026385 -0.100000 
0.014198 -0.112536 
0.014632 -0.118158 
0.009114 -0.110088 
0.011741 -0.110837 
0.014128 -0.100000 
0.000808 -0.133555 
0.006402 -0.122152 
0.001689 -0.130284 
0.001384 -0.127418 
0.001771 -0.128446 
0.004503 -0.119123 
-0.000420 -0.176020 
-0.000800 -0.177715 
-0.000000 -0.175767 
-0.004355 -0.180363 
-0.002291 -0.179189 
-0.003350 -0.180757 
-0.000000 -0.177914 
-0.001162 -0.178235 
-0.001489 -0.177577 
-0.014846 -0.186684 
-0.012322 -0.184228 
-0.014006 -0.189941 
-0.008321 -0.175283 
-0.010388 -0.179306 
-0.010695 -0.174795 
-0.008347 -0.184756 
-0.009566 -0.182620 
-0.006841 -0.181431 
-0.000000 -0.168296 
-0.002046 -0.168725 
-0.002006 -0.163631 
-0.001761 -0.175754 
-0.001955 -0.172788 
-0.000000 -0.175369 
-0.006205 -0.167196 
-0.004114 -0.170014 
-0.006212 -0.172190 
-0.005210 -0.178798 
-0.005853 -0.176067 
-0.003505 -0.176899 
0.003109 -0.135949 
-0.003769 -0.144246 
-0.001237 -0.139454 
-0.004366 -0.149764 
-0.009287 -0.160668 
-0.003695 -0.158889 
-0.007974 -0.164476 
-0.005742 -0.161136 
-0.004736 -0.154086 
-0.004845 -0.149199 
-0.014976 -0.182254 
-0.012434 -0.169450 
-0.014239 -0.176559 
-0.012759 -0.174994 
-0.010355 -0.169060 
-0.007073 -0.153795 
-0.009207 -0.162070 
-0.009718 -0.160433 
-0.002348 -0.100000 
-0.002133 -0.109373 
-0.006637 -0.109697 
-0.004326 -0.109482 
-0.007457 -0.100000 
-0.001547 -0.118280 
-0.000746 -0.126893 
-0.014632 -0.118158 
-0.014198 -0.112536 
-0.026385 -0.100000 
-0.001689 -0.130284 
-0.006402 -0.122152 
-0.000808 -0.133555 
-0.014128 -0.100000 
-0.011741 -0.110837 
-0.009114 -0.110088 
0.001418 -0.150755 
0.001804 -0.157600 
0.000094 -0.135244 
0.000840 -0.143248 
0.003121 -0.146164 
0.001831 -0.144276 
0.000901 -0.137541 
-0.004503 -0.119123 
-0.001771 -0.128446 
-0.001384 -0.127418 
-0.018093 -0.260443 
-0.017936 -0.252917 
-0.026101 -0.260866 
0.002290 -0.231438 
-0.008071 -0.243298 
0.000491 -0.241387 
-0.027851 -0.244553 
-0.017929 -0.244492 
-0.017910 -0.234261 
0.016757 -0.190616 
0.017423 -0.196855 
0.017892 -0.199640 
0.012815 -0.189266 
0.015820 -0.193358 
0.014644 -0.180703 
0.014922 -0.217956 
0.015824 -0.206143 
0.010821 -0.218279 
-0.039315 -0.178361 
-0.013404 -0.178389 
-0.010846 -0.142399 
-0.017558 -0.221140 
-0.016298 -0.203508 
-0.032532 -0.221090 
0.007222 -0.165591 
0.000156 -0.180722 
0.007941 -0.184839 
0.004421 -0.218932 
0.006588 -0.203338 
-0.004897 -0.220018 
0.000800 -0.177715 
0.000420 -0.176020 
0.001489 -0.177577 
0.001162 -0.178235 
0.003350 -0.180757 
0.002291 -0.179189 
0.004355 -0.180363 
0.002006 -0.163631 
0.002046 -0.168725 
0.006212 -0.172190 
0.004114 -0.170014 
0.006205 -0.167196 
0.001955 -0.172788 
0.001761 -0.175754 
0.014006 -0.189941 
0.012322 -0.184228 
0.014846 -0.186684 
0.006841 -0.181431 
0.009566 -0.182620 
0.008347 -0.184756 
0.010695 -0.174795 
0.010388 -0.179306 
0.008321 -0.175283 
0.003505 -0.176899 
0.005853 -0.176067 
0.005210 -0.178798 
-0.003109 -0.135949 
0.009287 -0.160668 
0.004366 -0.149764 
0.001237 -0.139454 
0.003769 -0.144246 
0.014976 -0.182254 
0.010355 -0.169060 
0.012759 -0.174994 
0.014239 -0.176559 
0.012434 -0.169450 
0.003695 -0.158889 
0.004845 -0.149199 
0.004736 -0.154086 
0.005742 -0.161136 
0.007974 -0.164476 
0.009718 -0.160433 
0.009207 -0.162070 
0.007073 -0.153795 
-0.018446 -0.267929 
-0.009852 -0.258920 
0.004007 -0.252933 
-0.002264 -0.256355 
-0.003604 -0.262842 
-0.000980 -0.249459 
0.007194 -0.239115 
0.012528 -0.234422 
0.012732 -0.239488 
0.010598 -0.240926 
0.016001 -0.231349 
0.014505 -0.236232 
0.015802 -0.228388 
0.006699 -0.252990 
0.011492 -0.244333 
0.008617 -0.248863 
0.018295 -0.208745 
0.017416 -0.201652 
0.013516 -0.228187 
0.017206 -0.217722 
0.017629 -0.216665 
0.018021 -0.217350 
0.017206 -0.224990 
0.010294 -0.243491 
0.014788 -0.234090 
0.011922 -0.236668 
-0.016855 -0.187549 
-0.012021 -0.194227 
-0.014514 -0.190238 
-0.007402 -0.197469 
-0.009631 -0.196551 
-0.011907 -0.191195 
-0.005008 -0.203228 
-0.007255 -0.200605 
-0.002669 -0.206718 
-0.000874 -0.191981 
-0.002097 -0.194267 
-0.004282 -0.187087 
0.002990 -0.207347 
0.000399 -0.201012 
0.004284 -0.205233 
-0.007625 -0.190450 
-0.003604 -0.196090 
-0.005381 -0.197234 
0.008901 -0.228356 
0.008670 -0.223815 
0.011099 -0.229191 
0.001612 -0.212602 
0.005446 -0.218292 
0.003200 -0.215822 
0.009050 -0.217631 
0.007408 -0.218782 
0.005419 -0.213277 
-0.002938 -0.203223 
0.001377 -0.208484 
-0.000523 -0.208370 
0.000797 -0.176785 
0.000032 -0.173158 
0.004301 -0.182899 
0.002248 -0.179979 
-0.000068 -0.174950 
0.001095 -0.178038 
0.001275 -0.179738 
0.015315 -0.196245 
0.012592 -0.192076 
0.008511 -0.193104 
0.010725 -0.193123 
0.011456 -0.197871 
0.009665 -0.188694 
0.006829 -0.185730 
-0.001979 -0.182631 
0.000723 -0.186785 
0.000063 -0.189428 
0.001298 -0.181822 
0.001125 -0.184207 
-0.000643 -0.178292 
0.006108 -0.195585 
0.003424 -0.189924 
0.006047 -0.192034 
0.005099 -0.185557 
0.005697 -0.188641 
0.003232 -0.184249 
0.012941 -0.228011 
0.010340 -0.215153 
0.012114 -0.221576 
0.014432 -0.225148 
0.015551 -0.220894 
0.002532 -0.195989 
0.008970 -0.201353 
0.005845 -0.199112 
0.005239 -0.202405 
0.007940 -0.208770 
0.016152 -0.202851 
0.016247 -0.215540 
0.016462 -0.209407 
0.014239 -0.203212 
0.011805 -0.202717 
0.011244 -0.211644 
0.011737 -0.207402 
0.014064 -0.213887 
-0.024354 -0.176493 
-0.021646 -0.180534 
-0.030733 -0.165345 
-0.026303 -0.173145 
-0.033717 -0.161646 
-0.018957 -0.183085 
-0.016347 -0.184377 
-0.044253 -0.129302 
-0.041713 -0.139117 
-0.047949 -0.127476 
-0.028357 -0.160390 
-0.035101 -0.150199 
-0.031613 -0.151119 
-0.041850 -0.145396 
-0.038539 -0.148368 
-0.034844 -0.157098 
-0.009473 -0.182908 
-0.007610 -0.181308 
-0.013869 -0.184636 
-0.011567 -0.184079 
-0.018859 -0.169093 
-0.015340 -0.176965 
-0.021701 -0.169394 
-0.027695 -0.167723 
-0.024664 -0.169002 
-0.020630 -0.176989 
-0.015584 -0.018795 
-0.027932 -0.037474 
-0.022347 -0.027295 
-0.031455 -0.064619 
-0.030769 -0.050773 
-0.026002 -0.048855 
-0.041876 -0.059649 
-0.036268 -0.054240 
-0.041716 -0.069341 
-0.022022 -0.116388 
-0.025495 -0.104485 
-0.021879 -0.103775 
-0.033603 -0.105985 
-0.029413 -0.105226 
-0.029423 -0.117896 
-0.026356 -0.077549 
-0.028429 -0.091761 
-0.030531 -0.078394 
-0.051035 -0.107592 
-0.046881 -0.107763 
-0.046027 -0.118872 
-0.045010 -0.083140 
-0.046623 -0.095891 
-0.049752 -0.085300 
-0.037659 -0.119006 
-0.042474 -0.107378 
-0.037995 -0.106729 
-0.035116 -0.079557 
-0.037217 -0.093592 
-0.040017 -0.081140 
-0.000738 -0.169750 
-0.000350 -0.169148 
-0.001794 -0.172063 
-0.001206 -0.170735 
-0.003264 -0.159029 
-0.002281 -0.165417 
-0.004539 -0.160055 
-0.005990 -0.179447 
-0.004612 -0.177472 
-0.009399 -0.164203 
-0.007107 -0.171324 
-0.011438 -0.165701 
-0.003468 -0.175513 
-0.002537 -0.173680 
-0.015318 -0.126440 
-0.014443 -0.137215 
-0.018263 -0.127331 
-0.007411 -0.153588 
-0.010765 -0.145977 
-0.008614 -0.144907 
-0.015713 -0.148281 
-0.013127 -0.147123 
-0.011426 -0.156128 
-0.004328 -0.168007 
-0.007581 -0.162707 
-0.005968 -0.161300 
-0.040363 -0.130213 
-0.032427 -0.130263 
-0.036386 -0.130467 
-0.034327 -0.141157 
-0.028149 -0.151334 
-0.021460 -0.128215 
-0.018526 -0.149378 
-0.020269 -0.139220 
-0.024906 -0.129042 
-0.028577 -0.129752 
-0.010776 -0.174645 
-0.022035 -0.160449 
-0.016182 -0.168276 
-0.013702 -0.167099 
-0.016311 -0.158675 
-0.026992 -0.140791 
-0.021556 -0.150326 
-0.024778 -0.151020 
0.000000 0.000000 
-0.011897 -0.016698 
-0.008080 -0.015858 
-0.009678 -0.016070 
0.000000 0.000000 
-0.018648 -0.032512 
-0.022021 -0.047843 
-0.004069 -0.015824 
-0.004855 -0.015804 
0.000000 0.000000 
-0.013383 -0.046808 
-0.009381 -0.031429 
-0.011236 -0.046675 
0.000000 0.000000 
-0.005758 -0.015789 
-0.006813 -0.015795 
-0.020969 -0.090428 
-0.018570 -0.103099 
-0.023113 -0.062681 
-0.022604 -0.076918 
-0.016245 -0.076005 
-0.019247 -0.076420 
-0.016705 -0.061843 
-0.013163 -0.031606 
-0.015839 -0.046997 
-0.018681 -0.047302 
0.000000 -0.015872 
-0.000402 -0.015873 
0.000000 0.000000 
-0.001120 -0.046192 
-0.000780 -0.031278 
-0.000000 -0.046181 
0.000000 0.000000 
-0.000814 -0.015873 
-0.001246 -0.015872 
-0.001892 -0.100110 
-0.001801 -0.087591 
-0.000000 -0.100052 
-0.004357 -0.060722 
-0.003314 -0.074483 
-0.005063 -0.074624 
-0.000000 -0.074365 
-0.001638 -0.074396 
-0.001409 -0.060579 
0.000000 0.000000 
-0.002761 -0.015855 
-0.003377 -0.015842 
-0.001707 -0.015870 
-0.002209 -0.015865 
0.000000 0.000000 
-0.006128 -0.046397 
-0.004277 -0.031341 
-0.004743 -0.046325 
-0.002266 -0.046220 
-0.003465 -0.046266 
-0.002415 -0.031303 
-0.000708 -0.164016 
-0.000000 -0.168949 
-0.004127 -0.151605 
-0.002109 -0.158266 
-0.000000 -0.157637 
-0.001034 -0.157797 
-0.001321 -0.150528 
-0.015703 -0.114839 
-0.012619 -0.125584 
-0.007866 -0.124113 
-0.010144 -0.124799 
-0.010404 -0.113467 
-0.009537 -0.135295 
-0.006650 -0.143963 
-0.000000 -0.122795 
-0.001860 -0.122883 
-0.001912 -0.111893 
-0.001559 -0.142254 
-0.001741 -0.133022 
-0.000000 -0.142133 
-0.005906 -0.112442 
-0.003763 -0.123139 
-0.005752 -0.123553 
-0.004844 -0.143187 
-0.005392 -0.133820 
-0.003160 -0.142610 
-0.006530 -0.031379 
-0.007697 -0.060986 
-0.007650 -0.046478 
-0.009340 -0.046569 
-0.011706 -0.061350 
-0.003827 -0.100275 
-0.007988 -0.100908 
-0.005845 -0.100544 
-0.005563 -0.087917 
-0.006924 -0.074815 
-0.015553 -0.102464 
-0.013554 -0.075646 
-0.014841 -0.089376 
-0.012805 -0.101880 
-0.010295 -0.101357 
-0.008933 -0.075051 
-0.009805 -0.088530 
-0.011130 -0.075329 
0.000000 0.000000 
0.000402 -0.015873 
0.001246 -0.015872 
0.000814 -0.015873 
0.000000 0.000000 
0.000780 -0.031278 
0.001120 -0.046192 
0.003377 -0.015842 
0.002761 -0.015855 
0.000000 0.000000 
0.004743 -0.046325 
0.004277 -0.031341 
0.006128 -0.046397 
0.000000 0.000000 
0.002209 -0.015865 
0.001707 -0.015870 
0.001801 -0.087591 
0.001892 -0.100110 
0.001409 -0.060579 
0.001638 -0.074396 
0.005063 -0.074624 
0.003314 -0.074483 
0.004357 -0.060722 
0.002415 -0.031303 
0.003465 -0.046266 
0.002266 -0.046220 
0.015584 -0.018795 
0.011897 -0.016698 
0.000000 0.000000 
0.022021 -0.047843 
0.018648 -0.032512 
0.026002 -0.048855 
0.000000 0.000000 
0.009678 -0.016070 
0.008080 -0.015858 
0.018570 -0.103099 
0.020969 -0.090428 
0.021879 -0.103775 
0.016705 -0.061843 
0.019247 -0.076420 
0.016245 -0.076005 
0.026356 -0.077549 
0.022604 -0.076918 
0.023113 -0.062681 
0.000000 0.000000 
0.004855 -0.015804 
0.004069 -0.015824 
0.006813 -0.015795 
0.005758 -0.015789 
0.000000 0.000000 
0.011236 -0.046675 
0.009381 -0.031429 
0.013383 -0.046808 
0.018681 -0.047302 
0.015839 -0.046997 
0.013163 -0.031606 
0.000708 -0.164016 
0.000350 -0.169148 
0.001321 -0.150528 
0.001034 -0.157797 
0.003264 -0.159029 
0.002109 -0.158266 
0.004127 -0.151605 
0.001912 -0.111893 
0.001860 -0.122883 
0.005752 -0.123553 
0.003763 -0.123139 
0.005906 -0.112442 
0.001741 -0.133022 
0.001559 -0.142254 
0.015318 -0.126440 
0.012619 -0.125584 
0.015703 -0.114839 
0.006650 -0.143963 
0.009537 -0.135295 
0.008614 -0.144907 
0.010404 -0.113467 
0.010144 -0.124799 
0.007866 -0.124113 
0.003160 -0.142610 
0.005392 -0.133820 
0.004844 -0.143187 
0.006530 -0.031379 
0.011706 -0.061350 
0.009340 -0.046569 
0.007650 -0.046478 
0.007697 -0.060986 
0.015553 -0.102464 
0.010295 -0.101357 
0.012805 -0.101880 
0.014841 -0.089376 
0.013554 -0.075646 
0.003827 -0.100275 
0.006924 -0.074815 
0.005563 -0.087917 
0.005845 -0.100544 
0.007988 -0.100908 
0.011130 -0.075329 
0.009805 -0.088530 
0.008933 -0.075051 
0.022347 -0.027295 
0.027932 -0.037474 
0.041716 -0.069341 
0.036268 -0.054240 
0.041876 -0.059649 
0.030769 -0.050773 
0.031455 -0.064619 
0.046027 -0.118872 
0.046881 -0.107763 
0.051035 -0.107592 
0.037995 -0.106729 
0.042474 -0.107378 
0.037659 -0.119006 
0.049752 -0.085300 
0.046623 -0.095891 
0.045010 -0.083140 
0.025495 -0.104485 
0.022022 -0.116388 
0.030531 -0.078394 
0.028429 -0.091761 
0.029423 -0.117896 
0.029413 -0.105226 
0.033603 -0.105985 
0.040017 -0.081140 
0.037217 -0.093592 
0.035116 -0.079557 
0.016855 -0.187549 
0.021646 -0.180534 
0.024354 -0.176493 
0.016347 -0.184377 
0.018957 -0.183085 
0.011907 -0.191195 
0.033717 -0.161646 
0.026303 -0.173145 
0.030733 -0.165345 
0.007610 -0.181308 
0.009473 -0.182908 
0.004282 -0.187087 
0.021701 -0.169394 
0.015340 -0.176965 
0.018859 -0.169093 
0.007625 -0.190450 
0.011567 -0.184079 
0.013869 -0.184636 
0.047949 -0.127476 
0.041713 -0.139117 
0.044253 -0.129302 
0.034844 -0.157098 
0.038539 -0.148368 
0.041850 -0.145396 
0.031613 -0.151119 
0.035101 -0.150199 
0.028357 -0.160390 
0.020630 -0.176989 
0.024664 -0.169002 
0.027695 -0.167723 
0.000738 -0.169750 
-0.000032 -0.173158 
0.004539 -0.160055 
0.002281 -0.165417 
0.000068 -0.174950 
0.001206 -0.170735 
0.001794 -0.172063 
0.018263 -0.127331 
0.014443 -0.137215 
0.011426 -0.156128 
0.013127 -0.147123 
0.015713 -0.148281 
0.010765 -0.145977 
0.007411 -0.153588 
0.001979 -0.182631 
0.004612 -0.177472 
0.005990 -0.179447 
0.002537 -0.173680 
0.003468 -0.175513 
0.000643 -0.178292 
0.011438 -0.165701 
0.007107 -0.171324 