# vtk DataFile Version 2.0
Unstructured Grid Example
ASCII
DATASET UNSTRUCTURED_GRID

POINTS 1089 float
0.027373 -0.275422 0.000000 
0.972627 -0.275422 0.000000 
1.000000 1.000000 0.000000 
0.000000 1.000000 0.000000 
0.500000 -0.100000 0.000000 
0.979474 0.312560 0.000000 
0.500000 1.000000 0.000000 
0.020526 0.312560 0.000000 
0.500000 0.324543 0.000000 
0.286246 -0.160990 0.000000 
0.500000 0.085215 0.000000 
0.233574 0.050631 0.000000 
0.713754 -0.160990 0.000000 
0.766426 0.050631 0.000000 
1.008260 0.008874 0.000000 
0.746902 0.312195 0.000000 
0.949638 0.630170 0.000000 
0.731284 0.633086 0.000000 
0.750000 1.000000 0.000000 
0.500000 0.637136 0.000000 
0.250000 1.000000 0.000000 
0.268716 0.633086 0.000000 
0.050362 0.630170 0.000000 
0.253098 0.312195 0.000000 
-0.008260 0.008874 0.000000 
0.155356 -0.242393 0.000000 
0.238325 -0.058097 0.000000 
0.118100 -0.112833 0.000000 
0.500000 -0.010484 0.000000 
0.372540 -0.017061 0.000000 
0.388356 -0.100000 0.000000 
0.369054 0.189511 0.000000 
0.365995 0.076678 0.000000 
0.500000 0.195587 0.000000 
0.611644 -0.100000 0.000000 
0.627460 -0.017061 0.000000 
0.881900 -0.112833 0.000000 
0.761675 -0.058097 0.000000 
0.844644 -0.242393 0.000000 
0.634005 0.076678 0.000000 
0.630946 0.189511 0.000000 
1.000448 -0.139689 0.000000 
0.890412 0.020364 0.000000 
0.864758 0.305191 0.000000 
0.881012 0.158620 0.000000 
0.997842 0.159950 0.000000 
0.758871 0.173880 0.000000 
0.624840 0.321225 0.000000 
0.961319 0.468273 0.000000 
0.849492 0.461763 0.000000 
0.848203 0.810936 0.000000 
0.841396 0.629916 0.000000 
0.953256 0.801132 0.000000 
0.736138 0.465485 0.000000 
0.619291 0.470727 0.000000 
0.875000 1.000000 0.000000 
0.736043 0.812805 0.000000 
0.500000 0.813943 0.000000 
0.619084 0.813586 0.000000 
0.625000 1.000000 0.000000 
0.616951 0.635937 0.000000 
0.500000 0.472944 0.000000 
0.375000 1.000000 0.000000 
0.380916 0.813586 0.000000 
0.151797 0.810936 0.000000 
0.263957 0.812805 0.000000 
0.125000 1.000000 0.000000 
0.383049 0.635937 0.000000 
0.380709 0.470727 0.000000 
0.046744 0.801132 0.000000 
0.158604 0.629916 0.000000 
0.135242 0.305191 0.000000 
0.150508 0.461763 0.000000 
0.038681 0.468273 0.000000 
0.263862 0.465485 0.000000 
0.375160 0.321225 0.000000 
0.002158 0.159950 0.000000 
0.118988 0.158620 0.000000 
0.109588 0.020364 0.000000 
-0.000448 -0.139689 0.000000 
0.241129 0.173880 0.000000 
0.090194 -0.260411 0.000000 
0.133208 -0.178644 0.000000 
0.072822 -0.196173 0.000000 
0.250828 -0.108244 0.000000 
0.192167 -0.151432 0.000000 
0.222053 -0.214175 0.000000 
0.171029 -0.027962 0.000000 
0.177142 -0.089324 0.000000 
0.233718 -0.005472 0.000000 
0.500000 -0.055854 0.000000 
0.441131 -0.056217 0.000000 
0.443417 -0.100000 0.000000 
0.434219 0.034040 0.000000 
0.437106 -0.011835 0.000000 
0.500000 0.036085 0.000000 
0.338388 -0.100000 0.000000 
0.381540 -0.058271 0.000000 
0.317688 -0.067727 0.000000 
0.435780 0.256592 0.000000 
0.434348 0.194017 0.000000 
0.500000 0.257757 0.000000 
0.299087 0.065688 0.000000 
0.366835 0.130701 0.000000 
0.300958 0.121793 0.000000 
0.500000 0.138152 0.000000 
0.433324 0.136227 0.000000 
0.433104 0.083057 0.000000 
0.305079 -0.030633 0.000000 
0.367482 0.027471 0.000000 
0.299926 0.014556 0.000000 
0.556583 -0.100000 0.000000 
0.558869 -0.056217 0.000000 
0.682312 -0.067727 0.000000 
0.618460 -0.058271 0.000000 
0.661612 -0.100000 0.000000 
0.562894 -0.011835 0.000000 
0.565781 0.034040 0.000000 
0.927178 -0.196173 0.000000 
0.866792 -0.178644 0.000000 
0.909806 -0.260411 0.000000 
0.766282 -0.005472 0.000000 
0.822858 -0.089324 0.000000 
0.828971 -0.027962 0.000000 
0.777947 -0.214175 0.000000 
0.807833 -0.151432 0.000000 
0.749172 -0.108244 0.000000 
0.565652 0.194017 0.000000 
0.564220 0.256592 0.000000 
0.566896 0.083057 0.000000 
0.566676 0.136227 0.000000 
0.699042 0.121793 0.000000 
0.633165 0.130701 0.000000 
0.700913 0.065688 0.000000 
0.694921 -0.030633 0.000000 
0.700074 0.014556 0.000000 
0.632518 0.027471 0.000000 
0.987969 -0.210022 0.000000 
0.941130 -0.128712 0.000000 
0.949932 0.011386 0.000000 
0.948610 -0.059309 0.000000 
1.007246 -0.066117 0.000000 
0.889241 -0.046578 0.000000 
0.829497 0.034257 0.000000 
0.922339 0.306130 0.000000 
0.931551 0.230379 0.000000 
0.989095 0.235922 0.000000 
0.813776 0.234961 0.000000 
0.873212 0.230739 0.000000 
0.806354 0.307772 0.000000 
1.004655 0.084315 0.000000 
0.939966 0.156131 0.000000 
0.946534 0.083185 0.000000 
0.628009 0.253053 0.000000 
0.562617 0.323953 0.000000 
0.763610 0.110391 0.000000 
0.695503 0.182489 0.000000 
0.686354 0.317045 0.000000 
0.691065 0.247610 0.000000 
0.753058 0.241143 0.000000 
0.887161 0.088602 0.000000 
0.820717 0.165248 0.000000 
0.826306 0.098454 0.000000 
0.970007 0.389752 0.000000 
0.913388 0.383570 0.000000 
0.899030 0.544723 0.000000 
0.905356 0.462999 0.000000 
0.954224 0.548324 0.000000 
0.856624 0.382133 0.000000 
0.799275 0.383758 0.000000 
0.915420 0.903362 0.000000 
0.901293 0.807828 0.000000 
0.966295 0.893077 0.000000 
0.786866 0.631421 0.000000 
0.842353 0.718823 0.000000 
0.788049 0.720447 0.000000 
0.948737 0.714193 0.000000 
0.895496 0.716577 0.000000 
0.895339 0.629092 0.000000 
0.621780 0.393854 0.000000 
0.561035 0.395958 0.000000 
0.741053 0.386991 0.000000 
0.681862 0.390655 0.000000 
0.675603 0.549720 0.000000 
0.678145 0.468285 0.000000 
0.732705 0.547578 0.000000 
0.844126 0.544286 0.000000 
0.788831 0.545557 0.000000 
0.793207 0.463001 0.000000 
0.937500 1.000000 0.000000 
0.859630 0.905318 0.000000 
0.742206 0.905788 0.000000 
0.801496 0.905697 0.000000 
0.812500 1.000000 0.000000 
0.792949 0.812174 0.000000 
0.732323 0.721673 0.000000 
0.500000 0.905979 0.000000 
0.560938 0.905939 0.000000 
0.562500 1.000000 0.000000 
0.558880 0.723965 0.000000 
0.559673 0.813823 0.000000 
0.500000 0.724191 0.000000 
0.687500 1.000000 0.000000 
0.621722 0.905890 0.000000 
0.682203 0.905838 0.000000 
0.559801 0.472357 0.000000 
0.500000 0.396637 0.000000 
0.674589 0.634653 0.000000 
0.617613 0.551548 0.000000 
0.500000 0.553238 0.000000 
0.558972 0.552773 0.000000 
0.558645 0.636793 0.000000 
0.677970 0.813245 0.000000 
0.617438 0.723446 0.000000 
0.675357 0.722667 0.000000 
0.437500 1.000000 0.000000 
0.439062 0.905939 0.000000 
0.317797 0.905838 0.000000 
0.378278 0.905890 0.000000 
0.312500 1.000000 0.000000 
0.440327 0.813823 0.000000 
0.441120 0.723965 0.000000 
0.084580 0.903362 0.000000 
0.140370 0.905318 0.000000 
0.062500 1.000000 0.000000 
0.267677 0.721673 0.000000 
0.207051 0.812174 0.000000 
0.211951 0.720447 0.000000 
0.187500 1.000000 0.000000 
0.198504 0.905697 0.000000 
0.257794 0.905788 0.000000 
0.440199 0.472357 0.000000 
0.438965 0.395958 0.000000 
0.441355 0.636793 0.000000 
0.441028 0.552773 0.000000 
0.324397 0.549720 0.000000 
0.382387 0.551548 0.000000 
0.325411 0.634653 0.000000 
0.322030 0.813245 0.000000 
0.324643 0.722667 0.000000 
0.382562 0.723446 0.000000 
0.033705 0.893077 0.000000 
0.098707 0.807828 0.000000 
0.104661 0.629092 0.000000 
0.104504 0.716577 0.000000 
0.051263 0.714193 0.000000 
0.157647 0.718823 0.000000 
0.213134 0.631421 0.000000 
0.077661 0.306130 0.000000 
0.086612 0.383570 0.000000 
0.029993 0.389752 0.000000 
0.200725 0.383758 0.000000 
0.143376 0.382133 0.000000 
0.193646 0.307772 0.000000 
0.045776 0.548324 0.000000 
0.094644 0.462999 0.000000 
0.100970 0.544723 0.000000 
0.378220 0.393854 0.000000 
0.437383 0.323953 0.000000 
0.267295 0.547578 0.000000 
0.321855 0.468285 0.000000 
0.313646 0.317045 0.000000 
0.318138 0.390655 0.000000 
0.258947 0.386991 0.000000 
0.155874 0.544286 0.000000 
0.206793 0.463001 0.000000 
0.211169 0.545557 0.000000 
0.010905 0.235922 0.000000 
0.068449 0.230379 0.000000 
0.053466 0.083185 0.000000 
0.060034 0.156131 0.000000 
-0.004655 0.084315 0.000000 
0.126788 0.230739 0.000000 
0.186224 0.234961 0.000000 
0.058870 -0.128712 0.000000 
0.012031 -0.210022 0.000000 
0.170503 0.034257 0.000000 
0.110759 -0.046578 0.000000 
-0.007246 -0.066117 0.000000 
0.051390 -0.059309 0.000000 
0.050068 0.011386 0.000000 
0.371991 0.253053 0.000000 
0.246942 0.241143 0.000000 
0.308935 0.247610 0.000000 
0.304497 0.182489 0.000000 
0.236390 0.110391 0.000000 
0.112839 0.088602 0.000000 
0.173694 0.098454 0.000000 
0.179283 0.165248 0.000000 
0.058549 -0.267848 0.000000 
0.081498 -0.228782 0.000000 
0.050474 -0.236053 0.000000 
0.143709 -0.211006 0.000000 
0.112619 -0.220709 0.000000 
0.122477 -0.252195 0.000000 
0.094988 -0.155110 0.000000 
0.103144 -0.188235 0.000000 
0.124620 -0.145826 0.000000 
0.263375 -0.133667 0.000000 
0.234378 -0.162053 0.000000 
0.254919 -0.192598 0.000000 
0.212710 -0.103054 0.000000 
0.221218 -0.132141 0.000000 
0.243180 -0.083326 0.000000 
0.188658 -0.230116 0.000000 
0.204857 -0.182990 0.000000 
0.174551 -0.198796 0.000000 
0.201338 0.012420 0.000000 
0.201952 -0.016915 0.000000 
0.233199 0.022129 0.000000 
0.147566 -0.102156 0.000000 
0.173231 -0.058655 0.000000 
0.143252 -0.070062 0.000000 
0.235330 -0.032195 0.000000 
0.203799 -0.045790 0.000000 
0.207209 -0.074404 0.000000 
0.162896 -0.166648 0.000000 
0.183230 -0.120190 0.000000 
0.153991 -0.134351 0.000000 
0.500000 -0.078189 0.000000 
0.471334 -0.078144 0.000000 
0.471608 -0.100000 0.000000 
0.469632 -0.033450 0.000000 
0.470595 -0.055893 0.000000 
0.500000 -0.033265 0.000000 
0.415572 -0.100000 0.000000 
0.442750 -0.078244 0.000000 
0.414304 -0.078473 0.000000 
0.466775 0.059656 0.000000 
0.467183 0.035536 0.000000 
0.500000 0.060239 0.000000 
0.405144 -0.013763 0.000000 
0.435438 0.010802 0.000000 
0.402702 0.008433 0.000000 
0.500000 0.012575 0.000000 
0.467816 0.012107 0.000000 
0.468657 -0.010825 0.000000 
0.318623 -0.100000 0.000000 
0.328694 -0.082593 0.000000 
0.294317 -0.095312 0.000000 
0.386018 -0.078913 0.000000 
0.357754 -0.079858 0.000000 
0.362289 -0.100000 0.000000 
0.344054 -0.042375 0.000000 
0.350651 -0.061103 0.000000 
0.376682 -0.037872 0.000000 
0.439100 -0.034105 0.000000 
0.408218 -0.035427 0.000000 
0.411521 -0.056912 0.000000 
[...]
POINT_DATA 1089

SCALARS u_h float 2
LOOKUP_TABLE default
0.027373 -0.275422 
-0.027373 -0.275422 
0.000000 0.000000 
0.000000 0.000000 
0.000000 -0.100000 
-0.020526 -0.187440 
0.000000 0.000000 
0.020526 -0.187440 
0.000000 -0.175457 
0.036246 -0.160990 
0.000000 -0.164785 
-0.016426 -0.199369 
-0.036246 -0.160990 
0.016426 -0.199369 
0.008260 -0.241126 
-0.003098 -0.187805 
-0.050362 -0.119830 
-0.018716 -0.116914 
0.000000 0.000000 
0.000000 -0.112864 
0.000000 0.000000 
0.018716 -0.116914 
0.050362 -0.119830 
0.003098 -0.187805 
-0.008260 -0.241126 
0.030356 -0.242393 
-0.011675 -0.183097 
-0.006900 -0.237833 
0.000000 -0.135484 
-0.002460 -0.142061 
0.013356 -0.100000 
-0.005946 -0.185489 
-0.009005 -0.173322 
0.000000 -0.179413 
-0.013356 -0.100000 
0.002460 -0.142061 
0.006900 -0.237833 
0.011675 -0.183097 
-0.030356 -0.242393 
0.009005 -0.173322 
0.005946 -0.185489 
0.000448 -0.264689 
0.015412 -0.229636 
-0.010242 -0.194809 
0.006012 -0.216380 
-0.002158 -0.215050 
0.008871 -0.201120 
-0.000160 -0.178775 
-0.038681 -0.156727 
-0.025508 -0.163237 
-0.026797 -0.064064 
-0.033604 -0.120084 
-0.046744 -0.073868 
-0.013862 -0.159515 
-0.005709 -0.154273 
0.000000 0.000000 
-0.013957 -0.062195 
0.000000 -0.061057 
-0.005916 -0.061414 
0.000000 0.000000 
-0.008049 -0.114063 
0.000000 -0.152056 
0.000000 0.000000 
0.005916 -0.061414 
0.026797 -0.064064 
0.013957 -0.062195 
0.000000 0.000000 
0.008049 -0.114063 
0.005709 -0.154273 
0.046744 -0.073868 
0.033604 -0.120084 
0.010242 -0.194809 
0.025508 -0.163237 
0.038681 -0.156727 
0.013862 -0.159515 
0.000160 -0.178775 
0.002158 -0.215050 
-0.006012 -0.216380 
-0.015412 -0.229636 
-0.000448 -0.264689 
-0.008871 -0.201120 
0.027694 -0.260411 
0.008208 -0.241144 
0.010322 -0.258673 
0.000828 -0.170744 
0.004667 -0.213932 
0.034553 -0.214175 
-0.016471 -0.215462 
-0.010358 -0.214324 
-0.016282 -0.192972 
0.000000 -0.118354 
0.003631 -0.118717 
0.005917 -0.100000 
-0.003281 -0.153460 
-0.000394 -0.136835 
0.000000 -0.151415 
0.025888 -0.100000 
0.006540 -0.120771 
0.005188 -0.130227 
-0.001720 -0.180908 
-0.003152 -0.180983 
0.000000 -0.179743 
-0.013413 -0.184312 
-0.008165 -0.181799 
-0.011542 -0.190707 
0.000000 -0.174348 
-0.004176 -0.176273 
-0.004396 -0.166943 
-0.007421 -0.155633 
-0.007518 -0.160029 
-0.012574 -0.172944 
-0.005917 -0.100000 
-0.003631 -0.118717 
-0.005188 -0.130227 
-0.006540 -0.120771 
-0.025888 -0.100000 
0.000394 -0.136835 
0.003281 -0.153460 
-0.010322 -0.258673 
-0.008208 -0.241144 
-0.027694 -0.260411 
0.016282 -0.192972 
0.010358 -0.214324 
0.016471 -0.215462 
-0.034553 -0.214175 
-0.004667 -0.213932 
-0.000828 -0.170744 
0.003152 -0.180983 
0.001720 -0.180908 
0.004396 -0.166943 
0.004176 -0.176273 
0.011542 -0.190707 
0.008165 -0.181799 
0.013413 -0.184312 
0.007421 -0.155633 
0.012574 -0.172944 
0.007518 -0.160029 
-0.012031 -0.272522 
0.003630 -0.253712 
0.012432 -0.238614 
0.011110 -0.246809 
0.007246 -0.253617 
0.014241 -0.234078 
0.016997 -0.215743 
-0.015161 -0.193870 
-0.005949 -0.207121 
-0.010905 -0.201578 
0.001276 -0.202539 
-0.001788 -0.206761 
-0.006146 -0.192228 
0.004655 -0.228185 
0.002466 -0.218869 
0.009034 -0.229315 
0.003009 -0.184447 
0.000117 -0.176047 
0.013610 -0.202109 
0.008003 -0.192511 
-0.001146 -0.182955 
0.003565 -0.189890 
0.003058 -0.196357 
0.012161 -0.223898 
0.008217 -0.209752 
0.013806 -0.214046 
-0.029993 -0.172748 
-0.024112 -0.178930 
-0.038470 -0.142777 
-0.032144 -0.162001 
-0.045776 -0.139176 
-0.018376 -0.180367 
-0.013225 -0.178742 
-0.022080 -0.034138 
-0.036207 -0.067172 
-0.033705 -0.044423 
-0.025634 -0.118579 
-0.032647 -0.093677 
-0.024451 -0.092053 
-0.051263 -0.098307 
-0.042004 -0.095923 
-0.042161 -0.120908 
-0.003220 -0.168646 
-0.001465 -0.166542 
-0.008947 -0.175509 
-0.005638 -0.171845 
-0.011897 -0.137780 
-0.009355 -0.156715 
-0.017295 -0.139922 
-0.030874 -0.143214 
-0.023669 -0.141943 
-0.019293 -0.161999 
0.000000 0.000000 
-0.015370 -0.032182 
-0.007794 -0.031712 
-0.011004 -0.031803 
0.000000 0.000000 
-0.019551 -0.062826 
-0.017677 -0.090827 
0.000000 -0.031521 
-0.001562 -0.031561 
0.000000 0.000000 
-0.003620 -0.088535 
-0.002827 -0.061177 
0.000000 -0.088309 
0.000000 0.000000 
-0.003278 -0.031610 
-0.005297 -0.031662 
-0.002699 -0.152643 
0.000000 -0.165863 
-0.012911 -0.115347 
-0.007387 -0.135952 
0.000000 -0.134262 
-0.003528 -0.134727 
-0.003855 -0.113207 
-0.009530 -0.061755 
-0.007562 -0.089054 
-0.012143 -0.089833 
0.000000 0.000000 
0.001562 -0.031561 
0.005297 -0.031662 
0.003278 -0.031610 
0.000000 0.000000 
0.002827 -0.061177 
0.003620 -0.088535 
0.022080 -0.034138 
0.015370 -0.032182 
0.000000 0.000000 
0.017677 -0.090827 
0.019551 -0.062826 
0.024451 -0.092053 
0.000000 0.000000 
0.011004 -0.031803 
0.007794 -0.031712 
0.002699 -0.152643 
0.001465 -0.166542 
0.003855 -0.113207 
0.003528 -0.134727 
0.011897 -0.137780 
0.007387 -0.135952 
0.012911 -0.115347 
0.009530 -0.061755 
0.012143 -0.089833 
0.007562 -0.089054 
0.033705 -0.044423 
0.036207 -0.067172 
0.042161 -0.120908 
0.042004 -0.095923 
0.051263 -0.098307 
0.032647 -0.093677 
0.025634 -0.118579 
0.015161 -0.193870 
0.024112 -0.178930 
0.029993 -0.172748 
0.013225 -0.178742 
0.018376 -0.180367 
0.006146 -0.192228 
0.045776 -0.139176 
0.032144 -0.162001 
0.038470 -0.142777 
0.003220 -0.168646 
-0.000117 -0.176047 
0.017295 -0.139922 
0.009355 -0.156715 
0.001146 -0.182955 
0.005638 -0.171845 
0.008947 -0.175509 
0.030874 -0.143214 
0.019293 -0.161999 
0.023669 -0.141943 
0.010905 -0.201578 
0.005949 -0.207121 
-0.009034 -0.229315 
-0.002466 -0.218869 
-0.004655 -0.228185 
0.001788 -0.206761 
-0.001276 -0.202539 
-0.003630 -0.253712 
0.012031 -0.272522 
-0.016997 -0.215743 
-0.014241 -0.234078 
-0.007246 -0.253617 
-0.011110 -0.246809 
-0.012432 -0.238614 
-0.003009 -0.184447 
-0.003058 -0.196357 
-0.003565 -0.189890 
-0.008003 -0.192511 
-0.013610 -0.202109 
-0.012161 -0.223898 
-0.013806 -0.214046 
-0.008217 -0.209752 
0.027299 -0.267848 
0.018998 -0.260032 
0.019224 -0.267303 
0.018709 -0.242256 
0.018869 -0.251959 
0.028727 -0.252195 
0.001238 -0.248860 
0.009394 -0.250735 
-0.000380 -0.239576 
0.013375 -0.164917 
0.015628 -0.193303 
0.036169 -0.192598 
-0.006040 -0.196804 
0.002468 -0.194641 
-0.006820 -0.177076 
0.032408 -0.230116 
0.017357 -0.214240 
0.018301 -0.230046 
-0.017412 -0.206330 
-0.016798 -0.204415 
-0.016801 -0.196621 
-0.008684 -0.227156 
-0.014269 -0.214905 
-0.012998 -0.226312 
-0.014670 -0.188445 
-0.014951 -0.202040 
-0.011541 -0.199404 
0.006646 -0.229148 
-0.004270 -0.213940 
-0.002259 -0.228101 
0.000000 -0.109439 
0.002584 -0.109394 
0.002858 -0.100000 
0.000882 -0.127200 
0.001845 -0.118393 
0.000000 -0.127015 
0.009322 -0.100000 
0.005250 -0.109494 
0.008054 -0.109723 
-0.001975 -0.159094 
-0.001567 -0.151964 
0.000000 -0.158511 
-0.001106 -0.138763 
-0.002062 -0.145448 
-0.003548 -0.147817 
0.000000 -0.143675 
-0.000934 -0.144143 
-0.000093 -0.135825 
0.037373 -0.100000 
0.016194 -0.113843 
0.013067 -0.126562 
0.011018 -0.110163 
0.014004 -0.111108 
0.018539 -0.100000 
0.000304 -0.136125 
0.006901 -0.123603 
0.001682 -0.131622 
0.001600 -0.127855 
0.001968 -0.129177 
0.005271 -0.119412 
-0.000518 -0.178322 
-0.000900 -0.180017 
0.000000 -0.178154 
-0.004615 -0.182886 
-0.002468 -0.181547 
-0.003571 -0.183240 
0.000000 -0.180171 
-0.001265 -0.180517 
-0.001601 -0.179819 
-0.015186 -0.191434 
-0.012743 -0.188099 
-0.014264 -0.194354 
-0.008809 -0.178162 
-0.010882 -0.182659 
-0.011294 -0.178239 
-0.008675 -0.187882 
-0.009970 -0.185864 
-0.007181 -0.184240 
0.000000 -0.170098 
-0.002205 -0.170652 
-0.002176 -0.165366 
-0.001887 -0.177927 
-0.002098 -0.174859 
0.000000 -0.177466 
-0.006680 -0.169572 
-0.004417 -0.172166 
-0.006630 -0.174663 
-0.005516 -0.181335 
-0.006212 -0.178590 
-0.003736 -0.179221 
0.001527 -0.144110 
-0.004614 -0.147418 
-0.002367 -0.144131 
-0.005590 -0.157155 
-0.010232 -0.167358 
-0.004041 -0.160673 
-0.008625 -0.167277 
-0.006257 -0.163355 
-0.005249 -0.156071 
-0.005515 -0.151599 
-0.015421 -0.187386 
-0.013170 -0.175538 
-0.014813 -0.182133 
-0.013414 -0.179290 
-0.011067 -0.172567 
-0.007963 -0.157231 
-0.010027 -0.165588 
-0.010676 -0.165131 
-0.002858 -0.100000 
-0.002584 -0.109394 
-0.008054 -0.109723 
-0.005250 -0.109494 
-0.009322 -0.100000 
-0.001845 -0.118393 
-0.000882 -0.127200 
-0.013067 -0.126562 
-0.016194 -0.113843 
-0.037373 -0.100000 
-0.001682 -0.131622 
-0.006901 -0.123603 
-0.000304 -0.136125 
-0.018539 -0.100000 
-0.014004 -0.111108 
-0.011018 -0.110163 
0.001567 -0.151964 
0.001975 -0.159094 
0.000093 -0.135825 
0.000934 -0.144143 
0.003548 -0.147817 
0.002062 -0.145448 
0.001106 -0.138763 
-0.005271 -0.119412 
-0.001968 -0.129177 
-0.001600 -0.127855 
-0.019224 -0.267303 
-0.018998 -0.260032 
-0.027299 -0.267848 
0.000380 -0.239576 
-0.009394 -0.250735 
-0.001238 -0.248860 
-0.028727 -0.252195 
-0.018869 -0.251959 
-0.018709 -0.242256 
0.016801 -0.196621 
0.016798 -0.204415 
0.017412 -0.206330 
0.011541 -0.199404 
0.014951 -0.202040 
0.014670 -0.188445 
0.012998 -0.226312 
0.014269 -0.214905 
0.008684 -0.227156 
-0.036169 -0.192598 
-0.015628 -0.193303 
-0.013375 -0.164917 
-0.018301 -0.230046 
-0.017357 -0.214240 
-0.032408 -0.230116 
0.006820 -0.177076 
-0.002468 -0.194641 
0.006040 -0.196804 
0.002259 -0.228101 
0.004270 -0.213940 
-0.006646 -0.229148 
0.000900 -0.180017 
0.000518 -0.178322 
0.001601 -0.179819 
0.001265 -0.180517 
0.003571 -0.183240 
0.002468 -0.181547 
0.004615 -0.182886 
0.002176 -0.165366 
0.002205 -0.170652 
0.006630 -0.174663 
0.004417 -0.172166 
0.006680 -0.169572 
0.002098 -0.174859 
0.001887 -0.177927 
0.014264 -0.194354 
0.012743 -0.188099 
0.015186 -0.191434 
0.007181 -0.184240 
0.009970 -0.185864 
0.008675 -0.187882 
0.011294 -0.178239 
0.010882 -0.182659 
0.008809 -0.178162 
0.003736 -0.179221 
0.006212 -0.178590 
0.005516 -0.181335 
-0.001527 -0.144110 
0.010232 -0.167358 
0.005590 -0.157155 
0.002367 -0.144131 
0.004614 -0.147418 
0.015421 -0.187386 
0.011067 -0.172567 
0.013414 -0.179290 
0.014813 -0.182133 
0.013170 -0.175538 
0.004041 -0.160673 
0.005515 -0.151599 
0.005249 -0.156071 
0.006257 -0.163355 
0.008625 -0.167277 
0.010676 -0.165131 
0.010027 -0.165588 
0.007963 -0.157231 
-0.019630 -0.274619 
-0.011141 -0.265686 
0.002114 -0.259627 
-0.003856 -0.263071 
-0.005181 -0.269145 
-0.002612 -0.256502 
0.005199 -0.246573 
0.010516 -0.240780 
0.010603 -0.246002 
0.008417 -0.247468 
0.014084 -0.238151 
0.012461 -0.242854 
0.014064 -0.234841 
0.004611 -0.259427 
0.009324 -0.250950 
0.006522 -0.255534 
0.017296 -0.215794 
0.017027 -0.207649 
0.011454 -0.236006 
0.015540 -0.225460 
0.016421 -0.223187 
0.016599 -0.224462 
0.015485 -0.231982 
0.008205 -0.250448 
0.012740 -0.241196 
0.009833 -0.244003 
-0.017817 -0.191487 
-0.013031 -0.198498 
-0.015667 -0.194616 
-0.008148 -0.201475 
-0.010510 -0.200697 
-0.012618 -0.194894 
-0.006361 -0.208374 
-0.008349 -0.205218 
-0.003874 -0.211673 
-0.001071 -0.195303 
-0.002424 -0.197779 
-0.004484 -0.190151 
0.002251 -0.211849 
-0.000104 -0.205010 
0.003723 -0.209559 
-0.008073 -0.193848 
-0.004070 -0.199780 
-0.005988 -0.201089 
0.006946 -0.234683 
0.006998 -0.229709 
0.009250 -0.235339 
0.000272 -0.217890 
0.003948 -0.223895 
0.001565 -0.221645 
0.007872 -0.222983 
0.006057 -0.224244 
0.004390 -0.218275 
-0.003748 -0.207548 
0.000471 -0.213139 
-0.001582 -0.213170 
0.000931 -0.179069 
0.000087 -0.175418 
0.004534 -0.185555 
0.002435 -0.182400 
0.000048 -0.177191 
0.001247 -0.180377 
0.001427 -0.182180 
0.015317 -0.201201 
0.012786 -0.196190 
0.008612 -0.196699 
0.010867 -0.196967 
0.011424 -0.202084 
0.009928 -0.192170 
0.007095 -0.188730 
-0.001990 -0.185357 
0.000735 -0.189718 
-0.000019 -0.192554 
0.001427 -0.184404 
0.001208 -0.186955 
-0.000546 -0.180726 
0.006051 -0.199211 
0.003462 -0.193067 
0.006115 -0.195397 
0.005312 -0.188423 
0.005855 -0.191747 
0.003401 -0.186976 
0.011223 -0.234102 
0.009364 -0.220385 
0.010762 -0.227292 
0.012889 -0.231233 
0.014237 -0.226963 
0.002332 -0.199581 
0.008744 -0.205554 
0.005635 -0.202995 
0.004857 -0.206524 
0.007298 -0.213451 
0.015824 -0.208284 
0.015222 -0.221525 
0.015776 -0.215189 
0.013954 -0.208173 
0.011554 -0.207273 
0.010500 -0.216715 
0.011241 -0.212249 
0.013192 -0.219390 
-0.025307 -0.180252 
-0.022504 -0.184196 
-0.031418 -0.168482 
-0.027067 -0.176541 
-0.034484 -0.164915 
-0.019705 -0.186631 
-0.016981 -0.187792 
-0.044680 -0.131416 
-0.042206 -0.141487 
-0.048448 -0.129747 
-0.028804 -0.163018 
-0.035574 -0.152696 
-0.032004 -0.153497 
-0.042481 -0.148158 
-0.039092 -0.150993 
-0.035460 -0.159978 
-0.009770 -0.185887 
-0.007809 -0.184135 
-0.014388 -0.187912 
-0.011971 -0.187209 
-0.019185 -0.171724 
-0.015705 -0.179840 
-0.022114 -0.172151 
-0.028290 -0.170733 
-0.025168 -0.171886 
-0.021195 -0.180133 
-0.014767 -0.018441 
-0.027331 -0.037505 
-0.021788 -0.025764 
-0.031224 -0.065262 
-0.030377 -0.051172 
-0.025659 -0.049277 
-0.041588 -0.060026 
-0.035886 -0.054594 
-0.041544 -0.070027 
-0.022033 -0.117748 
-0.025479 -0.105692 
-0.021845 -0.104940 
-0.033660 -0.107296 
-0.029428 -0.106481 
-0.029505 -0.119374 
-0.026228 -0.078378 
-0.028371 -0.092798 
-0.030406 -0.079244 
-0.051363 -0.109373 
-0.047140 -0.109348 
-0.046378 -0.120725 
-0.045015 -0.084145 
-0.046769 -0.097195 
-0.049826 -0.086529 
-0.037858 -0.120635 
-0.042658 -0.108841 
-0.038109 -0.108108 
-0.035012 -0.080439 
-0.037230 -0.094720 
-0.039956 -0.082065 
-0.000718 -0.171862 
-0.000365 -0.171302 
-0.001744 -0.174255 
-0.001163 -0.172866 
-0.003278 -0.160905 
-0.002278 -0.167428 
-0.004552 -0.161974 
-0.006104 -0.182123 
-0.004658 -0.180004 
-0.009471 -0.166363 
-0.007172 -0.173668 
-0.011556 -0.167969 
-0.003462 -0.177913 
-0.002500 -0.175964 
-0.015325 -0.127882 
-0.014475 -0.138835 
-0.018288 -0.128828 
-0.007435 -0.155416 
-0.010796 -0.147706 
-0.008633 -0.146576 
-0.015797 -0.150159 
-0.013180 -0.148921 
-0.011493 -0.158107 
-0.004329 -0.170142 
-0.007620 -0.164771 
-0.005988 -0.163283 
-0.040712 -0.132199 
-0.032629 -0.132050 
-0.036658 -0.132346 
-0.034662 -0.143286 
-0.028463 -0.153600 
-0.021514 -0.129774 
-0.018653 -0.151344 
-0.020362 -0.140981 
-0.024999 -0.130671 
-0.028719 -0.131456 
-0.010966 -0.177246 
-0.022321 -0.162843 
-0.016428 -0.170781 
-0.013878 -0.169483 
-0.016466 -0.160848 
-0.027188 -0.142723 
-0.021736 -0.152387 
-0.025020 -0.153181 
0.000000 0.000000 
-0.011537 -0.016760 
-0.007950 -0.016021 
-0.009478 -0.016214 
0.000000 0.000000 
-0.018291 -0.032769 
-0.021755 -0.048293 
-0.004030 -0.015983 
-0.004804 -0.015966 
0.000000 0.000000 
-0.013266 -0.047279 
-0.009290 -0.031746 
-0.011143 -0.047141 
0.000000 0.000000 
-0.005691 -0.015954 
-0.006722 -0.015961 
-0.020893 -0.091405 
-0.018526 -0.104227 
-0.022930 -0.063317 
-0.022483 -0.077730 
-0.016150 -0.076788 
-0.019139 -0.077218 
-0.016582 -0.062473 
-0.012998 -0.031922 
-0.015687 -0.047469 
-0.018482 -0.047768 
0.000000 -0.015997 
-0.000396 -0.016005 
0.000000 0.000000 
-0.001108 -0.046584 
-0.000770 -0.031540 
0.000000 -0.046553 
0.000000 0.000000 
-0.000804 -0.016010 
-0.001232 -0.016014 
-0.001883 -0.101042 
-0.001789 -0.088384 
0.000000 -0.100952 
-0.004322 -0.061282 
-0.003290 -0.075163 
-0.005028 -0.075324 
0.000000 -0.074993 
-0.001626 -0.075053 
-0.001396 -0.061103 
0.000000 0.000000 
-0.002736 -0.016007 
-0.003345 -0.015997 
-0.001690 -0.016015 
-0.002188 -0.016013 
0.000000 0.000000 
-0.006078 -0.046837 
-0.004240 -0.031636 
-0.004703 -0.046756 
-0.002244 -0.046628 
-0.003434 -0.046686 
-0.002391 -0.031584 
-0.000727 -0.166019 
0.000000 -0.171190 
-0.004143 -0.153337 
-0.002127 -0.160119 
0.000000 -0.159477 
-0.001050 -0.159640 
-0.001332 -0.152213 
-0.015682 -0.116106 
-0.012614 -0.126977 
-0.007856 -0.125427 
-0.010134 -0.126149 
-0.010378 -0.114660 
-0.009543 -0.136805 
-0.006663 -0.145584 
0.000000 -0.123986 
-0.001859 -0.124105 
-0.001906 -0.112969 
-0.001566 -0.143782 
-0.001744 -0.134395 
0.000000 -0.143635 
-0.005888 -0.113575 
-0.003759 -0.124390 
-0.005744 -0.124835 
-0.004855 -0.144770 
-0.005395 -0.135252 
-0.003170 -0.144163 
-0.006473 -0.031687 
-0.007640 -0.061572 
-0.007589 -0.046928 
-0.009265 -0.047028 
-0.011622 -0.061961 
-0.003809 -0.101235 
-0.007953 -0.101919 
-0.005818 -0.101530 
-0.005530 -0.088759 
-0.006877 -0.075533 
-0.015506 -0.103559 
-0.013472 -0.076412 
-0.014772 -0.090304 
-0.012760 -0.102945 
-0.010254 -0.102394 
-0.008876 -0.075786 
-0.009753 -0.089415 
-0.011061 -0.076079 
0.000000 0.000000 
0.000396 -0.016005 
0.001232 -0.016014 
0.000804 -0.016010 
0.000000 0.000000 
0.000770 -0.031540 
0.001108 -0.046584 
0.003345 -0.015997 
0.002736 -0.016007 
0.000000 0.000000 
0.004703 -0.046756 
0.004240 -0.031636 
0.006078 -0.046837 
0.000000 0.000000 
0.002188 -0.016013 
0.001690 -0.016015 
0.001789 -0.088384 
0.001883 -0.101042 
0.001396 -0.061103 
0.001626 -0.075053 
0.005028 -0.075324 
0.003290 -0.075163 
0.004322 -0.061282 
0.002391 -0.031584 
0.003434 -0.046686 
0.002244 -0.046628 
0.014767 -0.018441 
0.011537 -0.016760 
0.000000 0.000000 
0.021755 -0.048293 
0.018291 -0.032769 
0.025659 -0.049277 
0.000000 0.000000 
0.009478 -0.016214 
0.007950 -0.016021 
0.018526 -0.104227 
0.020893 -0.091405 
0.021845 -0.104940 
0.016582 -0.062473 
0.019139 -0.077218 
0.016150 -0.076788 
0.026228 -0.078378 
0.022483 -0.077730 
0.022930 -0.063317 
0.000000 0.000000 
0.004804 -0.015966 
0.004030 -0.015983 
0.006722 -0.015961 
0.005691 -0.015954 
0.000000 0.000000 
0.011143 -0.047141 
0.009290 -0.031746 
0.013266 -0.047279 
0.018482 -0.047768 
0.015687 -0.047469 
0.012998 -0.031922 
0.000727 -0.166019 
0.000365 -0.171302 
0.001332 -0.152213 
0.001050 -0.159640 
0.003278 -0.160905 
0.002127 -0.160119 
0.004143 -0.153337 
0.001906 -0.112969 
0.001859 -0.124105 
0.005744 -0.124835 
0.003759 -0.124390 
0.005888 -0.113575 
0.001744 -0.134395 
0.001566 -0.143782 
0.015325 -0.127882 
0.012614 -0.126977 
0.015682 -0.116106 
0.006663 -0.145584 
0.009543 -0.136805 
0.008633 -0.146576 
0.010378 -0.114660 
0.010134 -0.126149 
0.007856 -0.125427 
0.003170 -0.144163 
0.005395 -0.135252 
0.004855 -0.144770 
0.006473 -0.031687 
0.011622 -0.061961 
0.009265 -0.047028 
0.007589 -0.046928 
0.007640 -0.061572 
0.015506 -0.103559 
0.010254 -0.102394 
0.012760 -0.102945 
0.014772 -0.090304 
0.013472 -0.076412 
0.003809 -0.101235 
0.006877 -0.075533 
0.005530 -0.088759 
0.005818 -0.101530 
0.007953 -0.101919 
0.011061 -0.076079 
0.009753 -0.089415 
0.008876 -0.075786 
0.021788 -0.025764 
0.027331 -0.037505 
0.041544 -0.070027 
0.035886 -0.054594 
0.041588 -0.060026 
0.030377 -0.051172 
0.031224 -0.065262 
0.046378 -0.120725 
0.047140 -0.109348 
0.051363 -0.109373 
0.038109 -0.108108 
0.042658 -0.108841 
0.037858 -0.120635 
0.049826 -0.086529 
0.046769 -0.097195 
0.045015 -0.084145 
0.025479 -0.105692 
0.022033 -0.117748 
0.030406 -0.079244 
0.028371 -0.092798 
0.029505 -0.119374 
0.029428 -0.106481 
0.033660 -0.107296 
0.039956 -0.082065 
0.037230 -0.094720 
0.035012 -0.080439 
0.017817 -0.191487 
0.022504 -0.184196 
0.025307 -0.180252 
0.016981 -0.187792 
0.019705 -0.186631 
0.012618 -0.194894 
0.034484 -0.164915 
0.027067 -0.176541 
0.031418 -0.168482 
0.007809 -0.184135 
0.009770 -0.185887 
0.004484 -0.190151 
0.022114 -0.172151 
0.015705 -0.179840 
0.019185 -0.171724 
0.008073 -0.193848 
0.011971 -0.187209 
0.014388 -0.187912 
0.048448 -0.129747 
0.042206 -0.141487 
0.044680 -0.131416 
0.035460 -0.159978 
0.039092 -0.150993 
0.042481 -0.148158 
0.032004 -0.153497 
0.035574 -0.152696 
0.028804 -0.163018 
0.021195 -0.180133 
0.025168 -0.171886 
0.028290 -0.170733 
0.000718 -0.171862 
-0.000087 -0.175418 
0.004552 -0.161974 
0.002278 -0.167428 
-0.000048 -0.177191 
0.001163 -0.172866 
0.001744 -0.174255 
0.018288 -0.128828 
0.014475 -0.138835 
0.011493 -0.158107 
0.013180 -0.148921 
0.015797 -0.150159 
0.010796 -0.147706 
0.007435 -0.155416 
0.001990 -0.185357 
0.004658 -0.180004 
0.006104 -0.182123 
0.002500 -0.175964 
0.003462 -0.177913 
0.000546 -0.180726 
0.011556 -0.167969 
0.007172 -0.173668 
0.009471 -0.166363 