# vtk DataFile Version 2.0
Unstructured Grid Example
ASCII
DATASET UNSTRUCTURED_GRID

POINTS 4225 float
0.026574 -0.270844 0.000000 
0.973426 -0.270844 0.000000 
1.000000 1.000000 0.000000 
0.000000 1.000000 0.000000 
0.500000 -0.100000 0.000000 
0.980240 0.315228 0.000000 
0.500000 1.000000 0.000000 
0.019760 0.315228 0.000000 
0.500000 0.326261 0.000000 
0.288664 -0.143049 0.000000 
0.500000 0.086283 0.000000 
0.233568 0.054307 0.000000 
0.711336 -0.143049 0.000000 
0.766432 0.054307 0.000000 
1.009696 0.013152 0.000000 
0.746986 0.314123 0.000000 
0.949894 0.631559 0.000000 
0.731271 0.633953 0.000000 
0.750000 1.000000 0.000000 
0.500000 0.637820 0.000000 
0.250000 1.000000 0.000000 
0.268729 0.633953 0.000000 
0.050106 0.631559 0.000000 
0.253014 0.314123 0.000000 
-0.009696 0.013152 0.000000 
0.155125 -0.237051 0.000000 
0.238188 -0.051705 0.000000 
0.116731 -0.107498 0.000000 
0.500000 -0.010167 0.000000 
0.372907 -0.015701 0.000000 
0.386242 -0.100000 0.000000 
0.369241 0.191361 0.000000 
0.366387 0.078629 0.000000 
0.500000 0.197071 0.000000 
0.613758 -0.100000 0.000000 
0.627093 -0.015701 0.000000 
0.883269 -0.107498 0.000000 
0.761812 -0.051705 0.000000 
0.844875 -0.237051 0.000000 
0.633613 0.078629 0.000000 
0.630759 0.191361 0.000000 
1.001635 -0.135578 0.000000 
0.891477 0.024736 0.000000 
0.865185 0.307563 0.000000 
0.881628 0.161872 0.000000 
0.998893 0.163634 0.000000 
0.758924 0.176503 0.000000 
0.624765 0.322781 0.000000 
0.961787 0.470320 0.000000 
0.849744 0.463436 0.000000 
0.848028 0.811357 0.000000 
0.841470 0.630947 0.000000 
0.953142 0.801692 0.000000 
0.736219 0.466860 0.000000 
0.619312 0.471909 0.000000 
0.875000 1.000000 0.000000 
0.735964 0.813216 0.000000 
0.500000 0.814265 0.000000 
0.619051 0.813965 0.000000 
0.625000 1.000000 0.000000 
0.616936 0.636706 0.000000 
0.500000 0.474062 0.000000 
0.375000 1.000000 0.000000 
0.380949 0.813965 0.000000 
0.151972 0.811357 0.000000 
0.264036 0.813216 0.000000 
0.125000 1.000000 0.000000 
0.383064 0.636706 0.000000 
0.380688 0.471909 0.000000 
0.046858 0.801692 0.000000 
0.158530 0.630947 0.000000 
0.134815 0.307563 0.000000 
0.150256 0.463436 0.000000 
0.038213 0.470320 0.000000 
0.263781 0.466860 0.000000 
0.375235 0.322781 0.000000 
0.001107 0.163634 0.000000 
0.118372 0.161872 0.000000 
0.108523 0.024736 0.000000 
-0.001635 -0.135578 0.000000 
0.241076 0.176503 0.000000 
0.089513 -0.255643 0.000000 
0.132345 -0.173369 0.000000 
0.072059 -0.191561 0.000000 
0.249809 -0.097440 0.000000 
0.190731 -0.144169 0.000000 
0.223137 -0.207280 0.000000 
0.170143 -0.022650 0.000000 
0.175801 -0.082793 0.000000 
0.233727 -0.000866 0.000000 
0.500000 -0.055756 0.000000 
0.440751 -0.056129 0.000000 
0.442617 -0.100000 0.000000 
0.434446 0.035069 0.000000 
0.437157 -0.011298 0.000000 
0.500000 0.036782 0.000000 
0.333263 -0.100000 0.000000 
0.381011 -0.057875 0.000000 
0.318277 -0.064931 0.000000 
0.435889 0.258174 0.000000 
0.434485 0.195613 0.000000 
0.500000 0.259340 0.000000 
0.299441 0.068449 0.000000 
0.367109 0.132636 0.000000 
0.301173 0.124268 0.000000 
0.500000 0.139482 0.000000 
0.433505 0.137760 0.000000 
0.433334 0.084417 0.000000 
0.305873 -0.027329 0.000000 
0.367976 0.029294 0.000000 
0.300482 0.017621 0.000000 
0.557383 -0.100000 0.000000 
0.559249 -0.056129 0.000000 
0.681723 -0.064931 0.000000 
0.618989 -0.057875 0.000000 
0.666737 -0.100000 0.000000 
0.562843 -0.011298 0.000000 
0.565554 0.035069 0.000000 
0.927941 -0.191561 0.000000 
0.867655 -0.173369 0.000000 
0.910487 -0.255643 0.000000 
0.766273 -0.000866 0.000000 
0.824199 -0.082793 0.000000 
0.829857 -0.022650 0.000000 
0.776863 -0.207280 0.000000 
0.809269 -0.144169 0.000000 
0.750191 -0.097440 0.000000 
0.565515 0.195613 0.000000 
0.564111 0.258174 0.000000 
0.566666 0.084417 0.000000 
0.566495 0.137760 0.000000 
0.698827 0.124268 0.000000 
0.632891 0.132636 0.000000 
0.700559 0.068449 0.000000 
0.694127 -0.027329 0.000000 
0.699518 0.017621 0.000000 
0.632024 0.029294 0.000000 
0.988743 -0.205844 0.000000 
0.942361 -0.124099 0.000000 
0.951246 0.015619 0.000000 
0.950033 -0.054804 0.000000 
1.008703 -0.061855 0.000000 
0.890551 -0.041617 0.000000 
0.830097 0.038561 0.000000 
0.922945 0.308691 0.000000 
0.932239 0.233369 0.000000 
0.989978 0.239124 0.000000 
0.814042 0.237506 0.000000 
0.873697 0.233528 0.000000 
0.806598 0.309928 0.000000 
1.005911 0.088382 0.000000 
0.940820 0.159561 0.000000 
0.947615 0.087041 0.000000 
0.627885 0.254773 0.000000 
0.562553 0.325450 0.000000 
0.763644 0.113463 0.000000 
0.695376 0.184700 0.000000 
0.686328 0.318762 0.000000 
0.690998 0.249571 0.000000 
0.753126 0.243397 0.000000 
0.887975 0.092382 0.000000 
0.821044 0.168244 0.000000 
0.826739 0.102013 0.000000 
0.970596 0.392128 0.000000 
0.913858 0.385763 0.000000 
0.899299 0.546230 0.000000 
0.905719 0.464847 0.000000 
0.954591 0.550040 0.000000 
0.856958 0.384141 0.000000 
0.799478 0.385579 0.000000 
0.915027 0.903450 0.000000 
0.901102 0.808265 0.000000 
0.965987 0.892697 0.000000 
0.786882 0.632359 0.000000 
0.842305 0.719539 0.000000 
0.787982 0.721112 0.000000 
0.948840 0.715230 0.000000 
0.895510 0.717376 0.000000 
0.895500 0.630251 0.000000 
0.621786 0.395232 0.000000 
0.561052 0.397302 0.000000 
0.741151 0.388633 0.000000 
0.681892 0.392141 0.000000 
0.675618 0.550755 0.000000 
0.678182 0.469546 0.000000 
0.732746 0.548696 0.000000 
0.844297 0.545637 0.000000 
0.788924 0.546780 0.000000 
0.793361 0.464517 0.000000 
0.937500 1.000000 0.000000 
0.859454 0.905518 0.000000 
0.742153 0.905995 0.000000 
0.801406 0.905910 0.000000 
0.812500 1.000000 0.000000 
0.792829 0.812594 0.000000 
0.732262 0.722302 0.000000 
0.500000 0.906138 0.000000 
0.560926 0.906118 0.000000 
0.562500 1.000000 0.000000 
0.558865 0.724505 0.000000 
0.559656 0.814180 0.000000 
0.500000 0.724686 0.000000 
0.687500 1.000000 0.000000 
0.621700 0.906081 0.000000 
0.682169 0.906038 0.000000 
0.559819 0.473499 0.000000 
0.500000 0.398017 0.000000 
0.674569 0.635465 0.000000 
0.617620 0.552523 0.000000 
0.500000 0.554129 0.000000 
0.558978 0.553705 0.000000 
0.558639 0.637524 0.000000 
0.677918 0.813642 0.000000 
0.617408 0.724016 0.000000 
0.675310 0.723266 0.000000 
0.437500 1.000000 0.000000 
0.439074 0.906118 0.000000 
0.317831 0.906038 0.000000 
0.378300 0.906081 0.000000 
0.312500 1.000000 0.000000 
0.440344 0.814180 0.000000 
0.441135 0.724505 0.000000 
0.084973 0.903450 0.000000 
0.140546 0.905518 0.000000 
0.062500 1.000000 0.000000 
0.267738 0.722302 0.000000 
0.207171 0.812594 0.000000 
0.212018 0.721112 0.000000 
0.187500 1.000000 0.000000 
0.198594 0.905910 0.000000 
0.257847 0.905995 0.000000 
0.440181 0.473499 0.000000 
0.438948 0.397302 0.000000 
0.441361 0.637524 0.000000 
0.441022 0.553705 0.000000 
0.324382 0.550755 0.000000 
0.382380 0.552523 0.000000 
0.325431 0.635465 0.000000 
0.322082 0.813642 0.000000 
0.324690 0.723266 0.000000 
0.382592 0.724016 0.000000 
0.034013 0.892697 0.000000 
0.098898 0.808265 0.000000 
0.104500 0.630251 0.000000 
0.104490 0.717376 0.000000 
0.051160 0.715230 0.000000 
0.157695 0.719539 0.000000 
0.213118 0.632359 0.000000 
0.077055 0.308691 0.000000 
0.086142 0.385763 0.000000 
0.029404 0.392128 0.000000 
0.200522 0.385579 0.000000 
0.143042 0.384141 0.000000 
0.193402 0.309928 0.000000 
0.045409 0.550040 0.000000 
0.094281 0.464847 0.000000 
0.100701 0.546230 0.000000 
0.378214 0.395232 0.000000 
0.437447 0.325450 0.000000 
0.267254 0.548696 0.000000 
0.321818 0.469546 0.000000 
0.313672 0.318762 0.000000 
0.318108 0.392141 0.000000 
0.258849 0.388633 0.000000 
0.155703 0.545637 0.000000 
0.206639 0.464517 0.000000 
0.211076 0.546780 0.000000 
0.010022 0.239124 0.000000 
0.067761 0.233369 0.000000 
0.052385 0.087041 0.000000 
0.059180 0.159561 0.000000 
-0.005911 0.088382 0.000000 
0.126303 0.233528 0.000000 
0.185958 0.237506 0.000000 
0.057639 -0.124099 0.000000 
0.011257 -0.205844 0.000000 
0.169903 0.038561 0.000000 
0.109449 -0.041617 0.000000 
-0.008703 -0.061855 0.000000 
0.049967 -0.054804 0.000000 
0.048754 0.015619 0.000000 
0.372115 0.254773 0.000000 
0.246874 0.243397 0.000000 
0.309002 0.249571 0.000000 
0.304624 0.184700 0.000000 
0.236356 0.113463 0.000000 
0.112025 0.092382 0.000000 
0.173261 0.102013 0.000000 
0.178956 0.168244 0.000000 
0.057794 -0.263260 0.000000 
0.080884 -0.224126 0.000000 
0.049804 -0.231560 0.000000 
0.143301 -0.205790 0.000000 
0.112102 -0.215831 0.000000 
0.121956 -0.247188 0.000000 
0.093909 -0.150206 0.000000 
0.102362 -0.183371 0.000000 
0.123409 -0.140472 0.000000 
0.261619 -0.118821 0.000000 
0.233134 -0.152319 0.000000 
0.257174 -0.183231 0.000000 
0.211361 -0.094967 0.000000 
0.219497 -0.122914 0.000000 
0.242759 -0.075255 0.000000 
0.188920 -0.224239 0.000000 
0.204295 -0.175938 0.000000 
0.174188 -0.192975 0.000000 
0.200973 0.016969 0.000000 
0.201479 -0.011759 0.000000 
0.233207 0.026210 0.000000 
0.146141 -0.096256 0.000000 
0.172135 -0.052741 0.000000 
0.141937 -0.064476 0.000000 
0.235306 -0.026867 0.000000 
0.203146 -0.039857 0.000000 
0.206268 -0.067488 0.000000 
0.161823 -0.160651 0.000000 
0.181692 -0.113144 0.000000 
0.152595 -0.128296 0.000000 
0.500000 -0.078128 0.000000 
0.471021 -0.078139 0.000000 
0.471248 -0.100000 0.000000 
0.469544 -0.033254 0.000000 
0.470393 -0.055830 0.000000 
0.500000 -0.033085 0.000000 
0.414222 -0.100000 0.000000 
0.442108 -0.078251 0.000000 
0.413321 -0.078480 0.000000 
0.466894 0.060668 0.000000 
0.467288 0.036353 0.000000 
0.500000 0.061132 0.000000 
0.405308 -0.012930 0.000000 
0.435607 0.011599 0.000000 
0.403014 0.009566 0.000000 
0.500000 0.013073 0.000000 
0.467885 0.012708 0.000000 
0.468662 -0.010441 0.000000 
0.311498 -0.100000 0.000000 
0.327390 -0.081638 0.000000 
0.295656 -0.088947 0.000000 
0.384702 -0.078899 0.000000 
0.356211 -0.079708 0.000000 
0.359002 -0.100000 0.000000 
0.344472 -0.040578 0.000000 
0.350373 -0.060101 0.000000 
0.376729 -0.036956 0.000000 
0.438964 -0.033821 0.000000 
0.408107 -0.034940 0.000000 
0.411010 -0.056737 0.000000 
[...]
POINT_DATA 4225

SCALARS u_h float 2
LOOKUP_TABLE default
0.026574 -0.270844 
-0.026574 -0.270844 
0.000000 0.000000 
0.000000 0.000000 
0.000000 -0.100000 
-0.019760 -0.184772 
0.000000 0.000000 
0.019760 -0.184772 
0.000000 -0.173739 
0.038664 -0.143049 
0.000000 -0.163717 
-0.016432 -0.195693 
-0.038664 -0.143049 
0.016432 -0.195693 
0.009696 -0.236848 
-0.003014 -0.185877 
-0.050106 -0.118441 
-0.018729 -0.116047 
0.000000 0.000000 
0.000000 -0.112180 
0.000000 0.000000 
0.018729 -0.116047 
0.050106 -0.118441 
0.003014 -0.185877 
-0.009696 -0.236848 
0.030125 -0.237051 
-0.011812 -0.176705 
-0.008269 -0.232498 
0.000000 -0.135167 
-0.002093 -0.140701 
0.011242 -0.100000 
-0.005759 -0.183639 
-0.008613 -0.171371 
0.000000 -0.177929 
-0.011242 -0.100000 
0.002093 -0.140701 
0.008269 -0.232498 
0.011812 -0.176705 
-0.030125 -0.237051 
0.008613 -0.171371 
0.005759 -0.183639 
0.001635 -0.260578 
0.016477 -0.225264 
-0.009815 -0.192437 
0.006628 -0.213128 
-0.001107 -0.211366 
0.008924 -0.198497 
-0.000235 -0.177219 
-0.038213 -0.154680 
-0.025256 -0.161564 
-0.026972 -0.063643 
-0.033530 -0.119053 
-0.046858 -0.073308 
-0.013781 -0.158140 
-0.005688 -0.153091 
0.000000 0.000000 
-0.014036 -0.061784 
0.000000 -0.060735 
-0.005949 -0.061035 
0.000000 0.000000 
-0.008064 -0.113294 
0.000000 -0.150938 
0.000000 0.000000 
0.005949 -0.061035 
0.026972 -0.063643 
0.014036 -0.061784 
0.000000 0.000000 
0.008064 -0.113294 
0.005688 -0.153091 
0.046858 -0.073308 
0.033530 -0.119053 
0.009815 -0.192437 
0.025256 -0.161564 
0.038213 -0.154680 
0.013781 -0.158140 
0.000235 -0.177219 
0.001107 -0.211366 
-0.006628 -0.213128 
-0.016477 -0.225264 
-0.001635 -0.260578 
-0.008924 -0.198497 
0.027013 -0.255643 
0.007345 -0.235869 
0.009559 -0.254061 
-0.000191 -0.159940 
0.003231 -0.206669 
0.035637 -0.207280 
-0.017357 -0.210150 
-0.011699 -0.207793 
-0.016273 -0.188366 
0.000000 -0.118256 
0.003251 -0.118629 
0.005117 -0.100000 
-0.003054 -0.152431 
-0.000343 -0.136298 
0.000000 -0.150718 
0.020763 -0.100000 
0.006011 -0.120375 
0.005777 -0.127431 
-0.001611 -0.179326 
-0.003015 -0.179387 
0.000000 -0.178160 
-0.013059 -0.181551 
-0.007891 -0.179864 
-0.011327 -0.188232 
0.000000 -0.173018 
-0.003995 -0.174740 
-0.004166 -0.165583 
-0.006627 -0.152329 
-0.007024 -0.158206 
-0.012018 -0.169879 
-0.005117 -0.100000 
-0.003251 -0.118629 
-0.005777 -0.127431 
-0.006011 -0.120375 
-0.020763 -0.100000 
0.000343 -0.136298 
0.003054 -0.152431 
-0.009559 -0.254061 
-0.007345 -0.235869 
-0.027013 -0.255643 
0.016273 -0.188366 
0.011699 -0.207793 
0.017357 -0.210150 
-0.035637 -0.207280 
-0.003231 -0.206669 
0.000191 -0.159940 
0.003015 -0.179387 
0.001611 -0.179326 
0.004166 -0.165583 
0.003995 -0.174740 
0.011327 -0.188232 
0.007891 -0.179864 
0.013059 -0.181551 
0.006627 -0.152329 
0.012018 -0.169879 
0.007024 -0.158206 
-0.011257 -0.268344 
0.004861 -0.249099 
0.013746 -0.234381 
0.012533 -0.242304 
0.008703 -0.249355 
0.015551 -0.229117 
0.017597 -0.211439 
-0.014555 -0.191309 
-0.005261 -0.204131 
-0.010022 -0.198376 
0.001542 -0.199994 
-0.001303 -0.203972 
-0.005902 -0.190072 
0.005911 -0.224118 
0.003320 -0.215439 
0.010115 -0.225459 
0.002885 -0.182727 
0.000053 -0.174550 
0.013644 -0.199037 
0.007876 -0.190300 
-0.001172 -0.181238 
0.003498 -0.187929 
0.003126 -0.194103 
0.012975 -0.220118 
0.008544 -0.206756 
0.014239 -0.210487 
-0.029404 -0.170372 
-0.023642 -0.176737 
-0.038201 -0.141270 
-0.031781 -0.160153 
-0.045409 -0.137460 
-0.018042 -0.178359 
-0.013022 -0.176921 
-0.022473 -0.034050 
-0.036398 -0.066735 
-0.034013 -0.044803 
-0.025618 -0.117641 
-0.032695 -0.092961 
-0.024518 -0.091388 
-0.051160 -0.097270 
-0.041990 -0.095124 
-0.042000 -0.119749 
-0.003214 -0.167268 
-0.001448 -0.165198 
-0.008849 -0.173867 
-0.005608 -0.170359 
-0.011882 -0.136745 
-0.009318 -0.155454 
-0.017254 -0.138804 
-0.030703 -0.141863 
-0.023576 -0.140720 
-0.019139 -0.160483 
0.000000 0.000000 
-0.015546 -0.031982 
-0.007847 -0.031505 
-0.011094 -0.031590 
0.000000 0.000000 
-0.019671 -0.062406 
-0.017738 -0.090198 
0.000000 -0.031362 
-0.001574 -0.031382 
0.000000 0.000000 
-0.003635 -0.087995 
-0.002844 -0.060820 
0.000000 -0.087814 
0.000000 0.000000 
-0.003300 -0.031419 
-0.005331 -0.031462 
-0.002681 -0.151501 
0.000000 -0.164483 
-0.012931 -0.114535 
-0.007380 -0.134977 
0.000000 -0.133371 
-0.003522 -0.133795 
-0.003861 -0.112476 
-0.009582 -0.061358 
-0.007592 -0.088484 
-0.012190 -0.089234 
0.000000 0.000000 
0.001574 -0.031382 
0.005331 -0.031462 
0.003300 -0.031419 
0.000000 0.000000 
0.002844 -0.060820 
0.003635 -0.087995 
0.022473 -0.034050 
0.015546 -0.031982 
0.000000 0.000000 
0.017738 -0.090198 
0.019671 -0.062406 
0.024518 -0.091388 
0.000000 0.000000 
0.011094 -0.031590 
0.007847 -0.031505 
0.002681 -0.151501 
0.001448 -0.165198 
0.003861 -0.112476 
0.003522 -0.133795 
0.011882 -0.136745 
0.007380 -0.134977 
0.012931 -0.114535 
0.009582 -0.061358 
0.012190 -0.089234 
0.007592 -0.088484 
0.034013 -0.044803 
0.036398 -0.066735 
0.042000 -0.119749 
0.041990 -0.095124 
0.051160 -0.097270 
0.032695 -0.092961 
0.025618 -0.117641 
0.014555 -0.191309 
0.023642 -0.176737 
0.029404 -0.170372 
0.013022 -0.176921 
0.018042 -0.178359 
0.005902 -0.190072 
0.045409 -0.137460 
0.031781 -0.160153 
0.038201 -0.141270 
0.003214 -0.167268 
-0.000053 -0.174550 
0.017254 -0.138804 
0.009318 -0.155454 
0.001172 -0.181238 
0.005608 -0.170359 
0.008849 -0.173867 
0.030703 -0.141863 
0.019139 -0.160483 
0.023576 -0.140720 
0.010022 -0.198376 
0.005261 -0.204131 
-0.010115 -0.225459 
-0.003320 -0.215439 
-0.005911 -0.224118 
0.001303 -0.203972 
-0.001542 -0.199994 
-0.004861 -0.249099 
0.011257 -0.268344 
-0.017597 -0.211439 
-0.015551 -0.229117 
-0.008703 -0.249355 
-0.012533 -0.242304 
-0.013746 -0.234381 
-0.002885 -0.182727 
-0.003126 -0.194103 
-0.003498 -0.187929 
-0.007876 -0.190300 
-0.013644 -0.199037 
-0.012975 -0.220118 
-0.014239 -0.210487 
-0.008544 -0.206756 
0.026544 -0.263260 
0.018384 -0.255376 
0.018554 -0.262810 
0.018301 -0.237040 
0.018352 -0.247081 
0.028206 -0.247188 
0.000159 -0.243956 
0.008612 -0.245871 
-0.001591 -0.234222 
0.011619 -0.150071 
0.014384 -0.183569 
0.038424 -0.183231 
-0.007389 -0.188717 
0.000747 -0.185414 
-0.007241 -0.169005 
0.032670 -0.224239 
0.016795 -0.207188 
0.017938 -0.224225 
-0.017777 -0.201781 
-0.017271 -0.199259 
-0.016793 -0.192540 
-0.010109 -0.221256 
-0.015365 -0.208991 
-0.014313 -0.220726 
-0.014694 -0.183117 
-0.015604 -0.196107 
-0.012482 -0.192488 
0.005573 -0.223151 
-0.005808 -0.206894 
-0.003655 -0.222046 
0.000000 -0.109378 
0.002271 -0.109389 
0.002498 -0.100000 
0.000794 -0.127004 
0.001643 -0.118330 
0.000000 -0.126835 
0.007972 -0.100000 
0.004608 -0.109501 
0.007071 -0.109730 
-0.001856 -0.158082 
-0.001462 -0.151147 
0.000000 -0.157618 
-0.000942 -0.137930 
-0.001893 -0.144651 
-0.003236 -0.146684 
0.000000 -0.143177 
-0.000865 -0.143542 
-0.000088 -0.135441 
0.030248 -0.100000 
0.014890 -0.112888 
0.014406 -0.120197 
0.009702 -0.110149 
0.012461 -0.110958 
0.015252 -0.100000 
0.000722 -0.134328 
0.006623 -0.122601 
0.001729 -0.130706 
0.001464 -0.127571 
0.001857 -0.128690 
0.004760 -0.119237 
-0.000447 -0.176752 
-0.000829 -0.178451 
0.000000 -0.176513 
-0.004441 -0.181179 
-0.002347 -0.179949 
-0.003423 -0.181561 
0.000000 -0.178635 
-0.001193 -0.178967 
-0.001524 -0.178298 
-0.014965 -0.188225 
-0.012465 -0.185484 
-0.014102 -0.191376 
-0.008478 -0.176207 
-0.010550 -0.180388 
-0.010887 -0.175902 
-0.008461 -0.185772 
-0.009703 -0.183671 
-0.006955 -0.182340 
0.000000 -0.168884 
-0.002096 -0.169346 
-0.002058 -0.164190 
-0.001800 -0.176453 
-0.002000 -0.173455 
0.000000 -0.176048 
-0.006353 -0.167952 
-0.004210 -0.170702 
-0.006345 -0.172980 
-0.005310 -0.179615 
-0.005969 -0.176878 
-0.003579 -0.177646 
0.002667 -0.138409 
-0.003986 -0.145221 
-0.001516 -0.140865 
-0.004720 -0.152091 
-0.009566 -0.162804 
-0.003800 -0.159457 
-0.008173 -0.165364 
-0.005898 -0.161838 
-0.004885 -0.154711 
-0.005029 -0.149947 
-0.015124 -0.183914 
-0.012658 -0.171405 
-0.014421 -0.178356 
-0.012966 -0.176378 
-0.010575 -0.170180 
-0.007325 -0.154871 
-0.009452 -0.163184 
-0.009999 -0.161925 
-0.002498 -0.100000 
-0.002271 -0.109389 
-0.007071 -0.109730 
-0.004608 -0.109501 
-0.007972 -0.100000 
-0.001643 -0.118330 
-0.000794 -0.127004 
-0.014406 -0.120197 
-0.014890 -0.112888 
-0.030248 -0.100000 
-0.001729 -0.130706 
-0.006623 -0.122601 
-0.000722 -0.134328 
-0.015252 -0.100000 
-0.012461 -0.110958 
-0.009702 -0.110149 
0.001462 -0.151147 
0.001856 -0.158082 
0.000088 -0.135441 
0.000865 -0.143542 
0.003236 -0.146684 
0.001893 -0.144651 
0.000942 -0.137930 
-0.004760 -0.119237 
-0.001857 -0.128690 
-0.001464 -0.127571 
-0.018554 -0.262810 
-0.018384 -0.255376 
-0.026544 -0.263260 
0.001591 -0.234222 
-0.008612 -0.245871 
-0.000159 -0.243956 
-0.028206 -0.247188 
-0.018352 -0.247081 
-0.018301 -0.237040 
0.016793 -0.192540 
0.017271 -0.199259 
0.017777 -0.201781 
0.012482 -0.192488 
0.015604 -0.196107 
0.014694 -0.183117 
0.014313 -0.220726 
0.015365 -0.208991 
0.010109 -0.221256 
-0.038424 -0.183231 
-0.014384 -0.183569 
-0.011619 -0.150071 
-0.017938 -0.224225 
-0.016795 -0.207188 
-0.032670 -0.224239 
0.007241 -0.169005 
-0.000747 -0.185414 
0.007389 -0.188717 
0.003655 -0.222046 
0.005808 -0.206894 
-0.005573 -0.223151 
0.000829 -0.178451 
0.000447 -0.176752 
0.001524 -0.178298 
0.001193 -0.178967 
0.003423 -0.181561 
0.002347 -0.179949 
0.004441 -0.181179 
0.002058 -0.164190 
0.002096 -0.169346 
0.006345 -0.172980 
0.004210 -0.170702 
0.006353 -0.167952 
0.002000 -0.173455 
0.001800 -0.176453 
0.014102 -0.191376 
0.012465 -0.185484 
0.014965 -0.188225 
0.006955 -0.182340 
0.009703 -0.183671 
0.008461 -0.185772 
0.010887 -0.175902 
0.010550 -0.180388 
0.008478 -0.176207 
0.003579 -0.177646 
0.005969 -0.176878 
0.005310 -0.179615 
-0.002667 -0.138409 
0.009566 -0.162804 
0.004720 -0.152091 
0.001516 -0.140865 
0.003986 -0.145221 
0.015124 -0.183914 
0.010575 -0.170180 
0.012966 -0.176378 
0.014421 -0.178356 
0.012658 -0.171405 
0.003800 -0.159457 
0.005029 -0.149947 
0.004885 -0.154711 
0.005898 -0.161838 
0.008173 -0.165364 
0.009999 -0.161925 
0.009452 -0.163184 
0.007325 -0.154871 
-0.018915 -0.270237 
-0.010379 -0.261266 
0.003318 -0.255251 
-0.002880 -0.258686 
-0.004215 -0.265055 
-0.001605 -0.251890 
0.006488 -0.241660 
0.011902 -0.236572 
0.012050 -0.241705 
0.009893 -0.243169 
0.015401 -0.233625 
0.013856 -0.238468 
0.015275 -0.230539 
0.005972 -0.255240 
0.010773 -0.246600 
0.007892 -0.251162 
0.018019 -0.211022 
0.017326 -0.203584 
0.012837 -0.230812 
0.016700 -0.220266 
0.017284 -0.218796 
0.017602 -0.219678 
0.016680 -0.227306 
0.009578 -0.245867 
0.014124 -0.236481 
0.011217 -0.239153 
-0.017129 -0.188851 
-0.012307 -0.195638 
-0.014846 -0.191678 
-0.007605 -0.198798 
-0.009876 -0.197924 
-0.012100 -0.192424 
-0.005401 -0.204922 
-0.007567 -0.202129 
-0.003014 -0.208357 
-0.000913 -0.193084 
-0.002174 -0.195433 
-0.004324 -0.188109 
0.002793 -0.208836 
0.000272 -0.202336 
0.004141 -0.206661 
-0.007738 -0.191581 
-0.003722 -0.197315 
-0.005541 -0.198513 
0.008302 -0.230484 
0.008173 -0.225785 
0.010538 -0.231257 
0.001225 -0.214355 
0.005008 -0.220156 
0.002716 -0.217753 
0.008717 -0.219404 
0.007019 -0.220597 
0.005133 -0.214932 
-0.003159 -0.204656 
0.001128 -0.210026 
-0.000821 -0.209960 
0.000838 -0.177522 
0.000049 -0.173874 
0.004381 -0.183765 
0.002309 -0.180765 
-0.000028 -0.175682 
0.001145 -0.178800 
0.001329 -0.180540 
0.015338 -0.197853 
0.012670 -0.193418 
0.008561 -0.194285 
0.010788 -0.194382 
0.011469 -0.199250 
0.009762 -0.189829 
0.006923 -0.186709 
-0.001967 -0.183539 
0.000743 -0.187758 
0.000057 -0.190467 
0.001348 -0.182674 
0.001164 -0.185116 
-0.000604 -0.179098 
0.006111 -0.196780 
0.003453 -0.190963 
0.006086 -0.193142 
0.005176 -0.186495 
0.005760 -0.189662 
0.003295 -0.185145 
0.012426 -0.230048 
0.010071 -0.216878 
0.011725 -0.223472 
0.013977 -0.227170 
0.015172 -0.222894 
0.002493 -0.197178 
0.008926 -0.202733 
0.005805 -0.200392 
0.005149 -0.203764 
0.007773 -0.210311 
0.016079 -0.204611 
0.015962 -0.217497 
0.016282 -0.211286 
0.014178 -0.204828 
0.011754 -0.204207 
0.011047 -0.213309 
0.011614 -0.208989 
0.013827 -0.215690 
-0.024640 -0.177722 
-0.021898 -0.181739 
-0.030946 -0.166369 
-0.026533 -0.174258 
-0.033960 -0.162701 
-0.019171 -0.184258 
-0.016524 -0.185511 
-0.044410 -0.129985 
-0.041885 -0.139884 
-0.048133 -0.128194 
-0.028497 -0.161260 
-0.035258 -0.151018 
-0.031741 -0.151906 
-0.042064 -0.146277 
-0.038724 -0.149219 
-0.035042 -0.158034 
-0.009545 -0.183904 
-0.007653 -0.182253 
-0.014009 -0.185727 
-0.011672 -0.185124 
-0.018951 -0.169973 
-0.015439 -0.177926 
-0.021821 -0.170313 
-0.027877 -0.168714 
-0.024815 -0.169958 
-0.020793 -0.178032 
-0.015327 -0.018734 
-0.027754 -0.037504 
-0.022125 -0.026839 
-0.031417 -0.064835 
-0.030680 -0.050909 
-0.025924 -0.048999 
-0.041820 -0.059844 
-0.036187 -0.054372 
-0.041709 -0.069578 
-0.022034 -0.116847 
-0.025506 -0.104893 
-0.021881 -0.104169 
-0.033645 -0.106423 
-0.029437 -0.105648 
-0.029464 -0.118392 
-0.026340 -0.077829 
-0.028433 -0.092111 
-0.030521 -0.078679 
-0.051177 -0.108153 
-0.046997 -0.108278 
-0.046166 -0.119471 
-0.045058 -0.083476 
-0.046710 -0.096319 
-0.049824 -0.085701 
-0.037744 -0.119546 
-0.042563 -0.107861 
-0.038059 -0.107188 
-0.035118 -0.079852 
-0.037253 -0.093968 
-0.040038 -0.081449 
-0.000724 -0.170434 
-0.000348 -0.169835 
-0.001768 -0.172787 
-0.001184 -0.171433 
-0.003258 -0.159648 
-0.002270 -0.166078 
-0.004532 -0.160692 
-0.006008 -0.180342 
-0.004611 -0.178318 
-0.009410 -0.164928 
-0.007113 -0.172109 
-0.011463 -0.166463 
-0.003453 -0.176313 
-0.002514 -0.174439 
-0.015321 -0.126927 
-0.014450 -0.137761 
-0.018274 -0.127837 
-0.007409 -0.154199 
-0.010768 -0.146558 
-0.008613 -0.145467 
-0.015735 -0.148914 
-0.013137 -0.147728 
-0.011438 -0.156793 
-0.004316 -0.168718 
-0.007581 -0.163398 
-0.005963 -0.161961 
-0.040493 -0.130865 
-0.032504 -0.130859 
-0.036488 -0.131089 
-0.034443 -0.141862 
-0.028250 -0.152089 
-0.021483 -0.128741 
-0.018563 -0.150040 
-0.020299 -0.139813 
-0.024943 -0.129590 
-0.028632 -0.130323 
-0.010820 -0.175516 
-0.022120 -0.161250 
-0.016248 -0.169116 
-0.013745 -0.167899 
-0.016352 -0.159405 
-0.027059 -0.141438 
-0.021611 -0.151018 
-0.024854 -0.151743 
0.000000 0.000000 
-0.011778 -0.016730 
-0.008040 -0.015912 
-0.009614 -0.016119 
0.000000 0.000000 
-0.018553 -0.032601 
-0.021960 -0.047994 
-0.004058 -0.015877 
-0.004841 -0.015858 
0.000000 0.000000 
-0.013356 -0.046967 
-0.009358 -0.031535 
-0.011214 -0.046832 
0.000000 0.000000 
-0.005740 -0.015844 
-0.006787 -0.015849 
-0.020959 -0.090759 
-0.018565 -0.103481 
-0.023078 -0.062896 
-0.022585 -0.077193 
-0.016226 -0.076270 
-0.019227 -0.076690 
-0.016679 -0.062056 
-0.013121 -0.031711 
-0.015804 -0.047156 
-0.018636 -0.047459 
0.000000 -0.015917 
-0.000400 -0.015919 
0.000000 0.000000 
-0.001117 -0.046328 
-0.000777 -0.031370 
0.000000 -0.046313 
0.000000 0.000000 
-0.000811 -0.015920 
-0.001242 -0.015921 
-0.001889 -0.100429 
-0.001797 -0.087864 
0.000000 -0.100365 
-0.004347 -0.060913 
-0.003307 -0.074716 
-0.005053 -0.074862 
0.000000 -0.074586 
-0.001635 -0.074623 
-0.001406 -0.060761 
0.000000 0.000000 
-0.002754 -0.015906 
-0.003368 -0.015894 
-0.001702 -0.015919 
-0.002203 -0.015915 
0.000000 0.000000 
-0.006115 -0.046546 
-0.004267 -0.031441 
-0.004732 -0.046472 
-0.002260 -0.046361 
-0.003456 -0.046409 
-0.002409 -0.031399 
-0.000707 -0.164662 
0.000000 -0.169652 
-0.004123 -0.152179 
-0.002106 -0.158873 
0.000000 -0.158235 
-0.001034 -0.158397 
-0.001320 -0.151083 
-0.015700 -0.115268 
-0.012616 -0.126054 
-0.007860 -0.124555 
-0.010139 -0.125254 
-0.010396 -0.113870 
-0.009534 -0.135803 
-0.006647 -0.144505 
0.000000 -0.123202 
-0.001858 -0.123296 
-0.001909 -0.112259 
-0.001558 -0.142762 
-0.001740 -0.133482 
0.000000 -0.142634 
-0.005899 -0.112825 
-0.003760 -0.123560 
-0.005746 -0.123984 
-0.004841 -0.143714 
-0.005388 -0.134299 
-0.003158 -0.143126 
-0.006515 -0.031483 
-0.007682 -0.061184 
-0.007634 -0.046630 
-0.009321 -0.046724 
-0.011686 -0.061557 
-0.003821 -0.100602 
-0.007978 -0.101250 
-0.005836 -0.100878 
-0.005553 -0.088203 
-0.006911 -0.075058 
-0.015544 -0.102835 
-0.013535 -0.075905 
-0.014826 -0.089691 
-0.012795 -0.102240 
-0.010284 -0.101708 
-0.008919 -0.075300 
-0.009791 -0.088830 
-0.011113 -0.075583 
0.000000 0.000000 
0.000400 -0.015919 
0.001242 -0.015921 
0.000811 -0.015920 
0.000000 0.000000 
0.000777 -0.031370 
0.001117 -0.046328 
0.003368 -0.015894 
0.002754 -0.015906 
0.000000 0.000000 
0.004732 -0.046472 
0.004267 -0.031441 
0.006115 -0.046546 
0.000000 0.000000 
0.002203 -0.015915 
0.001702 -0.015919 
0.001797 -0.087864 
0.001889 -0.100429 
0.001406 -0.060761 
0.001635 -0.074623 
0.005053 -0.074862 
0.003307 -0.074716 
0.004347 -0.060913 
0.002409 -0.031399 
0.003456 -0.046409 
0.002260 -0.046361 
0.015327 -0.018734 
0.011778 -0.016730 
0.000000 0.000000 
0.021960 -0.047994 
0.018553 -0.032601 
0.025924 -0.048999 
0.000000 0.000000 
0.009614 -0.016119 
0.008040 -0.015912 
0.018565 -0.103481 
0.020959 -0.090759 
0.021881 -0.104169 
0.016679 -0.062056 
0.019227 -0.076690 
0.016226 -0.076270 
0.026340 -0.077829 
0.022585 -0.077193 
0.023078 -0.062896 
0.000000 0.000000 
0.004841 -0.015858 
0.004058 -0.015877 
0.006787 -0.015849 
0.005740 -0.015844 
0.000000 0.000000 
0.011214 -0.046832 
0.009358 -0.031535 
0.013356 -0.046967 
0.018636 -0.047459 
0.015804 -0.047156 
0.013121 -0.031711 
0.000707 -0.164662 
0.000348 -0.169835 
0.001320 -0.151083 
0.001034 -0.158397 
0.003258 -0.159648 
0.002106 -0.158873 
0.004123 -0.152179 
0.001909 -0.112259 
0.001858 -0.123296 
0.005746 -0.123984 
0.003760 -0.123560 
0.005899 -0.112825 
0.001740 -0.133482 
0.001558 -0.142762 
0.015321 -0.126927 
0.012616 -0.126054 
0.015700 -0.115268 
0.006647 -0.144505 
0.009534 -0.135803 
0.008613 -0.145467 
0.010396 -0.113870 
0.010139 -0.125254 
0.007860 -0.124555 
0.003158 -0.143126 
0.005388 -0.134299 
0.004841 -0.143714 
0.006515 -0.031483 
0.011686 -0.061557 
0.009321 -0.046724 
0.007634 -0.046630 
0.007682 -0.061184 
0.015544 -0.102835 
0.010284 -0.101708 
0.012795 -0.102240 
0.014826 -0.089691 
0.013535 -0.075905 
0.003821 -0.100602 
0.006911 -0.075058 
0.005553 -0.088203 
0.005836 -0.100878 
0.007978 -0.101250 
0.011113 -0.075583 
0.009791 -0.088830 
0.008919 -0.075300 
0.022125 -0.026839 
0.027754 -0.037504 
0.041709 -0.069578 
0.036187 -0.054372 
0.041820 -0.059844 
0.030680 -0.050909 
0.031417 -0.064835 
0.046166 -0.119471 
0.046997 -0.108278 
0.051177 -0.108153 
0.038059 -0.107188 
0.042563 -0.107861 
0.037744 -0.119546 
0.049824 -0.085701 
0.046710 -0.096319 
0.045058 -0.083476 
0.025506 -0.104893 
0.022034 -0.116847 
0.030521 -0.078679 
0.028433 -0.092111 
0.029464 -0.118392 
0.029437 -0.105648 
0.033645 -0.106423 
0.040038 -0.081449 
0.037253 -0.093968 
0.035118 -0.079852 
0.017129 -0.188851 
0.021898 -0.181739 
0.024640 -0.177722 
0.016524 -0.185511 
0.019171 -0.184258 
0.012100 -0.192424 
0.033960 -0.162701 
0.026533 -0.174258 
0.030946 -0.166369 
0.007653 -0.182253 
0.009545 -0.183904 
0.004324 -0.188109 
0.021821 -0.170313 
0.015439 -0.177926 
0.018951 -0.169973 
0.007738 -0.191581 
0.011672 -0.185124 
0.014009 -0.185727 
0.048133 -0.128194 
0.041885 -0.139884 
0.044410 -0.129985 
0.035042 -0.158034 
0.038724 -0.149219 
0.042064 -0.146277 
0.031741 -0.151906 
0.035258 -0.151018 
0.028497 -0.161260 
0.020793 -0.178032 
0.024815 -0.169958 
0.027877 -0.168714 
0.000724 -0.170434 
-0.000049 -0.173874 
0.004532 -0.160692 
0.002270 -0.166078 
0.000028 -0.175682 
0.001184 -0.171433 
0.001768 -0.172787 
0.018274 -0.127837 
0.014450 -0.137761 
0.011438 -0.156793 
0.013137 -0.147728 
0.015735 -0.148914 
0.010768 -0.146558 
0.007409 -0.154199 
0.001967 -0.183539 
0.004611 -0.178318 
0.006008 -0.180342 
0.002514 -0.174439 
0.003453 -0.176313 
0.000604 -0.179098 
0.011463 -0.166463 
0.007113 -0.172109 
0.009410 -0.164928 