# vtk DataFile Version 2.0
Unstructured Grid Example
ASCII
DATASET UNSTRUCTURED_GRID

POINTS 81 float
0.024181 -0.293578 0.000000 
0.975819 -0.293578 0.000000 
1.000000 1.000000 0.000000 
0.000000 1.000000 0.000000 
0.500000 -0.100000 0.000000 
0.971623 0.296303 0.000000 
0.500000 1.000000 0.000000 
0.028377 0.296303 0.000000 
0.500000 0.312210 0.000000 
0.273483 -0.221904 0.000000 
0.500000 0.076635 0.000000 
0.237231 0.022316 0.000000 
0.726517 -0.221904 0.000000 
0.762769 0.022316 0.000000 
0.999266 -0.012037 0.000000 
0.743747 0.299455 0.000000 
0.948429 0.620752 0.000000 
0.731121 0.628058 0.000000 
0.750000 1.000000 0.000000 
0.500000 0.633458 0.000000 
0.250000 1.000000 0.000000 
0.268879 0.628058 0.000000 
0.051571 0.620752 0.000000 
0.256253 0.299455 0.000000 
0.000734 -0.012037 0.000000 
0.148739 -0.269683 0.000000 
0.241809 -0.101624 0.000000 
0.122524 -0.140460 0.000000 
0.500000 -0.011760 0.000000 
0.365896 -0.032769 0.000000 
0.401772 -0.100000 0.000000 
0.368375 0.176734 0.000000 
0.363454 0.061766 0.000000 
0.500000 0.184420 0.000000 
0.598228 -0.100000 0.000000 
0.634104 -0.032769 0.000000 
0.877476 -0.140460 0.000000 
0.758191 -0.101624 0.000000 
0.851261 -0.269683 0.000000 
0.636546 0.061766 0.000000 
0.631625 0.176734 0.000000 
0.996961 -0.157877 0.000000 
0.882449 -0.004440 0.000000 
0.858529 0.290851 0.000000 
0.873656 0.138932 0.000000 
0.988321 0.139721 0.000000 
0.755564 0.154801 0.000000 
0.624646 0.311158 0.000000 
0.957296 0.454526 0.000000 
0.846398 0.451539 0.000000 
0.850110 0.808759 0.000000 
0.840932 0.623538 0.000000 
0.954250 0.798483 0.000000 
0.734360 0.457071 0.000000 
0.618217 0.463413 0.000000 
0.875000 1.000000 0.000000 
0.736589 0.810500 0.000000 
0.500000 0.812528 0.000000 
0.619163 0.811581 0.000000 
0.625000 1.000000 0.000000 
0.616672 0.631573 0.000000 
0.500000 0.465679 0.000000 
0.375000 1.000000 0.000000 
0.380837 0.811581 0.000000 
0.149890 0.808759 0.000000 
0.263411 0.810500 0.000000 
0.125000 1.000000 0.000000 
0.383328 0.631573 0.000000 
0.381783 0.463413 0.000000 
0.045750 0.798483 0.000000 
0.159068 0.623538 0.000000 
0.141471 0.290851 0.000000 
0.153602 0.451539 0.000000 
0.042704 0.454526 0.000000 
0.265640 0.457071 0.000000 
0.375354 0.311158 0.000000 
0.011679 0.139721 0.000000 
0.126344 0.138932 0.000000 
0.117551 -0.004440 0.000000 
0.003039 -0.157877 0.000000 
0.244436 0.154801 0.000000 

CELLS 128 512
3  0 25 27 
3  9 26 25 
3  11 27 26 
3  25 26 27 
3  4 28 30 
3  10 29 28 
3  9 30 29 
3  28 29 30 
3  8 31 33 
3  11 32 31 
3  10 33 32 
3  31 32 33 
3  9 29 26 
3  10 32 29 
3  11 26 32 
3  29 32 26 
3  4 34 28 
3  12 35 34 
3  10 28 35 
3  34 35 28 
3  1 36 38 
3  13 37 36 
3  12 38 37 
3  36 37 38 
3  8 33 40 
3  10 39 33 
3  13 40 39 
3  33 39 40 
3  12 37 35 
3  13 39 37 
3  10 35 39 
3  37 39 35 
3  1 41 36 
3  14 42 41 
3  13 36 42 
3  41 42 36 
3  5 43 45 
3  15 44 43 
3  14 45 44 
3  43 44 45 
3  8 40 47 
3  13 46 40 
3  15 47 46 
3  40 46 47 
3  14 44 42 
3  15 46 44 
3  13 42 46 
3  44 46 42 
3  5 48 43 
3  16 49 48 
3  15 43 49 
3  48 49 43 
3  2 50 52 
3  17 51 50 
3  16 52 51 
3  50 51 52 
3  8 47 54 
3  15 53 47 
3  17 54 53 
3  47 53 54 
3  16 51 49 
3  17 53 51 
3  15 49 53 
3  51 53 49 
3  2 55 50 
3  18 56 55 
3  17 50 56 
3  55 56 50 
3  6 57 59 
3  19 58 57 
3  18 59 58 
3  57 58 59 
3  8 54 61 
3  17 60 54 
3  19 61 60 
3  54 60 61 
3  18 58 56 
3  19 60 58 
3  17 56 60 
3  58 60 56 
3  6 62 57 
3  20 63 62 
3  19 57 63 
3  62 63 57 
3  3 64 66 
3  21 65 64 
3  20 66 65 
3  64 65 66 
3  8 61 68 
3  19 67 61 
3  21 68 67 
3  61 67 68 
3  20 65 63 
3  21 67 65 
3  19 63 67 
3  65 67 63 
3  3 69 64 
3  22 70 69 
3  21 64 70 
3  69 70 64 
3  7 71 73 
3  23 72 71 
3  22 73 72 
3  71 72 73 
3  8 68 75 
3  21 74 68 
3  23 75 74 
3  68 74 75 
3  22 72 70 
3  23 74 72 
3  21 70 74 
3  72 74 70 
3  7 76 71 
3  24 77 76 
3  23 71 77 
3  76 77 71 
3  0 27 79 
3  11 78 27 
3  24 79 78 
3  27 78 79 
3  8 75 31 
3  23 80 75 
3  11 31 80 
3  75 80 31 
3  24 78 77 
3  11 80 78 
3  23 77 80 
3  78 80 77 

CELL_TYPES 128
5
5
5
5
5
5
5
5
5
5
5
5
5
5
5
5
5
5
5
5
5
5
5
5
5
5
5
5
5
5
5
5
5
5
5
5
5
5
5
5
5
5
5
5
5
5
5
5
5
5
5
5
5
5
5
5
5
5
5
5
5
5
5
5
5
5
5
5
5
5
5
5
5
5
5
5
5
5
5
5
5
5
5
5
5
5
5
5
5
5
5
5
5
5
5
5
5
5
5
5
5
5
5
5
5
5
5
5
5
5
5
5
5
5
5
5
5
5
5
5
5
5
5
5
5
5
5
5

POINT_DATA 81

SCALARS u_h float 2
LOOKUP_TABLE default
0.024181 -0.293578 
-0.024181 -0.293578 
0.000000 0.000000 
0.000000 0.000000 
-0.000000 -0.100000 
-0.028377 -0.203697 
0.000000 0.000000 
0.028377 -0.203697 
0.000000 -0.187790 
0.023483 -0.221904 
-0.000000 -0.173365 
-0.012769 -0.227684 
-0.023483 -0.221904 
0.012769 -0.227684 
-0.000734 -0.262037 
-0.006253 -0.200545 
-0.051571 -0.129248 
-0.018879 -0.121942 
0.000000 0.000000 
0.000000 -0.116542 
0.000000 0.000000 
0.018879 -0.121942 
0.051571 -0.129248 
0.006253 -0.200545 
0.000734 -0.262037 
0.023739 -0.269683 
-0.008191 -0.226624 
-0.002476 -0.265460 
-0.000000 -0.136760 
-0.009104 -0.157769 
0.026772 -0.100000 
-0.006625 -0.198266 
-0.011546 -0.188234 
0.000000 -0.190580 
-0.026772 -0.100000 
0.009104 -0.157769 
0.002476 -0.265460 
0.008191 -0.226624 
-0.023739 -0.269683 
0.011546 -0.188234 
0.006625 -0.198266 
-0.003039 -0.282877 
0.007449 -0.254440 
-0.016471 -0.209149 
-0.001344 -0.236068 
-0.011679 -0.235279 
0.005564 -0.220199 
-0.000354 -0.188842 
-0.042704 -0.170474 
-0.028602 -0.173461 
-0.024890 -0.066241 
-0.034068 -0.126462 
-0.045750 -0.076517 
-0.015640 -0.167929 
-0.006783 -0.161587 
0.000000 0.000000 
-0.013411 -0.064500 
0.000000 -0.062472 
-0.005837 -0.063419 
0.000000 0.000000 
-0.008328 -0.118427 
0.000000 -0.159321 
0.000000 0.000000 
0.005837 -0.063419 
0.024890 -0.066241 
0.013411 -0.064500 
0.000000 0.000000 
0.008328 -0.118427 
0.006783 -0.161587 
0.045750 -0.076517 
0.034068 -0.126462 
0.016471 -0.209149 
0.028602 -0.173461 
0.042704 -0.170474 
0.015640 -0.167929 
0.000354 -0.188842 
0.011679 -0.235279 
0.001344 -0.236068 
-0.007449 -0.254440 
0.003039 -0.282877 
-0.005564 -0.220199 

CELL_DATA 128

SCALARS epsilon float 4
LOOKUP_TABLE default
0.053816 0.087244 0.000000 -0.012382
0.122518 0.122914 0.000000 0.070456
-0.034101 0.056074 0.000000 0.137289
0.037037 0.140539 0.000000 0.041286
-0.235409 -0.329819 0.000000 0.000000
0.070195 -0.303825 0.000000 0.118289
0.475460 0.480753 0.000000 0.661146
0.254929 -0.423494 0.000000 0.087971
0.051596 0.023700 0.000000 0.029995
-0.002818 -0.037486 0.000000 0.190860
0.088136 -0.138986 0.000000 0.068480
0.049930 -0.083908 0.000000 0.051893
0.155184 0.224183 0.000000 0.155509
0.091202 -0.257502 0.000000 0.070008
0.021858 0.051514 0.000000 0.140946
0.007227 0.004117 0.000000 0.355221
-0.235409 -0.329819 0.000000 0.000000
0.475460 0.480753 0.000000 -0.661146
0.070195 -0.303825 0.000000 -0.118289
0.254929 -0.423494 0.000000 -0.087971
0.053816 0.087244 0.000000 0.012382
-0.034101 0.056074 0.000000 -0.137289
0.122518 0.122914 0.000000 -0.070456
0.037037 0.140539 0.000000 -0.041286
0.051596 0.023700 0.000000 -0.029995
0.088136 -0.138986 0.000000 -0.068480
-0.002818 -0.037486 0.000000 -0.190860
0.049930 -0.083908 0.000000 -0.051893
0.155184 0.224183 0.000000 -0.155509
0.021858 0.051514 0.000000 -0.140946
0.091202 -0.257502 0.000000 -0.070008
0.007227 0.004117 0.000000 -0.355221
-0.009954 0.112861 0.000000 0.023459
-0.066425 0.155663 0.000000 -0.016260
-0.034619 0.113144 0.000000 -0.077615
-0.039055 0.098453 0.000000 -0.043264
-0.087783 0.227683 0.000000 -0.053459
-0.086513 0.187556 0.000000 -0.092017
-0.082491 0.192362 0.000000 -0.043661
-0.079509 0.193569 0.000000 -0.061302
-0.001920 0.072153 0.000000 -0.031772
-0.016659 0.062661 0.000000 -0.111749
-0.052604 0.140843 0.000000 -0.089099
-0.016356 0.077161 0.000000 -0.109604
-0.069395 0.134045 0.000000 -0.063397
-0.063955 0.141141 0.000000 -0.103817
-0.054012 0.068691 0.000000 -0.130688
-0.062884 0.135187 0.000000 -0.091776
-0.090457 0.236903 0.000000 -0.043404
-0.115861 0.280317 0.000000 -0.028656
-0.087263 0.243079 0.000000 -0.076870
-0.113471 0.248910 0.000000 -0.042810
-0.123346 0.472428 0.000000 0.160953
-0.125166 0.380192 0.000000 0.025358
-0.148022 0.341643 0.000000 0.017052
-0.173804 0.384539 0.000000 0.012620
-0.002298 0.194714 0.000000 -0.028420
-0.052180 0.225789 0.000000 -0.074802
-0.074170 0.304957 0.000000 -0.031379
-0.074606 0.193810 0.000000 -0.047509
-0.149690 0.309997 0.000000 -0.031414
-0.129281 0.304848 0.000000 -0.026647
-0.109685 0.226291 0.000000 -0.057434
-0.109920 0.309774 0.000000 -0.038443
0.008470 0.406361 0.000000 0.087615
0.002504 0.398297 0.000000 0.047429
-0.095007 0.364885 0.000000 0.016971
-0.083805 0.408164 0.000000 0.091870
0.000000 0.388754 0.000000 -0.000000
-0.047788 0.347553 0.000000 -0.002638
0.000480 0.393228 0.000000 0.020705
-0.047014 0.393460 0.000000 0.019209
-0.055733 0.202833 0.000000 -0.007357
-0.088171 0.289591 0.000000 -0.016667
-0.068832 0.287550 0.000000 -0.005590
-0.055862 0.289531 0.000000 -0.012818
-0.058932 0.398891 0.000000 0.047628
-0.068499 0.352547 0.000000 0.004465
-0.086494 0.365465 0.000000 0.011958
-0.062180 0.352417 0.000000 0.006621
0.000000 0.388754 0.000000 -0.000000
0.000480 0.393228 0.000000 -0.020705
-0.047788 0.347553 0.000000 0.002638
-0.047014 0.393460 0.000000 -0.019209
0.008470 0.406361 0.000000 -0.087615
-0.095007 0.364885 0.000000 -0.016971
0.002504 0.398297 0.000000 -0.047429
-0.083805 0.408164 0.000000 -0.091870
-0.055733 0.202833 0.000000 0.007357
-0.068832 0.287550 0.000000 0.005590
-0.088171 0.289591 0.000000 0.016667
-0.055862 0.289531 0.000000 0.012818
-0.058932 0.398891 0.000000 -0.047628
-0.086494 0.365465 0.000000 -0.011958
-0.068499 0.352547 0.000000 -0.004465
-0.062180 0.352417 0.000000 -0.006621
-0.123346 0.472428 0.000000 -0.160953
-0.148022 0.341643 0.000000 -0.017052
-0.125166 0.380192 0.000000 -0.025358
-0.173804 0.384539 0.000000 -0.012620
-0.090457 0.236903 0.000000 0.043404
-0.087263 0.243079 0.000000 0.076870
-0.115861 0.280317 0.000000 0.028656
-0.113471 0.248910 0.000000 0.042810
-0.002298 0.194714 0.000000 0.028420
-0.074170 0.304957 0.000000 0.031379
-0.052180 0.225789 0.000000 0.074802
-0.074606 0.193810 0.000000 0.047509
-0.149690 0.309997 0.000000 0.031414
-0.109685 0.226291 0.000000 0.057434
-0.129281 0.304848 0.000000 0.026647
-0.109920 0.309774 0.000000 0.038443
-0.087783 0.227683 0.000000 0.053459
-0.082491 0.192362 0.000000 0.043661
-0.086513 0.187556 0.000000 0.092017
-0.079509 0.193569 0.000000 0.061302
-0.009954 0.112861 0.000000 -0.023459
-0.034619 0.113144 0.000000 0.077615
-0.066425 0.155663 0.000000 0.016260
-0.039055 0.098453 0.000000 0.043264
-0.001920 0.072153 0.000000 0.031772
-0.052604 0.140843 0.000000 0.089099
-0.016659 0.062661 0.000000 0.111749
-0.016356 0.077161 0.000000 0.109604
-0.069395 0.134045 0.000000 0.063397
-0.054012 0.068691 0.000000 0.130688
-0.063955 0.141141 0.000000 0.103817
-0.062884 0.135187 0.000000 0.091776

SCALARS sigma float 4
LOOKUP_TABLE default
1.587753 2.159787 1.029544 -0.142183
2.929503 2.375475 1.457412 0.999380
-0.901875 -0.264046 -0.320308 2.346964
1.375193 2.615083 1.096230 0.787323
-11.361285 -13.723589 -6.891449 0.000000
-2.348764 -10.253507 -3.462162 1.816607
6.994759 -2.634783 1.197796 6.783777
-3.467469 -17.499785 -5.760234 -1.559832
1.547009 1.079628 0.721604 0.468347
-1.118962 -2.730331 -1.057498 3.176638
0.635255 -3.370849 -0.751537 1.035511
0.366056 -1.896021 -0.420320 0.856094
4.128832 3.672740 2.143289 2.227835
-0.885262 -7.538299 -2.314165 0.983963
0.583540 0.287888 0.239403 2.258775
-2.854214 -7.945465 -2.966945 5.720992
-11.361285 -13.723589 -6.891449 0.000000
6.994759 -2.634783 1.197796 -6.783777
-2.348764 -10.253507 -3.462162 -1.816607
-3.467469 -17.499785 -5.760234 1.559832
1.587753 2.159787 1.029544 0.142183
-0.901875 -0.264046 -0.320308 -2.346964
2.929503 2.375475 1.457412 -0.999380
1.375193 2.615083 1.096230 -0.787323
1.547009 1.079628 0.721604 -0.468347
0.635255 -3.370849 -0.751537 -1.035511
-1.118962 -2.730331 -1.057498 -3.176638
0.366056 -1.896021 -0.420320 -0.856094
4.128832 3.672740 2.143289 -2.227835
0.583540 0.287888 0.239403 -2.258775
-0.885262 -7.538299 -2.314165 -0.983963
-2.854214 -7.945465 -2.966945 -5.720992
0.388113 2.392634 0.763942 0.230269
-0.382348 3.106275 0.748332 -0.318068
-0.065311 1.975656 0.524820 -1.360489
-0.213044 1.861380 0.452839 -0.780683
-0.572178 4.436345 1.061584 -0.647585
-0.856188 3.542453 0.737985 -1.405413
-0.597955 3.769735 0.871368 -0.597994
-0.582279 3.798851 0.883674 -0.843098
0.610283 1.807097 0.664116 -0.491509
-0.011451 1.065881 0.289679 -1.836575
-0.243046 2.822077 0.708525 -1.410618
0.141882 1.443909 0.435657 -1.795264
-0.715692 2.547616 0.503276 -1.007065
-0.591671 2.631252 0.560324 -1.679689
-1.064043 0.611906 -0.124214 -2.222469
-0.567461 2.518886 0.536106 -1.505417
-0.518253 4.629384 1.129432 -0.506197
-0.823466 5.320521 1.235455 -0.326502
-0.336956 4.794342 1.224557 -1.158875
-1.059914 4.656296 0.988017 -0.524910
-0.660733 8.642966 2.192921 1.694640
-0.325285 7.259760 1.905076 0.234250
-1.299770 6.229963 1.354448 0.162717
-1.849671 6.725531 1.339522 -0.058085
1.702710 4.686203 1.755196 -0.404187
0.551941 4.782644 1.465545 -1.158288
0.639343 6.306613 1.908230 -0.495080
-0.307693 3.888397 0.983710 -0.742012
-1.597482 5.560095 1.088630 -0.457821
-0.991143 5.693225 1.291781 -0.423892
-1.095257 4.211380 0.856078 -0.868433
-0.379527 6.009166 1.546604 -0.585834
3.463736 9.144264 3.463736 1.067230
3.403707 8.985785 3.403707 0.580312
0.495465 7.314226 2.145519 0.184405
0.865104 8.189366 2.487492 1.090800
3.332320 8.797325 3.332320 -0.000000
1.726230 7.481614 2.529628 -0.045494
3.365836 8.885806 3.365836 0.254048
2.081013 8.402824 2.880175 0.223202
0.340235 4.323546 1.281258 -0.128006
0.122502 5.845223 1.639485 -0.269551
0.665314 6.017471 1.835930 -0.098722
1.045529 6.196638 1.989606 -0.196506
1.723652 8.359119 2.769992 0.567541
1.179357 7.360249 2.346046 0.029524
0.747486 7.416821 2.242942 0.095792
1.357694 7.426292 2.413183 0.068301
3.332320 8.797325 3.332320 -0.000000
3.365836 8.885806 3.365836 -0.254048
1.726230 7.481614 2.529628 0.045494
2.081013 8.402824 2.880175 -0.223202
3.463736 9.144264 3.463736 -1.067230
0.495465 7.314226 2.145519 -0.184405
3.403707 8.985785 3.403707 -0.580312
0.865104 8.189366 2.487492 -1.090800
0.340235 4.323546 1.281258 0.128006
0.665314 6.017471 1.835930 0.098722
0.122502 5.845223 1.639485 0.269551
1.045529 6.196638 1.989606 0.196506
1.723652 8.359119 2.769992 -0.567541
0.747486 7.416821 2.242942 -0.095792
1.179357 7.360249 2.346046 -0.029524
1.357694 7.426292 2.413183 -0.068301
-0.660733 8.642966 2.192921 -1.694640
-1.299770 6.229963 1.354448 -0.162717
-0.325285 7.259760 1.905076 -0.234250
-1.849671 6.725531 1.339522 0.058085
-0.518253 4.629384 1.129432 0.506197
-0.336956 4.794342 1.224557 1.158875
-0.823466 5.320521 1.235455 0.326502
-1.059914 4.656296 0.988017 0.524910
1.702710 4.686203 1.755196 0.404187
0.639343 6.306613 1.908230 0.495080
0.551941 4.782644 1.465545 1.158288
-0.307693 3.888397 0.983710 0.742012
-1.597482 5.560095 1.088630 0.457821
-1.095257 4.211380 0.856078 0.868433
-0.991143 5.693225 1.291781 0.423892
-0.379527 6.009166 1.546604 0.585834
-0.572178 4.436345 1.061584 0.647585
-0.597955 3.769735 0.871368 0.597994
-0.856188 3.542453 0.737985 1.405413
-0.582279 3.798851 0.883674 0.843098
0.388113 2.392634 0.763942 -0.230269
-0.065311 1.975656 0.524820 1.360489
-0.382348 3.106275 0.748332 0.318068
-0.213044 1.861380 0.452839 0.780683
0.610283 1.807097 0.664116 0.491509
-0.243046 2.822077 0.708525 1.410618
-0.011451 1.065881 0.289679 1.836575
0.141882 1.443909 0.435657 1.795264
-0.715692 2.547616 0.503276 1.007065
-1.064043 0.611906 -0.124214 2.222469
-0.591671 2.631252 0.560324 1.679689
-0.567461 2.518886 0.536106 1.505417

