# vtk DataFile Version 2.0
Unstructured Grid Example
ASCII
DATASET UNSTRUCTURED_GRID

POINTS 8 float
0.000000 3.571972 0.000000 
0.250000 -7.143943 0.000000 
0.250000 3.800283 0.000000 
0.500000 -18.316481 0.000000 
0.500000 -18.316481 0.000000 
0.750000 3.800283 0.000000 
0.750000 -7.143943 0.000000 
1.000000 3.571972 0.000000 

CELLS 4 12
2  0 1 
2  2 3 
2  4 5 
2  6 7 

CELL_TYPES 4
3
3
3
3

POINT_DATA 8

SCALARS lambda_h float 1
LOOKUP_TABLE default
3.571972 
-7.143943 
3.800283 
-18.316481 
-18.316481 
3.800283 
-7.143943 
3.571972 

