# vtk DataFile Version 2.0
Unstructured Grid Example
ASCII
DATASET UNSTRUCTURED_GRID

POINTS 256 float
0.000000 0.000000 0.000000 
0.007812 0.000000 0.000000 
0.007812 0.000000 0.000000 
0.015625 0.000000 0.000000 
0.015625 0.000000 0.000000 
0.023438 0.000000 0.000000 
0.023438 0.000000 0.000000 
0.031250 0.000000 0.000000 
0.046875 0.000000 0.000000 
0.054688 0.000000 0.000000 
0.054688 0.000000 0.000000 
0.062500 0.000000 0.000000 
0.031250 0.000000 0.000000 
0.039062 0.000000 0.000000 
0.039062 0.000000 0.000000 
0.046875 0.000000 0.000000 
0.109375 0.000000 0.000000 
0.117188 0.000000 0.000000 
0.117188 0.000000 0.000000 
0.125000 0.000000 0.000000 
0.093750 0.000000 0.000000 
0.101562 0.000000 0.000000 
0.101562 0.000000 0.000000 
0.109375 0.000000 0.000000 
0.062500 0.000000 0.000000 
0.070312 0.000000 0.000000 
0.070312 0.000000 0.000000 
0.078125 0.000000 0.000000 
0.078125 0.000000 0.000000 
0.085938 0.000000 0.000000 
0.085938 0.000000 0.000000 
0.093750 0.000000 0.000000 
0.234375 -2.568998 0.000000 
0.242188 -3.729965 0.000000 
0.242188 -2.966513 0.000000 
0.250000 -4.095903 0.000000 
0.218750 -1.719489 0.000000 
0.226562 -2.973769 0.000000 
0.226562 -2.155365 0.000000 
0.234375 -3.356298 0.000000 
0.187500 0.466349 0.000000 
0.195312 -0.932698 0.000000 
0.195312 0.263537 0.000000 
0.203125 -1.926120 0.000000 
0.203125 -0.699326 0.000000 
0.210938 -2.190052 0.000000 
0.210938 -1.248703 0.000000 
0.218750 -2.582022 0.000000 
0.125000 0.000000 0.000000 
0.132812 0.000000 0.000000 
0.132812 0.000000 0.000000 
0.140625 0.000000 0.000000 
0.140625 0.000000 0.000000 
0.148438 0.000000 0.000000 
0.148438 0.000000 0.000000 
0.156250 0.000000 0.000000 
0.171875 0.000000 0.000000 
0.179688 0.000000 0.000000 
0.179688 0.000000 0.000000 
0.187500 0.000000 0.000000 
0.156250 0.000000 0.000000 
0.164062 0.000000 0.000000 
0.164062 0.000000 0.000000 
0.171875 0.000000 0.000000 
0.484375 -10.855321 0.000000 
0.492188 -10.932424 0.000000 
0.492188 -10.889431 0.000000 
0.500000 -10.941307 0.000000 
0.468750 -10.712718 0.000000 
0.476562 -10.898994 0.000000 
0.476562 -10.792782 0.000000 
0.484375 -10.925142 0.000000 
0.437500 -10.222861 0.000000 
0.445312 -10.614547 0.000000 
0.445312 -10.369966 0.000000 
0.453125 -10.712023 0.000000 
0.453125 -10.500940 0.000000 
0.460938 -10.792131 0.000000 
0.460938 -10.615325 0.000000 
0.468750 -10.854552 0.000000 
0.375000 -8.532991 0.000000 
0.382812 -9.263028 0.000000 
0.382812 -8.788265 0.000000 
0.390625 -9.482518 0.000000 
0.390625 -9.032268 0.000000 
0.398438 -9.688765 0.000000 
0.398438 -9.264332 0.000000 
0.406250 -9.881133 0.000000 
0.421875 -9.882315 0.000000 
0.429688 -10.369006 0.000000 
0.429688 -10.060129 0.000000 
0.437500 -10.500070 0.000000 
0.406250 -9.483794 0.000000 
0.414062 -10.059012 0.000000 
0.414062 -9.689999 0.000000 
0.421875 -10.221818 0.000000 
0.250000 -3.351658 0.000000 
0.257812 -4.455002 0.000000 
0.257812 -3.726906 0.000000 
0.265625 -4.807850 0.000000 
0.265625 -4.093915 0.000000 
0.273438 -5.154776 0.000000 
0.273438 -4.453780 0.000000 
0.281250 -5.495908 0.000000 
0.296875 -5.496009 0.000000 
0.304688 -6.483579 0.000000 
0.304688 -5.831577 0.000000 
0.312500 -6.800012 0.000000 
0.281250 -4.807191 0.000000 
0.289062 -5.831212 0.000000 
0.289062 -5.154545 0.000000 
0.296875 -6.160526 0.000000 
0.359375 -7.991289 0.000000 
0.367188 -8.786943 0.000000 
0.367188 -8.267113 0.000000 
0.375000 -9.030948 0.000000 
0.343750 -7.412335 0.000000 
0.351562 -8.265831 0.000000 
0.351562 -7.706157 0.000000 
0.359375 -8.531681 0.000000 
0.312500 -6.161104 0.000000 
0.320312 -7.109393 0.000000 
0.320312 -6.484331 0.000000 
0.328125 -7.411228 0.000000 
0.328125 -6.800906 0.000000 
0.335938 -7.704975 0.000000 
0.335938 -7.110404 0.000000 
0.343750 -7.990048 0.000000 
0.500000 -10.941307 0.000000 
0.507812 -10.889431 0.000000 
0.507812 -10.932424 0.000000 
0.515625 -10.855321 0.000000 
0.515625 -10.925142 0.000000 
0.523438 -10.792782 0.000000 
0.523438 -10.898994 0.000000 
0.531250 -10.712718 0.000000 
0.546875 -10.712023 0.000000 
0.554688 -10.369966 0.000000 
0.554688 -10.614547 0.000000 
0.562500 -10.222861 0.000000 
0.531250 -10.854552 0.000000 
0.539062 -10.615325 0.000000 
0.539062 -10.792131 0.000000 
0.546875 -10.500940 0.000000 
0.609375 -9.482518 0.000000 
0.617188 -8.788265 0.000000 
0.617188 -9.263028 0.000000 
0.625000 -8.532991 0.000000 
0.593750 -9.881133 0.000000 
0.601562 -9.264332 0.000000 
0.601562 -9.688765 0.000000 
0.609375 -9.032268 0.000000 
0.562500 -10.500070 0.000000 
0.570312 -10.060129 0.000000 
0.570312 -10.369006 0.000000 
0.578125 -9.882315 0.000000 
0.578125 -10.221818 0.000000 
0.585938 -9.689999 0.000000 
0.585938 -10.059012 0.000000 
0.593750 -9.483794 0.000000 
0.734375 -4.807850 0.000000 
0.742188 -3.726906 0.000000 
0.742188 -4.455002 0.000000 
0.750000 -3.351658 0.000000 
0.718750 -5.495908 0.000000 
0.726562 -4.453780 0.000000 
0.726562 -5.154776 0.000000 
0.734375 -4.093915 0.000000 
0.687500 -6.800012 0.000000 
0.695312 -5.831577 0.000000 
0.695312 -6.483579 0.000000 
0.703125 -5.496009 0.000000 
0.703125 -6.160526 0.000000 
0.710938 -5.154545 0.000000 
0.710938 -5.831212 0.000000 
0.718750 -4.807191 0.000000 
0.625000 -9.030948 0.000000 
0.632812 -8.267113 0.000000 
0.632812 -8.786943 0.000000 
0.640625 -7.991289 0.000000 
0.640625 -8.531681 0.000000 
0.648438 -7.706157 0.000000 
0.648438 -8.265831 0.000000 
0.656250 -7.412335 0.000000 
0.671875 -7.411228 0.000000 
0.679688 -6.484331 0.000000 
0.679688 -7.109393 0.000000 
0.687500 -6.161104 0.000000 
0.656250 -7.990048 0.000000 
0.664062 -7.110404 0.000000 
0.664062 -7.704975 0.000000 
0.671875 -6.800906 0.000000 
0.984375 0.000000 0.000000 
0.992188 0.000000 0.000000 
0.992188 0.000000 0.000000 
1.000000 0.000000 0.000000 
0.968750 0.000000 0.000000 
0.976562 0.000000 0.000000 
0.976562 0.000000 0.000000 
0.984375 0.000000 0.000000 
0.937500 0.000000 0.000000 
0.945312 0.000000 0.000000 
0.945312 0.000000 0.000000 
0.953125 0.000000 0.000000 
0.953125 0.000000 0.000000 
0.960938 0.000000 0.000000 
0.960938 0.000000 0.000000 
0.968750 0.000000 0.000000 
0.875000 0.000000 0.000000 
0.882812 0.000000 0.000000 
0.882812 0.000000 0.000000 
0.890625 0.000000 0.000000 
0.890625 0.000000 0.000000 
0.898438 0.000000 0.000000 
0.898438 0.000000 0.000000 
0.906250 0.000000 0.000000 
0.921875 0.000000 0.000000 
0.929688 0.000000 0.000000 
0.929688 0.000000 0.000000 
0.937500 0.000000 0.000000 
0.906250 0.000000 0.000000 
0.914062 0.000000 0.000000 
0.914062 0.000000 0.000000 
0.921875 0.000000 0.000000 
0.750000 -4.095903 0.000000 
0.757812 -2.966513 0.000000 
0.757812 -3.729965 0.000000 
0.765625 -2.568998 0.000000 
0.765625 -3.356298 0.000000 
0.773438 -2.155365 0.000000 
0.773438 -2.973769 0.000000 
0.781250 -1.719489 0.000000 
0.796875 -1.926120 0.000000 
0.804688 0.263537 0.000000 
0.804688 -0.932698 0.000000 
0.812500 0.466349 0.000000 
0.781250 -2.582022 0.000000 
0.789062 -1.248703 0.000000 
0.789062 -2.190052 0.000000 
0.796875 -0.699326 0.000000 
0.859375 0.000000 0.000000 
0.867188 0.000000 0.000000 
0.867188 0.000000 0.000000 
0.875000 0.000000 0.000000 
0.843750 0.000000 0.000000 
0.851562 0.000000 0.000000 
0.851562 0.000000 0.000000 
0.859375 0.000000 0.000000 
0.812500 0.000000 0.000000 
0.820312 0.000000 0.000000 
0.820312 0.000000 0.000000 
0.828125 0.000000 0.000000 
0.828125 0.000000 0.000000 
0.835938 0.000000 0.000000 
0.835938 0.000000 0.000000 
0.843750 0.000000 0.000000 

CELLS 128 384
2  0 1 
2  2 3 
2  4 5 
2  6 7 
2  8 9 
2  10 11 
2  12 13 
2  14 15 
2  16 17 
2  18 19 
2  20 21 
2  22 23 
2  24 25 
2  26 27 
2  28 29 
2  30 31 
2  32 33 
2  34 35 
2  36 37 
2  38 39 
2  40 41 
2  42 43 
2  44 45 
2  46 47 
2  48 49 
2  50 51 
2  52 53 
2  54 55 
2  56 57 
2  58 59 
2  60 61 
2  62 63 
2  64 65 
2  66 67 
2  68 69 
2  70 71 
2  72 73 
2  74 75 
2  76 77 
2  78 79 
2  80 81 
2  82 83 
2  84 85 
2  86 87 
2  88 89 
2  90 91 
2  92 93 
2  94 95 
2  96 97 
2  98 99 
2  100 101 
2  102 103 
2  104 105 
2  106 107 
2  108 109 
2  110 111 
2  112 113 
2  114 115 
2  116 117 
2  118 119 
2  120 121 
2  122 123 
2  124 125 
2  126 127 
2  128 129 
2  130 131 
2  132 133 
2  134 135 
2  136 137 
2  138 139 
2  140 141 
2  142 143 
2  144 145 
2  146 147 
2  148 149 
2  150 151 
2  152 153 
2  154 155 
2  156 157 
2  158 159 
2  160 161 
2  162 163 
2  164 165 
2  166 167 
2  168 169 
2  170 171 
2  172 173 
2  174 175 
2  176 177 
2  178 179 
2  180 181 
2  182 183 
2  184 185 
2  186 187 
2  188 189 
2  190 191 
2  192 193 
2  194 195 
2  196 197 
2  198 199 
2  200 201 
2  202 203 
2  204 205 
2  206 207 
2  208 209 
2  210 211 
2  212 213 
2  214 215 
2  216 217 
2  218 219 
2  220 221 
2  222 223 
2  224 225 
2  226 227 
2  228 229 
2  230 231 
2  232 233 
2  234 235 
2  236 237 
2  238 239 
2  240 241 
2  242 243 
2  244 245 
2  246 247 
2  248 249 
2  250 251 
2  252 253 
2  254 255 

CELL_TYPES 128
3
3
3
3
3
3
3
3
3
3
3
3
3
3
3
3
3
3
3
3
3
3
3
3
3
3
3
3
3
3
3
3
3
3
3
3
3
3
3
3
3
3
3
3
3
3
3
3
3
3
3
3
3
3
3
3
3
3
3
3
3
3
3
3
3
3
3
3
3
3
3
3
3
3
3
3
3
3
3
3
3
3
3
3
3
3
3
3
3
3
3
3
3
3
3
3
3
3
3
3
3
3
3
3
3
3
3
3
3
3
3
3
3
3
3
3
3
3
3
3
3
3
3
3
3
3
3
3

POINT_DATA 256

SCALARS lambda_h float 1
LOOKUP_TABLE default
0.000000 
0.000000 
0.000000 
0.000000 
0.000000 
0.000000 
0.000000 
0.000000 
0.000000 
0.000000 
0.000000 
0.000000 
0.000000 
0.000000 
0.000000 
0.000000 
0.000000 
0.000000 
0.000000 
0.000000 
0.000000 
0.000000 
0.000000 
0.000000 
0.000000 
0.000000 
0.000000 
0.000000 
0.000000 
0.000000 
0.000000 
0.000000 
-2.568998 
-3.729965 
-2.966513 
-4.095903 
-1.719489 
-2.973769 
-2.155365 
-3.356298 
0.466349 
-0.932698 
0.263537 
-1.926120 
-0.699326 
-2.190052 
-1.248703 
-2.582022 
0.000000 
0.000000 
0.000000 
0.000000 
0.000000 
0.000000 
0.000000 
0.000000 
0.000000 
0.000000 
0.000000 
0.000000 
0.000000 
0.000000 
0.000000 
0.000000 
-10.855321 
-10.932424 
-10.889431 
-10.941307 
-10.712718 
-10.898994 
-10.792782 
-10.925142 
-10.222861 
-10.614547 
-10.369966 
-10.712023 
-10.500940 
-10.792131 
-10.615325 
-10.854552 
-8.532991 
-9.263028 
-8.788265 
-9.482518 
-9.032268 
-9.688765 
-9.264332 
-9.881133 
-9.882315 
-10.369006 
-10.060129 
-10.500070 
-9.483794 
-10.059012 
-9.689999 
-10.221818 
-3.351658 
-4.455002 
-3.726906 
-4.807850 
-4.093915 
-5.154776 
-4.453780 
-5.495908 
-5.496009 
-6.483579 
-5.831577 
-6.800012 
-4.807191 
-5.831212 
-5.154545 
-6.160526 
-7.991289 
-8.786943 
-8.267113 
-9.030948 
-7.412335 
-8.265831 
-7.706157 
-8.531681 
-6.161104 
-7.109393 
-6.484331 
-7.411228 
-6.800906 
-7.704975 
-7.110404 
-7.990048 
-10.941307 
-10.889431 
-10.932424 
-10.855321 
-10.925142 
-10.792782 
-10.898994 
-10.712718 
-10.712023 
-10.369966 
-10.614547 
-10.222861 
-10.854552 
-10.615325 
-10.792131 
-10.500940 
-9.482518 
-8.788265 
-9.263028 
-8.532991 
-9.881133 
-9.264332 
-9.688765 
-9.032268 
-10.500070 
-10.060129 
-10.369006 
-9.882315 
-10.221818 
-9.689999 
-10.059012 
-9.483794 
-4.807850 
-3.726906 
-4.455002 
-3.351658 
-5.495908 
-4.453780 
-5.154776 
-4.093915 
-6.800012 
-5.831577 
-6.483579 
-5.496009 
-6.160526 
-5.154545 
-5.831212 
-4.807191 
-9.030948 
-8.267113 
-8.786943 
-7.991289 
-8.531681 
-7.706157 
-8.265831 
-7.412335 
-7.411228 
-6.484331 
-7.109393 
-6.161104 
-7.990048 
-7.110404 
-7.704975 
-6.800906 
0.000000 
0.000000 
0.000000 
0.000000 
0.000000 
0.000000 
0.000000 
0.000000 
0.000000 
0.000000 
0.000000 
0.000000 
0.000000 
0.000000 
0.000000 
0.000000 
0.000000 
0.000000 
0.000000 
0.000000 
0.000000 
0.000000 
0.000000 
0.000000 
0.000000 
0.000000 
0.000000 
0.000000 
0.000000 
0.000000 
0.000000 
0.000000 
-4.095903 
-2.966513 
-3.729965 
-2.568998 
-3.356298 
-2.155365 
-2.973769 
-1.719489 
-1.926120 
0.263537 
-0.932698 
0.466349 
-2.582022 
-1.248703 
-2.190052 
-0.699326 
0.000000 
0.000000 
0.000000 
0.000000 
0.000000 
0.000000 
0.000000 
0.000000 
0.000000 
0.000000 
0.000000 
0.000000 
0.000000 
0.000000 
0.000000 
0.000000 

