# vtk DataFile Version 2.0
Unstructured Grid Example
ASCII
DATASET UNSTRUCTURED_GRID

POINTS 128 float
0.000000 0.000000 0.000000 
0.015625 0.000000 0.000000 
0.015625 0.000000 0.000000 
0.031250 0.000000 0.000000 
0.031250 0.000000 0.000000 
0.046875 0.000000 0.000000 
0.046875 0.000000 0.000000 
0.062500 0.000000 0.000000 
0.093750 0.000000 0.000000 
0.109375 0.000000 0.000000 
0.109375 0.000000 0.000000 
0.125000 0.000000 0.000000 
0.062500 0.000000 0.000000 
0.078125 0.000000 0.000000 
0.078125 0.000000 0.000000 
0.093750 0.000000 0.000000 
0.218750 -1.361233 0.000000 
0.234375 -3.794065 0.000000 
0.234375 -2.228765 0.000000 
0.250000 -4.491832 0.000000 
0.187500 1.124216 0.000000 
0.203125 -2.248431 0.000000 
0.203125 -0.076255 0.000000 
0.218750 -3.220138 0.000000 
0.125000 0.000000 0.000000 
0.140625 0.000000 0.000000 
0.140625 0.000000 0.000000 
0.156250 0.000000 0.000000 
0.156250 0.000000 0.000000 
0.171875 0.000000 0.000000 
0.171875 0.000000 0.000000 
0.187500 0.000000 0.000000 
0.468750 -10.660076 0.000000 
0.484375 -10.963202 0.000000 
0.484375 -10.811493 0.000000 
0.500000 -10.963493 0.000000 
0.437500 -10.104465 0.000000 
0.453125 -10.829577 0.000000 
0.453125 -10.414628 0.000000 
0.468750 -10.934363 0.000000 
0.375000 -8.304871 0.000000 
0.390625 -9.723561 0.000000 
0.390625 -8.828286 0.000000 
0.406250 -10.095421 0.000000 
0.406250 -9.306287 0.000000 
0.421875 -10.406553 0.000000 
0.421875 -9.733426 0.000000 
0.437500 -10.652540 0.000000 
0.250000 -3.014440 0.000000 
0.265625 -5.183549 0.000000 
0.265625 -3.762230 0.000000 
0.281250 -5.857080 0.000000 
0.281250 -4.483813 0.000000 
0.296875 -6.508762 0.000000 
0.296875 -5.183101 0.000000 
0.312500 -7.135136 0.000000 
0.343750 -7.143297 0.000000 
0.359375 -8.817786 0.000000 
0.359375 -7.741478 0.000000 
0.375000 -9.295913 0.000000 
0.312500 -5.860667 0.000000 
0.328125 -7.732040 0.000000 
0.328125 -6.515038 0.000000 
0.343750 -8.294671 0.000000 
0.500000 -10.963493 0.000000 
0.515625 -10.811493 0.000000 
0.515625 -10.963202 0.000000 
0.531250 -10.660076 0.000000 
0.531250 -10.934363 0.000000 
0.546875 -10.414628 0.000000 
0.546875 -10.829577 0.000000 
0.562500 -10.104465 0.000000 
0.593750 -10.095421 0.000000 
0.609375 -8.828286 0.000000 
0.609375 -9.723561 0.000000 
0.625000 -8.304871 0.000000 
0.562500 -10.652540 0.000000 
0.578125 -9.733426 0.000000 
0.578125 -10.406553 0.000000 
0.593750 -9.306287 0.000000 
0.718750 -5.857080 0.000000 
0.734375 -3.762230 0.000000 
0.734375 -5.183549 0.000000 
0.750000 -3.014440 0.000000 
0.687500 -7.135136 0.000000 
0.703125 -5.183101 0.000000 
0.703125 -6.508762 0.000000 
0.718750 -4.483813 0.000000 
0.625000 -9.295913 0.000000 
0.640625 -7.741478 0.000000 
0.640625 -8.817786 0.000000 
0.656250 -7.143297 0.000000 
0.656250 -8.294671 0.000000 
0.671875 -6.515038 0.000000 
0.671875 -7.732040 0.000000 
0.687500 -5.860667 0.000000 
0.968750 0.000000 0.000000 
0.984375 0.000000 0.000000 
0.984375 0.000000 0.000000 
1.000000 0.000000 0.000000 
0.937500 0.000000 0.000000 
0.953125 0.000000 0.000000 
0.953125 0.000000 0.000000 
0.968750 0.000000 0.000000 
0.875000 0.000000 0.000000 
0.890625 0.000000 0.000000 
0.890625 0.000000 0.000000 
0.906250 0.000000 0.000000 
0.906250 0.000000 0.000000 
0.921875 0.000000 0.000000 
0.921875 0.000000 0.000000 
0.937500 0.000000 0.000000 
0.750000 -4.491832 0.000000 
0.765625 -2.228765 0.000000 
0.765625 -3.794065 0.000000 
0.781250 -1.361233 0.000000 
0.781250 -3.220138 0.000000 
0.796875 -0.076255 0.000000 
0.796875 -2.248431 0.000000 
0.812500 1.124216 0.000000 
0.843750 0.000000 0.000000 
0.859375 0.000000 0.000000 
0.859375 0.000000 0.000000 
0.875000 0.000000 0.000000 
0.812500 0.000000 0.000000 
0.828125 0.000000 0.000000 
0.828125 0.000000 0.000000 
0.843750 0.000000 0.000000 

CELLS 64 192
2  0 1 
2  2 3 
2  4 5 
2  6 7 
2  8 9 
2  10 11 
2  12 13 
2  14 15 
2  16 17 
2  18 19 
2  20 21 
2  22 23 
2  24 25 
2  26 27 
2  28 29 
2  30 31 
2  32 33 
2  34 35 
2  36 37 
2  38 39 
2  40 41 
2  42 43 
2  44 45 
2  46 47 
2  48 49 
2  50 51 
2  52 53 
2  54 55 
2  56 57 
2  58 59 
2  60 61 
2  62 63 
2  64 65 
2  66 67 
2  68 69 
2  70 71 
2  72 73 
2  74 75 
2  76 77 
2  78 79 
2  80 81 
2  82 83 
2  84 85 
2  86 87 
2  88 89 
2  90 91 
2  92 93 
2  94 95 
2  96 97 
2  98 99 
2  100 101 
2  102 103 
2  104 105 
2  106 107 
2  108 109 
2  110 111 
2  112 113 
2  114 115 
2  116 117 
2  118 119 
2  120 121 
2  122 123 
2  124 125 
2  126 127 

CELL_TYPES 64
3
3
3
3
3
3
3
3
3
3
3
3
3
3
3
3
3
3
3
3
3
3
3
3
3
3
3
3
3
3
3
3
3
3
3
3
3
3
3
3
3
3
3
3
3
3
3
3
3
3
3
3
3
3
3
3
3
3
3
3
3
3
3
3

POINT_DATA 128

SCALARS lambda_h float 1
LOOKUP_TABLE default
0.000000 
0.000000 
0.000000 
0.000000 
0.000000 
0.000000 
0.000000 
0.000000 
0.000000 
0.000000 
0.000000 
0.000000 
0.000000 
0.000000 
0.000000 
0.000000 
-1.361233 
-3.794065 
-2.228765 
-4.491832 
1.124216 
-2.248431 
-0.076255 
-3.220138 
0.000000 
0.000000 
0.000000 
0.000000 
0.000000 
0.000000 
0.000000 
0.000000 
-10.660076 
-10.963202 
-10.811493 
-10.963493 
-10.104465 
-10.829577 
-10.414628 
-10.934363 
-8.304871 
-9.723561 
-8.828286 
-10.095421 
-9.306287 
-10.406553 
-9.733426 
-10.652540 
-3.014440 
-5.183549 
-3.762230 
-5.857080 
-4.483813 
-6.508762 
-5.183101 
-7.135136 
-7.143297 
-8.817786 
-7.741478 
-9.295913 
-5.860667 
-7.732040 
-6.515038 
-8.294671 
-10.963493 
-10.811493 
-10.963202 
-10.660076 
-10.934363 
-10.414628 
-10.829577 
-10.104465 
-10.095421 
-8.828286 
-9.723561 
-8.304871 
-10.652540 
-9.733426 
-10.406553 
-9.306287 
-5.857080 
-3.762230 
-5.183549 
-3.014440 
-7.135136 
-5.183101 
-6.508762 
-4.483813 
-9.295913 
-7.741478 
-8.817786 
-7.143297 
-8.294671 
-6.515038 
-7.732040 
-5.860667 
0.000000 
0.000000 
0.000000 
0.000000 
0.000000 
0.000000 
0.000000 
0.000000 
0.000000 
0.000000 
0.000000 
0.000000 
0.000000 
0.000000 
0.000000 
0.000000 
-4.491832 
-2.228765 
-3.794065 
-1.361233 
-3.220138 
-0.076255 
-2.248431 
1.124216 
0.000000 
0.000000 
0.000000 
0.000000 
0.000000 
0.000000 
0.000000 
0.000000 

