# vtk DataFile Version 2.0
Unstructured Grid Example
ASCII
DATASET UNSTRUCTURED_GRID

POINTS 64 float
0.000000 0.000000 0.000000 
0.031250 0.000000 0.000000 
0.031250 0.000000 0.000000 
0.062500 0.000000 0.000000 
0.062500 0.000000 0.000000 
0.093750 0.000000 0.000000 
0.093750 0.000000 0.000000 
0.125000 0.000000 0.000000 
0.187500 2.161253 0.000000 
0.218750 -4.322505 0.000000 
0.218750 -0.496371 0.000000 
0.250000 -5.491015 0.000000 
0.125000 0.000000 0.000000 
0.156250 0.000000 0.000000 
0.156250 0.000000 0.000000 
0.187500 0.000000 0.000000 
0.437500 -9.933357 0.000000 
0.468750 -11.094968 0.000000 
0.468750 -10.548014 0.000000 
0.500000 -11.027265 0.000000 
0.375000 -7.913516 0.000000 
0.406250 -10.545605 0.000000 
0.406250 -9.015924 0.000000 
0.437500 -10.972879 0.000000 
0.250000 -2.425873 0.000000 
0.281250 -6.626655 0.000000 
0.281250 -3.921515 0.000000 
0.312500 -7.836154 0.000000 
0.312500 -5.331414 0.000000 
0.343750 -8.930994 0.000000 
0.343750 -6.671389 0.000000 
0.375000 -9.850624 0.000000 
0.500000 -11.027265 0.000000 
0.531250 -10.548014 0.000000 
0.531250 -11.094968 0.000000 
0.562500 -9.933357 0.000000 
0.562500 -10.972879 0.000000 
0.593750 -9.015924 0.000000 
0.593750 -10.545605 0.000000 
0.625000 -7.913516 0.000000 
0.687500 -7.836154 0.000000 
0.718750 -3.921515 0.000000 
0.718750 -6.626655 0.000000 
0.750000 -2.425873 0.000000 
0.625000 -9.850624 0.000000 
0.656250 -6.671389 0.000000 
0.656250 -8.930994 0.000000 
0.687500 -5.331414 0.000000 
0.937500 0.000000 0.000000 
0.968750 0.000000 0.000000 
0.968750 0.000000 0.000000 
1.000000 0.000000 0.000000 
0.875000 0.000000 0.000000 
0.906250 0.000000 0.000000 
0.906250 0.000000 0.000000 
0.937500 0.000000 0.000000 
0.750000 -5.491015 0.000000 
0.781250 -0.496371 0.000000 
0.781250 -4.322505 0.000000 
0.812500 2.161253 0.000000 
0.812500 0.000000 0.000000 
0.843750 0.000000 0.000000 
0.843750 0.000000 0.000000 
0.875000 0.000000 0.000000 

CELLS 32 96
2  0 1 
2  2 3 
2  4 5 
2  6 7 
2  8 9 
2  10 11 
2  12 13 
2  14 15 
2  16 17 
2  18 19 
2  20 21 
2  22 23 
2  24 25 
2  26 27 
2  28 29 
2  30 31 
2  32 33 
2  34 35 
2  36 37 
2  38 39 
2  40 41 
2  42 43 
2  44 45 
2  46 47 
2  48 49 
2  50 51 
2  52 53 
2  54 55 
2  56 57 
2  58 59 
2  60 61 
2  62 63 

CELL_TYPES 32
3
3
3
3
3
3
3
3
3
3
3
3
3
3
3
3
3
3
3
3
3
3
3
3
3
3
3
3
3
3
3
3

POINT_DATA 64

SCALARS lambda_h float 1
LOOKUP_TABLE default
0.000000 
0.000000 
0.000000 
0.000000 
0.000000 
0.000000 
0.000000 
0.000000 
2.161253 
-4.322505 
-0.496371 
-5.491015 
0.000000 
0.000000 
0.000000 
0.000000 
-9.933357 
-11.094968 
-10.548014 
-11.027265 
-7.913516 
-10.545605 
-9.015924 
-10.972879 
-2.425873 
-6.626655 
-3.921515 
-7.836154 
-5.331414 
-8.930994 
-6.671389 
-9.850624 
-11.027265 
-10.548014 
-11.094968 
-9.933357 
-10.972879 
-9.015924 
-10.545605 
-7.913516 
-7.836154 
-3.921515 
-6.626655 
-2.425873 
-9.850624 
-6.671389 
-8.930994 
-5.331414 
0.000000 
0.000000 
0.000000 
0.000000 
0.000000 
0.000000 
0.000000 
0.000000 
-5.491015 
-0.496371 
-4.322505 
2.161253 
0.000000 
0.000000 
0.000000 
0.000000 

