# vtk DataFile Version 2.0
Unstructured Grid Example
ASCII
DATASET UNSTRUCTURED_GRID

POINTS 16 float
0.000000 0.000000 0.000000 
0.125000 0.000000 0.000000 
0.125000 3.407172 0.000000 
0.250000 -6.814345 0.000000 
0.250000 2.249208 0.000000 
0.375000 -14.719933 0.000000 
0.375000 -7.529018 0.000000 
0.500000 -12.132624 0.000000 
0.500000 -12.132624 0.000000 
0.625000 -7.529018 0.000000 
0.625000 -14.719933 0.000000 
0.750000 2.249208 0.000000 
0.750000 -6.814345 0.000000 
0.875000 3.407172 0.000000 
0.875000 0.000000 0.000000 
1.000000 0.000000 0.000000 

CELLS 8 24
2  0 1 
2  2 3 
2  4 5 
2  6 7 
2  8 9 
2  10 11 
2  12 13 
2  14 15 

CELL_TYPES 8
3
3
3
3
3
3
3
3

POINT_DATA 16

SCALARS lambda_h float 1
LOOKUP_TABLE default
0.000000 
0.000000 
3.407172 
-6.814345 
2.249208 
-14.719933 
-7.529018 
-12.132624 
-12.132624 
-7.529018 
-14.719933 
2.249208 
-6.814345 
3.407172 
0.000000 
0.000000 

