# vtk DataFile Version 2.0
Unstructured Grid Example
ASCII
DATASET UNSTRUCTURED_GRID

POINTS 16641 float
0.014258 -0.237281 0.000000 
0.985742 -0.237281 0.000000 
1.000000 1.000000 0.000000 
0.000000 1.000000 0.000000 
0.500000 -0.099989 0.000000 
0.979831 0.330228 0.000000 
0.500000 1.000000 0.000000 
0.020169 0.330228 0.000000 
0.500000 0.332504 0.000000 
0.252772 -0.161106 0.000000 
0.500000 0.088868 0.000000 
0.234981 0.062094 0.000000 
0.747228 -0.161106 0.000000 
0.765019 0.062094 0.000000 
1.009434 0.036876 0.000000 
0.745251 0.323829 0.000000 
0.946672 0.639019 0.000000 
0.726367 0.637816 0.000000 
0.750000 1.000000 0.000000 
0.500000 0.641083 0.000000 
0.250000 1.000000 0.000000 
0.273633 0.637816 0.000000 
0.053328 0.639019 0.000000 
0.254749 0.323829 0.000000 
-0.009434 0.036876 0.000000 
0.138857 -0.212159 0.000000 
0.235511 -0.054025 0.000000 
0.114180 -0.087353 0.000000 
0.500000 -0.011657 0.000000 
0.364801 -0.023385 0.000000 
0.370193 -0.116817 0.000000 
0.370126 0.198391 0.000000 
0.365498 0.081195 0.000000 
0.500000 0.203046 0.000000 
0.629807 -0.116817 0.000000 
0.635199 -0.023385 0.000000 
0.885820 -0.087353 0.000000 
0.764489 -0.054025 0.000000 
0.861143 -0.212159 0.000000 
0.634502 0.081195 0.000000 
0.629874 0.198391 0.000000 
1.005349 -0.106317 0.000000 
0.889637 0.042806 0.000000 
0.864115 0.320746 0.000000 
0.879984 0.178256 0.000000 
0.998166 0.182791 0.000000 
0.757075 0.187380 0.000000 
0.623515 0.329833 0.000000 
0.960826 0.481486 0.000000 
0.847779 0.472423 0.000000 
0.840027 0.813640 0.000000 
0.836584 0.635841 0.000000 
0.945910 0.805068 0.000000 
0.733538 0.473488 0.000000 
0.617450 0.476979 0.000000 
0.875000 1.000000 0.000000 
0.729995 0.815890 0.000000 
0.500000 0.816991 0.000000 
0.615944 0.816703 0.000000 
0.625000 1.000000 0.000000 
0.613995 0.640125 0.000000 
0.500000 0.478604 0.000000 
0.375000 1.000000 0.000000 
0.384056 0.816703 0.000000 
0.159973 0.813640 0.000000 
0.270005 0.815890 0.000000 
0.125000 1.000000 0.000000 
0.386005 0.640125 0.000000 
0.382550 0.476979 0.000000 
0.054090 0.805068 0.000000 
0.163416 0.635841 0.000000 
0.135885 0.320746 0.000000 
0.152221 0.472423 0.000000 
0.039174 0.481486 0.000000 
0.266462 0.473488 0.000000 
0.376485 0.329833 0.000000 
0.001834 0.182791 0.000000 
0.120016 0.178256 0.000000 
0.110363 0.042806 0.000000 
-0.005349 -0.106317 0.000000 
0.242925 0.187380 0.000000 
0.076123 -0.226303 0.000000 
0.123616 -0.150815 0.000000 
0.063905 -0.163759 0.000000 
0.241104 -0.108851 0.000000 
0.181965 -0.131858 0.000000 
0.199195 -0.190031 0.000000 
0.171218 -0.010885 0.000000 
0.174094 -0.071956 0.000000 
0.233843 0.002982 0.000000 
0.500000 -0.057291 0.000000 
0.432751 -0.060902 0.000000 
0.434174 -0.104311 0.000000 
0.431924 0.034540 0.000000 
0.431984 -0.014661 0.000000 
0.500000 0.037004 0.000000 
0.309491 -0.136276 0.000000 
0.366679 -0.071390 0.000000 
0.302665 -0.087832 0.000000 
0.436458 0.264854 0.000000 
0.434882 0.201835 0.000000 
0.500000 0.265780 0.000000 
0.299542 0.072521 0.000000 
0.367467 0.138118 0.000000 
0.302263 0.131398 0.000000 
0.500000 0.144144 0.000000 
0.433512 0.142582 0.000000 
0.432480 0.086887 0.000000 
0.299145 -0.036995 0.000000 
0.364504 0.027419 0.000000 
0.298327 0.016435 0.000000 
0.565826 -0.104311 0.000000 
0.567249 -0.060902 0.000000 
0.697335 -0.087832 0.000000 
0.633321 -0.071390 0.000000 
0.690509 -0.136276 0.000000 
0.568016 -0.014661 0.000000 
0.568076 0.034540 0.000000 
0.936095 -0.163759 0.000000 
0.876384 -0.150815 0.000000 
0.923877 -0.226303 0.000000 
0.766157 0.002982 0.000000 
0.825906 -0.071956 0.000000 
0.828782 -0.010885 0.000000 
0.800805 -0.190031 0.000000 
0.818035 -0.131858 0.000000 
0.758896 -0.108851 0.000000 
0.565118 0.201835 0.000000 
0.563542 0.264854 0.000000 
0.567520 0.086887 0.000000 
0.566488 0.142582 0.000000 
0.697737 0.131398 0.000000 
0.632533 0.138118 0.000000 
0.700458 0.072521 0.000000 
0.700855 -0.036995 0.000000 
0.701673 0.016435 0.000000 
0.635496 0.027419 0.000000 
0.996477 -0.173930 0.000000 
0.945577 -0.098483 0.000000 
0.950103 0.037414 0.000000 
0.950205 -0.031243 0.000000 
1.009785 -0.035476 0.000000 
0.889909 -0.022835 0.000000 
0.828032 0.051577 0.000000 
0.922357 0.323204 0.000000 
0.931446 0.249905 0.000000 
0.989435 0.256187 0.000000 
0.812408 0.250364 0.000000 
0.872438 0.248496 0.000000 
0.805076 0.321390 0.000000 
1.005177 0.109729 0.000000 
0.939678 0.177972 0.000000 
0.946227 0.107178 0.000000 
0.626786 0.262227 0.000000 
0.561879 0.331832 0.000000 
0.761795 0.123476 0.000000 
0.693944 0.193271 0.000000 
0.684695 0.326944 0.000000 
0.689473 0.258375 0.000000 
0.751394 0.254075 0.000000 
0.886006 0.109767 0.000000 
0.819110 0.181908 0.000000 
0.824551 0.115741 0.000000 
0.970085 0.405202 0.000000 
0.913121 0.398152 0.000000 
0.896849 0.554282 0.000000 
0.904385 0.475064 0.000000 
0.952744 0.559343 0.000000 
0.855683 0.395286 0.000000 
0.797700 0.395262 0.000000 
0.906940 0.904525 0.000000 
0.893023 0.810453 0.000000 
0.956801 0.893134 0.000000 
0.781693 0.636616 0.000000 
0.835539 0.722841 0.000000 
0.781336 0.724243 0.000000 
0.943773 0.720781 0.000000 
0.889372 0.721328 0.000000 
0.891405 0.636197 0.000000 
0.620312 0.401381 0.000000 
0.560258 0.402915 0.000000 
0.739130 0.396892 0.000000 
0.679978 0.399189 0.000000 
0.672375 0.555260 0.000000 
0.675723 0.475271 0.000000 
0.729049 0.553781 0.000000 
0.841108 0.552488 0.000000 
0.785253 0.552638 0.000000 
0.790870 0.472257 0.000000 
0.937500 1.000000 0.000000 
0.852860 0.907295 0.000000 
0.737953 0.908003 0.000000 
0.796074 0.907884 0.000000 
0.812500 1.000000 0.000000 
0.785662 0.815126 0.000000 
0.726362 0.725399 0.000000 
0.500000 0.908074 0.000000 
0.559891 0.908061 0.000000 
0.562500 1.000000 0.000000 
0.557184 0.727525 0.000000 
0.558089 0.816912 0.000000 
0.500000 0.727690 0.000000 
0.687500 1.000000 0.000000 
0.619626 0.908046 0.000000 
0.679044 0.908030 0.000000 
0.558821 0.478175 0.000000 
0.500000 0.403460 0.000000 
0.670459 0.639065 0.000000 
0.615230 0.556621 0.000000 
0.500000 0.557894 0.000000 
0.557715 0.557558 0.000000 
0.557110 0.640831 0.000000 
0.673329 0.816370 0.000000 
0.614121 0.727063 0.000000 
0.670580 0.726341 0.000000 
0.437500 1.000000 0.000000 
0.440109 0.908061 0.000000 
0.320956 0.908030 0.000000 
0.380374 0.908046 0.000000 
0.312500 1.000000 0.000000 
0.441911 0.816912 0.000000 
0.442816 0.727525 0.000000 
0.093060 0.904525 0.000000 
0.147140 0.907295 0.000000 
0.062500 1.000000 0.000000 
0.273638 0.725399 0.000000 
0.214338 0.815126 0.000000 
0.218664 0.724243 0.000000 
0.187500 1.000000 0.000000 
0.203926 0.907884 0.000000 
0.262047 0.908003 0.000000 
0.441179 0.478175 0.000000 
0.439742 0.402915 0.000000 
0.442890 0.640831 0.000000 
0.442285 0.557558 0.000000 
0.327625 0.555260 0.000000 
0.384770 0.556621 0.000000 
0.329541 0.639065 0.000000 
0.326671 0.816370 0.000000 
0.329420 0.726341 0.000000 
0.385879 0.727063 0.000000 
0.043199 0.893134 0.000000 
0.106977 0.810453 0.000000 
0.108595 0.636197 0.000000 
0.110628 0.721328 0.000000 
0.056227 0.720781 0.000000 
0.164461 0.722841 0.000000 
0.218307 0.636616 0.000000 
0.077643 0.323204 0.000000 
0.086879 0.398152 0.000000 
0.029915 0.405202 0.000000 
0.202300 0.395262 0.000000 
0.144317 0.395286 0.000000 
0.194924 0.321390 0.000000 
0.047256 0.559343 0.000000 
0.095615 0.475064 0.000000 
0.103151 0.554282 0.000000 
0.379688 0.401381 0.000000 
0.438121 0.331832 0.000000 
0.270951 0.553781 0.000000 
0.324277 0.475271 0.000000 
0.315305 0.326944 0.000000 
0.320022 0.399189 0.000000 
0.260870 0.396892 0.000000 
0.158892 0.552488 0.000000 
0.209130 0.472257 0.000000 
0.214747 0.552638 0.000000 
0.010565 0.256187 0.000000 
0.068554 0.249905 0.000000 
0.053773 0.107178 0.000000 
0.060322 0.177972 0.000000 
-0.005177 0.109729 0.000000 
0.127562 0.248496 0.000000 
0.187592 0.250364 0.000000 
0.054423 -0.098483 0.000000 
0.003523 -0.173930 0.000000 
0.171968 0.051577 0.000000 
0.110091 -0.022835 0.000000 
-0.009785 -0.035476 0.000000 
0.049795 -0.031243 0.000000 
0.049897 0.037414 0.000000 
0.373214 0.262227 0.000000 
0.248606 0.254075 0.000000 
0.310527 0.258375 0.000000 
0.306056 0.193271 0.000000 
0.238205 0.123476 0.000000 
0.113994 0.109767 0.000000 
0.175449 0.115741 0.000000 
0.180890 0.181908 0.000000 
0.045047 -0.231905 0.000000 
0.069950 -0.195420 0.000000 
0.039386 -0.200819 0.000000 
0.130588 -0.181927 0.000000 
0.100430 -0.189306 0.000000 
0.107476 -0.219909 0.000000 
0.088493 -0.125874 0.000000 
0.093924 -0.157883 0.000000 
0.118169 -0.119233 0.000000 
0.245999 -0.135303 0.000000 
0.217140 -0.148205 0.000000 
0.225852 -0.175100 0.000000 
0.207214 -0.091985 0.000000 
0.211254 -0.120407 0.000000 
0.237716 -0.081733 0.000000 
0.169783 -0.202462 0.000000 
0.188745 -0.161310 0.000000 
0.160099 -0.172751 0.000000 
0.202449 0.026111 0.000000 
0.202307 -0.004049 0.000000 
0.234111 0.032268 0.000000 
0.144042 -0.080155 0.000000 
0.172137 -0.041576 0.000000 
0.141706 -0.048817 0.000000 
0.234272 -0.025781 0.000000 
0.202961 -0.033777 0.000000 
0.204539 -0.063091 0.000000 
0.152909 -0.142179 0.000000 
0.177273 -0.102050 0.000000 
0.147693 -0.111275 0.000000 
0.500000 -0.079007 0.000000 
0.466600 -0.080002 0.000000 
0.466968 -0.101077 0.000000 
0.466075 -0.035674 0.000000 
0.466298 -0.058201 0.000000 
0.500000 -0.034844 0.000000 
0.401849 -0.109604 0.000000 
0.433393 -0.082957 0.000000 
0.400556 -0.087798 0.000000 
0.466029 0.061964 0.000000 
0.465920 0.036383 0.000000 
0.500000 0.062523 0.000000 
0.398240 -0.018347 0.000000 
0.431869 0.009559 0.000000 
0.398036 0.006217 0.000000 
0.500000 0.012285 0.000000 
0.465888 0.011598 0.000000 
0.465938 -0.012414 0.000000 
0.280624 -0.148117 0.000000 
0.305653 -0.112322 0.000000 
0.275470 -0.123270 0.000000 
0.368248 -0.094409 0.000000 
0.336587 -0.102641 0.000000 
0.339369 -0.125774 0.000000 
0.332772 -0.054625 0.000000 
0.334378 -0.078943 0.000000 
0.365529 -0.047725 0.000000 
0.432277 -0.038142 0.000000 
0.398727 -0.042189 0.000000 
0.399503 -0.065332 0.000000 
[...]
POINT_DATA 16641

SCALARS u_h float 2
LOOKUP_TABLE default
0.014258 -0.237281 
-0.014258 -0.237281 
0.000000 0.000000 
0.000000 0.000000 
0.000000 -0.099989 
-0.020169 -0.169772 
0.000000 0.000000 
0.020169 -0.169772 
0.000000 -0.167496 
0.002772 -0.161106 
0.000000 -0.161132 
-0.015019 -0.187906 
-0.002772 -0.161106 
0.015019 -0.187906 
0.009434 -0.213124 
-0.004749 -0.176171 
-0.053328 -0.110981 
-0.023633 -0.112184 
0.000000 0.000000 
0.000000 -0.108917 
0.000000 0.000000 
0.023633 -0.112184 
0.053328 -0.110981 
0.004749 -0.176171 
-0.009434 -0.213124 
0.013857 -0.212159 
-0.014489 -0.179025 
-0.010820 -0.212353 
0.000000 -0.136657 
-0.010199 -0.148385 
-0.004807 -0.116817 
-0.004874 -0.176609 
-0.009502 -0.168805 
0.000000 -0.171954 
0.004807 -0.116817 
0.010199 -0.148385 
0.010820 -0.212353 
0.014489 -0.179025 
-0.013857 -0.212159 
0.009502 -0.168805 
0.004874 -0.176609 
0.005349 -0.231317 
0.014637 -0.207194 
-0.010885 -0.179254 
0.004984 -0.196744 
-0.001834 -0.192209 
0.007075 -0.187620 
-0.001485 -0.170167 
-0.039174 -0.143514 
-0.027221 -0.152577 
-0.034973 -0.061360 
-0.038416 -0.114159 
-0.054090 -0.069932 
-0.016462 -0.151512 
-0.007550 -0.148021 
0.000000 0.000000 
-0.020005 -0.059110 
0.000000 -0.058009 
-0.009056 -0.058297 
0.000000 0.000000 
-0.011005 -0.109875 
0.000000 -0.146396 
0.000000 0.000000 
0.009056 -0.058297 
0.034973 -0.061360 
0.020005 -0.059110 
0.000000 0.000000 
0.011005 -0.109875 
0.007550 -0.148021 
0.054090 -0.069932 
0.038416 -0.114159 
0.010885 -0.179254 
0.027221 -0.152577 
0.039174 -0.143514 
0.016462 -0.151512 
0.001485 -0.170167 
0.001834 -0.192209 
-0.004984 -0.196744 
-0.014637 -0.207194 
-0.005349 -0.231317 
-0.007075 -0.187620 
0.013623 -0.226303 
-0.001384 -0.213315 
0.001405 -0.226259 
-0.008896 -0.171351 
-0.005535 -0.194358 
0.011695 -0.190031 
-0.016282 -0.198385 
-0.013406 -0.196956 
-0.016157 -0.184518 
0.000000 -0.119791 
-0.004749 -0.123402 
-0.003326 -0.104311 
-0.005576 -0.152960 
-0.005516 -0.139661 
0.000000 -0.150496 
-0.003009 -0.136276 
-0.008321 -0.133890 
-0.009835 -0.150332 
-0.001042 -0.172646 
-0.002618 -0.173165 
0.000000 -0.171720 
-0.012958 -0.177479 
-0.007533 -0.174382 
-0.010237 -0.181102 
0.000000 -0.168356 
-0.003988 -0.169918 
-0.005020 -0.163113 
-0.013355 -0.161995 
-0.010496 -0.160081 
-0.014173 -0.171065 
0.003326 -0.104311 
0.004749 -0.123402 
0.009835 -0.150332 
0.008321 -0.133890 
0.003009 -0.136276 
0.005516 -0.139661 
0.005576 -0.152960 
-0.001405 -0.226259 
0.001384 -0.213315 
-0.013623 -0.226303 
0.016157 -0.184518 
0.013406 -0.196956 
0.016282 -0.198385 
-0.011695 -0.190031 
0.005535 -0.194358 
0.008896 -0.171351 
0.002618 -0.173165 
0.001042 -0.172646 
0.005020 -0.163113 
0.003988 -0.169918 
0.010237 -0.181102 
0.007533 -0.174382 
0.012958 -0.177479 
0.013355 -0.161995 
0.014173 -0.171065 
0.010496 -0.160081 
-0.003523 -0.236430 
0.008077 -0.223483 
0.012603 -0.212586 
0.012705 -0.218743 
0.009785 -0.222976 
0.014909 -0.210335 
0.015532 -0.198423 
-0.015143 -0.176796 
-0.006054 -0.187595 
-0.010565 -0.181313 
-0.000092 -0.187136 
-0.002562 -0.189004 
-0.007424 -0.178610 
0.005177 -0.202771 
0.002178 -0.197028 
0.008727 -0.205322 
0.001786 -0.175273 
-0.000621 -0.168168 
0.011795 -0.189024 
0.006444 -0.181729 
-0.002805 -0.173056 
0.001973 -0.179125 
0.001394 -0.183425 
0.011006 -0.202733 
0.006610 -0.193092 
0.012051 -0.196759 
-0.029915 -0.157298 
-0.024379 -0.164348 
-0.040651 -0.133218 
-0.033115 -0.149936 
-0.047256 -0.128157 
-0.019317 -0.167214 
-0.014800 -0.167238 
-0.030560 -0.032975 
-0.044477 -0.064547 
-0.043199 -0.044366 
-0.030807 -0.113384 
-0.039461 -0.089659 
-0.031164 -0.088257 
-0.056227 -0.091719 
-0.048128 -0.091172 
-0.046095 -0.113803 
-0.004688 -0.161119 
-0.002242 -0.159585 
-0.010870 -0.165608 
-0.007522 -0.163311 
-0.015125 -0.132240 
-0.011777 -0.149729 
-0.020951 -0.133719 
-0.033892 -0.135012 
-0.027247 -0.134862 
-0.021630 -0.152743 
0.000000 0.000000 
-0.022140 -0.030205 
-0.012047 -0.029497 
-0.016426 -0.029616 
0.000000 0.000000 
-0.026838 -0.059874 
-0.023638 -0.087101 
0.000000 -0.029426 
-0.002609 -0.029439 
0.000000 0.000000 
-0.005316 -0.084975 
-0.004411 -0.058088 
0.000000 -0.084810 
0.000000 0.000000 
-0.005374 -0.029454 
-0.008456 -0.029470 
-0.003679 -0.146825 
0.000000 -0.159040 
-0.017041 -0.110935 
-0.009770 -0.130879 
0.000000 -0.129606 
-0.004785 -0.129942 
-0.005390 -0.109169 
-0.014171 -0.058630 
-0.010879 -0.085437 
-0.016920 -0.086159 
0.000000 0.000000 
0.002609 -0.029439 
0.008456 -0.029470 
0.005374 -0.029454 
0.000000 0.000000 
0.004411 -0.058088 
0.005316 -0.084975 
0.030560 -0.032975 
0.022140 -0.030205 
0.000000 0.000000 
0.023638 -0.087101 
0.026838 -0.059874 
0.031164 -0.088257 
0.000000 0.000000 
0.016426 -0.029616 
0.012047 -0.029497 
0.003679 -0.146825 
0.002242 -0.159585 
0.005390 -0.109169 
0.004785 -0.129942 
0.015125 -0.132240 
0.009770 -0.130879 
0.017041 -0.110935 
0.014171 -0.058630 
0.016920 -0.086159 
0.010879 -0.085437 
0.043199 -0.044366 
0.044477 -0.064547 
0.046095 -0.113803 
0.048128 -0.091172 
0.056227 -0.091719 
0.039461 -0.089659 
0.030807 -0.113384 
0.015143 -0.176796 
0.024379 -0.164348 
0.029915 -0.157298 
0.014800 -0.167238 
0.019317 -0.167214 
0.007424 -0.178610 
0.047256 -0.128157 
0.033115 -0.149936 
0.040651 -0.133218 
0.004688 -0.161119 
0.000621 -0.168168 
0.020951 -0.133719 
0.011777 -0.149729 
0.002805 -0.173056 
0.007522 -0.163311 
0.010870 -0.165608 
0.033892 -0.135012 
0.021630 -0.152743 
0.027247 -0.134862 
0.010565 -0.181313 
0.006054 -0.187595 
-0.008727 -0.205322 
-0.002178 -0.197028 
-0.005177 -0.202771 
0.002562 -0.189004 
0.000092 -0.187136 
-0.008077 -0.223483 
0.003523 -0.236430 
-0.015532 -0.198423 
-0.014909 -0.210335 
-0.009785 -0.222976 
-0.012705 -0.218743 
-0.012603 -0.212586 
-0.001786 -0.175273 
-0.001394 -0.183425 
-0.001973 -0.179125 
-0.006444 -0.181729 
-0.011795 -0.189024 
-0.011006 -0.202733 
-0.012051 -0.196759 
-0.006610 -0.193092 
0.013797 -0.231905 
0.007450 -0.226670 
0.008136 -0.232069 
0.005588 -0.213177 
0.006680 -0.220556 
0.013726 -0.219909 
-0.005257 -0.219624 
0.000174 -0.220383 
-0.006831 -0.212983 
-0.004001 -0.166553 
-0.001610 -0.179455 
0.007102 -0.175100 
-0.011536 -0.185735 
-0.007496 -0.182907 
-0.012284 -0.175483 
0.013533 -0.202462 
0.001245 -0.192560 
0.003849 -0.204001 
-0.016301 -0.192639 
-0.016443 -0.191549 
-0.015889 -0.186482 
-0.012208 -0.205155 
-0.015363 -0.197826 
-0.014544 -0.205067 
-0.015728 -0.182031 
-0.015789 -0.190027 
-0.014211 -0.188091 
-0.003341 -0.204679 
-0.010227 -0.195800 
-0.008557 -0.205025 
0.000000 -0.110257 
-0.002150 -0.111252 
-0.001782 -0.101077 
-0.002675 -0.129424 
-0.002452 -0.120701 
0.000000 -0.128594 
-0.004401 -0.109604 
-0.004107 -0.114207 
-0.005694 -0.119048 
-0.002721 -0.156786 
-0.002830 -0.151117 
0.000000 -0.156227 
-0.008010 -0.143347 
-0.005631 -0.146691 
-0.008214 -0.150033 
0.000000 -0.143965 
-0.002862 -0.144652 
-0.002812 -0.137414 
-0.000626 -0.148117 
-0.006847 -0.143572 
-0.005780 -0.154520 
-0.006752 -0.125659 
-0.007163 -0.133891 
-0.004381 -0.125774 
-0.010978 -0.148375 
-0.009372 -0.141443 
-0.009471 -0.141475 
-0.005223 -0.131892 
-0.007523 -0.135939 
-0.006747 -0.127832 
-0.000126 -0.170310 
-0.000540 -0.171953 
0.000000 -0.170110 
-0.003813 -0.174634 
-0.001848 -0.173389 
-0.002668 -0.174675 
0.000000 -0.172328 
-0.000945 -0.172596 
-0.001332 -0.172260 
-0.014179 -0.182569 
-0.011757 -0.179651 
-0.012866 -0.184112 
-0.008621 -0.171999 
-0.010329 -0.175561 
-0.011385 -0.172835 
-0.007476 -0.178675 
-0.009012 -0.177517 
-0.006273 -0.175927 
0.000000 -0.165184 
-0.002309 -0.165629 
-0.002545 -0.161632 
-0.001694 -0.170970 
-0.002022 -0.168751 
0.000000 -0.170622 
-0.007361 -0.165529 
-0.004555 -0.166947 
-0.006678 -0.169094 
-0.004879 -0.173673 
-0.005842 -0.171817 
-0.003337 -0.171999 
-0.009678 -0.160376 
-0.012003 -0.154653 
-0.011979 -0.156484 
-0.012426 -0.165605 
-0.014197 -0.170208 
-0.005367 -0.158442 
-0.010140 -0.164825 
-0.007863 -0.161148 
-0.008157 -0.155975 
-0.010529 -0.154594 
-0.015047 -0.180390 
-0.015146 -0.174201 
-0.015396 -0.177596 
-0.013784 -0.174610 
-0.012133 -0.169361 
-0.012498 -0.160254 
-0.012522 -0.165162 
-0.014056 -0.166857 
0.001782 -0.101077 
0.002150 -0.111252 
0.005694 -0.119048 
0.004107 -0.114207 
0.004401 -0.109604 
0.002452 -0.120701 
0.002675 -0.129424 
0.005780 -0.154520 
0.006847 -0.143572 
0.000626 -0.148117 
0.009471 -0.141475 
0.009372 -0.141443 
0.010978 -0.148375 
0.004381 -0.125774 
0.007163 -0.133891 
0.006752 -0.125659 
0.002830 -0.151117 
0.002721 -0.156786 
0.002812 -0.137414 
0.002862 -0.144652 
0.008214 -0.150033 
0.005631 -0.146691 
0.008010 -0.143347 
0.006747 -0.127832 
0.007523 -0.135939 
0.005223 -0.131892 
-0.008136 -0.232069 
-0.007450 -0.226670 
-0.013797 -0.231905 
0.006831 -0.212983 
-0.000174 -0.220383 
0.005257 -0.219624 
-0.013726 -0.219909 
-0.006680 -0.220556 
-0.005588 -0.213177 
0.015889 -0.186482 
0.016443 -0.191549 
0.016301 -0.192639 
0.014211 -0.188091 
0.015789 -0.190027 
0.015728 -0.182031 
0.014544 -0.205067 
0.015363 -0.197826 
0.012208 -0.205155 
-0.007102 -0.175100 
0.001610 -0.179455 
0.004001 -0.166553 
-0.003849 -0.204001 
-0.001245 -0.192560 
-0.013533 -0.202462 
0.012284 -0.175483 
0.007496 -0.182907 
0.011536 -0.185735 
0.008557 -0.205025 
0.010227 -0.195800 
0.003341 -0.204679 
0.000540 -0.171953 
0.000126 -0.170310 
0.001332 -0.172260 
0.000945 -0.172596 
0.002668 -0.174675 
0.001848 -0.173389 
0.003813 -0.174634 
0.002545 -0.161632 
0.002309 -0.165629 
0.006678 -0.169094 
0.004555 -0.166947 
0.007361 -0.165529 
0.002022 -0.168751 
0.001694 -0.170970 
0.012866 -0.184112 
0.011757 -0.179651 
0.014179 -0.182569 
0.006273 -0.175927 
0.009012 -0.177517 
0.007476 -0.178675 
0.011385 -0.172835 
0.010329 -0.175561 
0.008621 -0.171999 
0.003337 -0.171999 
0.005842 -0.171817 
0.004879 -0.173673 
0.009678 -0.160376 
0.014197 -0.170208 
0.012426 -0.165605 
0.011979 -0.156484 
0.012003 -0.154653 
0.015047 -0.180390 
0.012133 -0.169361 
0.013784 -0.174610 
0.015396 -0.177596 
0.015146 -0.174201 
0.005367 -0.158442 
0.010529 -0.154594 
0.008157 -0.155975 
0.007863 -0.161148 
0.010140 -0.164825 
0.014056 -0.166857 
0.012522 -0.165162 
0.012498 -0.160254 
-0.008875 -0.237342 
-0.002462 -0.231418 
0.006771 -0.227690 
0.002644 -0.229934 
0.001361 -0.234389 
0.003886 -0.225160 
0.009417 -0.218437 
0.011181 -0.213565 
0.011829 -0.217631 
0.010167 -0.218156 
0.014332 -0.212870 
0.013195 -0.215817 
0.013751 -0.210403 
0.008188 -0.227432 
0.011371 -0.221410 
0.009700 -0.224804 
0.016300 -0.198597 
0.015467 -0.193268 
0.013472 -0.211473 
0.015739 -0.204729 
0.015242 -0.203137 
0.015931 -0.204099 
0.015255 -0.208917 
0.011022 -0.221319 
0.013880 -0.215036 
0.012274 -0.216896 
-0.017564 -0.173954 
-0.012811 -0.179705 
-0.015304 -0.175647 
-0.008489 -0.183882 
-0.010537 -0.182383 
-0.012915 -0.178501 
-0.006042 -0.186819 
-0.008184 -0.185168 
-0.003772 -0.190380 
-0.002576 -0.181854 
-0.003716 -0.183212 
-0.005991 -0.177540 
0.001352 -0.193108 
-0.001201 -0.188386 
0.002502 -0.192083 
-0.009055 -0.179234 
-0.005080 -0.184115 
-0.006670 -0.184397 
0.007721 -0.207978 
0.007120 -0.204812 
0.009562 -0.209279 
0.000324 -0.195375 
0.003996 -0.200179 
0.001947 -0.197518 
0.007132 -0.201152 
0.005721 -0.201307 
0.003730 -0.197410 
-0.004180 -0.188805 
-0.000075 -0.193304 
-0.001783 -0.192466 
0.000214 -0.170912 
-0.000294 -0.167642 
0.003368 -0.176400 
0.001468 -0.173769 
-0.001008 -0.169025 
0.000235 -0.171893 
0.000158 -0.173203 
0.013629 -0.188763 
0.011173 -0.184993 
0.006889 -0.184647 
0.009161 -0.185182 
0.009588 -0.188654 
0.008449 -0.181804 
0.005763 -0.179009 
-0.003691 -0.174637 
-0.000930 -0.178382 
-0.001650 -0.180197 
-0.000046 -0.174779 
-0.000401 -0.176538 
-0.002076 -0.171536 
0.004323 -0.185889 
0.001790 -0.181279 
0.004414 -0.183356 
0.003912 -0.178489 
0.004270 -0.180846 
0.001964 -0.177088 
0.011067 -0.209082 
0.008237 -0.199943 
0.010019 -0.204554 
0.012268 -0.207633 
0.013179 -0.205141 
0.000771 -0.185428 
0.006986 -0.190492 
0.003981 -0.188296 
0.003376 -0.190418 
0.005944 -0.195239 
0.014034 -0.193404 
0.013790 -0.201804 
0.014083 -0.197822 
0.012089 -0.193011 
0.009713 -0.192052 
0.009037 -0.197889 
0.009530 -0.195194 
0.011687 -0.200067 
-0.025062 -0.163684 
-0.022351 -0.167876 
-0.031715 -0.154582 
-0.027094 -0.161433 
-0.034647 -0.150586 
-0.019784 -0.170797 
-0.017373 -0.172625 
-0.047214 -0.122315 
-0.043987 -0.131194 
-0.050606 -0.119812 
-0.030139 -0.151643 
-0.037082 -0.141888 
-0.033909 -0.143390 
-0.043409 -0.136048 
-0.040255 -0.139503 
-0.036131 -0.147286 
-0.011143 -0.173297 
-0.009409 -0.172454 
-0.015127 -0.173539 
-0.013049 -0.173709 
-0.020791 -0.160577 
-0.016987 -0.167502 
-0.023376 -0.160240 
-0.028851 -0.157408 
-0.026067 -0.159237 
-0.021784 -0.166217 
-0.022442 -0.018701 
-0.036517 -0.037008 
-0.031469 -0.028564 
-0.039582 -0.062663 
-0.039246 -0.049408 
-0.034207 -0.047238 
-0.050126 -0.057784 
-0.044742 -0.052918 
-0.049440 -0.067062 
-0.027152 -0.112809 
-0.031471 -0.101268 
-0.027667 -0.100660 
-0.039481 -0.102384 
-0.035422 -0.101856 
-0.034574 -0.113858 
-0.033754 -0.075101 
-0.035229 -0.088926 
-0.038074 -0.075971 
-0.055267 -0.101631 
-0.051574 -0.102639 
-0.049799 -0.112816 
-0.051750 -0.079900 
-0.052322 -0.091703 
-0.055951 -0.081185 
-0.042277 -0.114187 
-0.047648 -0.102930 
-0.043584 -0.102782 
-0.042599 -0.077075 
-0.043795 -0.090433 
-0.047220 -0.078422 
-0.001446 -0.164397 
-0.000711 -0.163936 
-0.003112 -0.166144 
-0.002238 -0.165146 
-0.004550 -0.154308 
-0.003427 -0.160244 
-0.006180 -0.155079 
-0.007844 -0.171318 
-0.006442 -0.170014 
-0.011685 -0.158039 
-0.009126 -0.164490 
-0.013766 -0.159014 
-0.005196 -0.168655 
-0.004091 -0.167337 
-0.019367 -0.122732 
-0.017977 -0.132990 
-0.022569 -0.123415 
-0.009611 -0.148834 
-0.013595 -0.141472 
-0.011125 -0.140672 
-0.018885 -0.143085 
-0.016180 -0.142297 
-0.014059 -0.150646 
-0.006047 -0.162162 
-0.009733 -0.157007 
-0.007902 -0.155997 
-0.043703 -0.123876 
-0.036492 -0.125019 
-0.040113 -0.124716 
-0.037274 -0.134432 
-0.030761 -0.144182 
-0.025899 -0.124051 
-0.021707 -0.143762 
-0.024045 -0.134368 
-0.029347 -0.124582 
-0.032889 -0.124936 
-0.012761 -0.166563 
-0.024379 -0.152896 
-0.018322 -0.160397 
-0.015979 -0.159836 
-0.018988 -0.152244 
-0.030538 -0.135112 
-0.024637 -0.144241 
-0.027662 -0.144420 
0.000000 0.000000 
-0.017302 -0.015827 
-0.012037 -0.014649 
-0.014225 -0.014944 
0.000000 0.000000 
-0.025867 -0.031077 
-0.029772 -0.045983 
-0.006471 -0.014627 
-0.007594 -0.014590 
0.000000 0.000000 
-0.019367 -0.044577 
-0.014114 -0.029533 
-0.016581 -0.044401 
0.000000 0.000000 
-0.008856 -0.014561 
-0.010308 -0.014564 
-0.027297 -0.087650 
-0.024031 -0.100059 
-0.030726 -0.060479 
-0.029687 -0.074416 
-0.022332 -0.073405 
-0.025883 -0.073864 
-0.023277 -0.059440 
-0.019060 -0.029802 
-0.022445 -0.044840 
-0.025884 -0.045263 
0.000000 -0.014765 
-0.000690 -0.014767 
0.000000 0.000000 
-0.001798 -0.043893 
-0.001295 -0.029432 
0.000000 -0.043880 
0.000000 0.000000 
-0.001392 -0.014762 
-0.002115 -0.014754 
-0.002709 -0.097306 
-0.002643 -0.084854 
0.000000 -0.097251 
-0.006690 -0.058177 
-0.004975 -0.071813 
-0.007539 -0.071955 
0.000000 -0.071692 
-0.002472 -0.071725 
-0.002191 -0.058032 
0.000000 0.000000 
-0.004529 -0.014695 
-0.005456 -0.014663 
-0.002872 -0.014740 
-0.003672 -0.014720 
0.000000 0.000000 
-0.009500 -0.044088 
-0.006864 -0.029462 
-0.007446 -0.044019 
-0.003621 -0.043921 
-0.005495 -0.043963 
-0.003962 -0.029446 
-0.001109 -0.159178 
0.000000 -0.163784 
-0.005579 -0.147339 
-0.002992 -0.153727 
0.000000 -0.153244 
-0.001484 -0.153366 
-0.001827 -0.146505 
-0.020263 -0.111548 
-0.016299 -0.122051 
-0.010534 -0.120840 
-0.013358 -0.121409 
-0.013960 -0.110370 
-0.012393 -0.131523 
-0.008761 -0.139949 
0.000000 -0.119725 
-0.002567 -0.119801 
-0.002681 -0.108983 
-0.002129 -0.138606 
-0.002380 -0.129692 
0.000000 -0.138508 
-0.008156 -0.109470 
-0.005161 -0.120018 
-0.007809 -0.120370 
-0.006487 -0.139344 
-0.007241 -0.130344 
-0.004283 -0.138889 
-0.010174 -0.029480 
-0.011540 -0.058448 
-0.011686 -0.044172 
-0.014035 -0.044273 
-0.016981 -0.058848 
-0.005449 -0.097460 
-0.011135 -0.098047 
-0.008248 -0.097710 
-0.008052 -0.085171 
-0.010196 -0.072147 
-0.020568 -0.099482 
-0.019015 -0.073014 
-0.020184 -0.086604 
-0.017274 -0.098946 
-0.014136 -0.098463 
-0.012974 -0.072389 
-0.013826 -0.085769 
-0.015904 -0.072677 
0.000000 0.000000 
0.000690 -0.014767 
0.002115 -0.014754 
0.001392 -0.014762 
0.000000 0.000000 
0.001295 -0.029432 
0.001798 -0.043893 
0.005456 -0.014663 
0.004529 -0.014695 
0.000000 0.000000 
0.007446 -0.044019 
0.006864 -0.029462 
0.009500 -0.044088 
0.000000 0.000000 
0.003672 -0.014720 
0.002872 -0.014740 
0.002643 -0.084854 
0.002709 -0.097306 
0.002191 -0.058032 
0.002472 -0.071725 
0.007539 -0.071955 
0.004975 -0.071813 
0.006690 -0.058177 
0.003962 -0.029446 
0.005495 -0.043963 
0.003621 -0.043921 
0.022442 -0.018701 
0.017302 -0.015827 
0.000000 0.000000 
0.029772 -0.045983 
0.025867 -0.031077 
0.034207 -0.047238 
0.000000 0.000000 
0.014225 -0.014944 
0.012037 -0.014649 
0.024031 -0.100059 
0.027297 -0.087650 
0.027667 -0.100660 
0.023277 -0.059440 
0.025883 -0.073864 
0.022332 -0.073405 
0.033754 -0.075101 
0.029687 -0.074416 
0.030726 -0.060479 
0.000000 0.000000 
0.007594 -0.014590 
0.006471 -0.014627 
0.010308 -0.014564 
0.008856 -0.014561 
0.000000 0.000000 
0.016581 -0.044401 
0.014114 -0.029533 
0.019367 -0.044577 
0.025884 -0.045263 
0.022445 -0.044840 
0.019060 -0.029802 
0.001109 -0.159178 
0.000711 -0.163936 
0.001827 -0.146505 
0.001484 -0.153366 
0.004550 -0.154308 
0.002992 -0.153727 
0.005579 -0.147339 
0.002681 -0.108983 
0.002567 -0.119801 
0.007809 -0.120370 
0.005161 -0.120018 
0.008156 -0.109470 
0.002380 -0.129692 
0.002129 -0.138606 
0.019367 -0.122732 
0.016299 -0.122051 
0.020263 -0.111548 
0.008761 -0.139949 
0.012393 -0.131523 
0.011125 -0.140672 
0.013960 -0.110370 
0.013358 -0.121409 
0.010534 -0.120840 
0.004283 -0.138889 
0.007241 -0.130344 
0.006487 -0.139344 
0.010174 -0.029480 
0.016981 -0.058848 
0.014035 -0.044273 
0.011686 -0.044172 
0.011540 -0.058448 
0.020568 -0.099482 
0.014136 -0.098463 
0.017274 -0.098946 
0.020184 -0.086604 
0.019015 -0.073014 
0.005449 -0.097460 
0.010196 -0.072147 
0.008052 -0.085171 
0.008248 -0.097710 
0.011135 -0.098047 
0.015904 -0.072677 
0.013826 -0.085769 
0.012974 -0.072389 
0.031469 -0.028564 
0.036517 -0.037008 
0.049440 -0.067062 
0.044742 -0.052918 
0.050126 -0.057784 
0.039246 -0.049408 
0.039582 -0.062663 
0.049799 -0.112816 
0.051574 -0.102639 
0.055267 -0.101631 
0.043584 -0.102782 
0.047648 -0.102930 
0.042277 -0.114187 
0.055951 -0.081185 
0.052322 -0.091703 
0.051750 -0.079900 
0.031471 -0.101268 
0.027152 -0.112809 
0.038074 -0.075971 
0.035229 -0.088926 
0.034574 -0.113858 
0.035422 -0.101856 
0.039481 -0.102384 
0.047220 -0.078422 
0.043795 -0.090433 
0.042599 -0.077075 
0.017564 -0.173954 
0.022351 -0.167876 
0.025062 -0.163684 
0.017373 -0.172625 
0.019784 -0.170797 
0.012915 -0.178501 
0.034647 -0.150586 
0.027094 -0.161433 
0.031715 -0.154582 
0.009409 -0.172454 
0.011143 -0.173297 
0.005991 -0.177540 
0.023376 -0.160240 
0.016987 -0.167502 
0.020791 -0.160577 
0.009055 -0.179234 
0.013049 -0.173709 
0.015127 -0.173539 
0.050606 -0.119812 
0.043987 -0.131194 
0.047214 -0.122315 
0.036131 -0.147286 
0.040255 -0.139503 
0.043409 -0.136048 
0.033909 -0.143390 
0.037082 -0.141888 
0.030139 -0.151643 
0.021784 -0.166217 
0.026067 -0.159237 
0.028851 -0.157408 
0.001446 -0.164397 
0.000294 -0.167642 
0.006180 -0.155079 
0.003427 -0.160244 
0.001008 -0.169025 
0.002238 -0.165146 
0.003112 -0.166144 
0.022569 -0.123415 
0.017977 -0.132990 
0.014059 -0.150646 
0.016180 -0.142297 
0.018885 -0.143085 
0.013595 -0.141472 
0.009611 -0.148834 
0.003691 -0.174637 
0.006442 -0.170014 
0.007844 -0.171318 
0.004091 -0.167337 
0.005196 -0.168655 
0.002076 -0.171536 
0.013766 -0.159014 
0.009126 -0.164490 
0.011685 -0.158039 