# vtk DataFile Version 2.0
Unstructured Grid Example
ASCII
DATASET UNSTRUCTURED_GRID

POINTS 81 float
0.002762 -0.222598 0.000000 
0.997238 -0.222598 0.000000 
1.000000 1.000000 0.000000 
0.000000 1.000000 0.000000 
0.500000 -0.097265 0.000000 
0.977890 0.334257 0.000000 
0.500000 1.000000 0.000000 
0.022110 0.334257 0.000000 
0.500000 0.333860 0.000000 
0.248298 -0.160857 0.000000 
0.500000 0.093818 0.000000 
0.236690 0.065321 0.000000 
0.751702 -0.160857 0.000000 
0.763310 0.065321 0.000000 
1.007501 0.044961 0.000000 
0.743908 0.329128 0.000000 
0.950038 0.639479 0.000000 
0.728105 0.642229 0.000000 
0.750000 1.000000 0.000000 
0.500000 0.646401 0.000000 
0.250000 1.000000 0.000000 
0.271895 0.642229 0.000000 
0.049962 0.639479 0.000000 
0.256092 0.329128 0.000000 
-0.007501 0.044961 0.000000 
0.127152 -0.204020 0.000000 
0.236011 -0.052095 0.000000 
0.112759 -0.080892 0.000000 
0.500000 -0.006800 0.000000 
0.364689 -0.020331 0.000000 
0.371856 -0.113771 0.000000 
0.370178 0.202901 0.000000 
0.365642 0.085166 0.000000 
0.500000 0.207004 0.000000 
0.628144 -0.113771 0.000000 
0.635311 -0.020331 0.000000 
0.887241 -0.080892 0.000000 
0.763989 -0.052095 0.000000 
0.872848 -0.204020 0.000000 
0.634358 0.085166 0.000000 
0.629822 0.202901 0.000000 
1.009416 -0.092523 0.000000 
0.887069 0.047929 0.000000 
0.861889 0.325803 0.000000 
0.877104 0.183059 0.000000 
0.995178 0.187311 0.000000 
0.755472 0.191787 0.000000 
0.623196 0.334657 0.000000 
0.962032 0.482997 0.000000 
0.847822 0.476750 0.000000 
0.845443 0.817381 0.000000 
0.838980 0.639336 0.000000 
0.950709 0.807127 0.000000 
0.733231 0.478549 0.000000 
0.616910 0.481716 0.000000 
0.875000 1.000000 0.000000 
0.732534 0.818539 0.000000 
0.500000 0.820746 0.000000 
0.616865 0.819170 0.000000 
0.625000 1.000000 0.000000 
0.614641 0.644432 0.000000 
0.500000 0.483105 0.000000 
0.375000 1.000000 0.000000 
0.383135 0.819170 0.000000 
0.154557 0.817381 0.000000 
0.267466 0.818539 0.000000 
0.125000 1.000000 0.000000 
0.385359 0.644432 0.000000 
0.383090 0.481716 0.000000 
0.049291 0.807127 0.000000 
0.161020 0.639336 0.000000 
0.138111 0.325803 0.000000 
0.152178 0.476750 0.000000 
0.037968 0.482997 0.000000 
0.266769 0.478549 0.000000 
0.376804 0.334657 0.000000 
0.004822 0.187311 0.000000 
0.122896 0.183059 0.000000 
0.112931 0.047929 0.000000 
-0.009416 -0.092523 0.000000 
0.244528 0.191787 0.000000 

CELLS 128 512
3  0 25 27 
3  9 26 25 
3  11 27 26 
3  25 26 27 
3  4 28 30 
3  10 29 28 
3  9 30 29 
3  28 29 30 
3  8 31 33 
3  11 32 31 
3  10 33 32 
3  31 32 33 
3  9 29 26 
3  10 32 29 
3  11 26 32 
3  29 32 26 
3  4 34 28 
3  12 35 34 
3  10 28 35 
3  34 35 28 
3  1 36 38 
3  13 37 36 
3  12 38 37 
3  36 37 38 
3  8 33 40 
3  10 39 33 
3  13 40 39 
3  33 39 40 
3  12 37 35 
3  13 39 37 
3  10 35 39 
3  37 39 35 
3  1 41 36 
3  14 42 41 
3  13 36 42 
3  41 42 36 
3  5 43 45 
3  15 44 43 
3  14 45 44 
3  43 44 45 
3  8 40 47 
3  13 46 40 
3  15 47 46 
3  40 46 47 
3  14 44 42 
3  15 46 44 
3  13 42 46 
3  44 46 42 
3  5 48 43 
3  16 49 48 
3  15 43 49 
3  48 49 43 
3  2 50 52 
3  17 51 50 
3  16 52 51 
3  50 51 52 
3  8 47 54 
3  15 53 47 
3  17 54 53 
3  47 53 54 
3  16 51 49 
3  17 53 51 
3  15 49 53 
3  51 53 49 
3  2 55 50 
3  18 56 55 
3  17 50 56 
3  55 56 50 
3  6 57 59 
3  19 58 57 
3  18 59 58 
3  57 58 59 
3  8 54 61 
3  17 60 54 
3  19 61 60 
3  54 60 61 
3  18 58 56 
3  19 60 58 
3  17 56 60 
3  58 60 56 
3  6 62 57 
3  20 63 62 
3  19 57 63 
3  62 63 57 
3  3 64 66 
3  21 65 64 
3  20 66 65 
3  64 65 66 
3  8 61 68 
3  19 67 61 
3  21 68 67 
3  61 67 68 
3  20 65 63 
3  21 67 65 
3  19 63 67 
3  65 67 63 
3  3 69 64 
3  22 70 69 
3  21 64 70 
3  69 70 64 
3  7 71 73 
3  23 72 71 
3  22 73 72 
3  71 72 73 
3  8 68 75 
3  21 74 68 
3  23 75 74 
3  68 74 75 
3  22 72 70 
3  23 74 72 
3  21 70 74 
3  72 74 70 
3  7 76 71 
3  24 77 76 
3  23 71 77 
3  76 77 71 
3  0 27 79 
3  11 78 27 
3  24 79 78 
3  27 78 79 
3  8 75 31 
3  23 80 75 
3  11 31 80 
3  75 80 31 
3  24 78 77 
3  11 80 78 
3  23 77 80 
3  78 80 77 

CELL_TYPES 128
5
5
5
5
5
5
5
5
5
5
5
5
5
5
5
5
5
5
5
5
5
5
5
5
5
5
5
5
5
5
5
5
5
5
5
5
5
5
5
5
5
5
5
5
5
5
5
5
5
5
5
5
5
5
5
5
5
5
5
5
5
5
5
5
5
5
5
5
5
5
5
5
5
5
5
5
5
5
5
5
5
5
5
5
5
5
5
5
5
5
5
5
5
5
5
5
5
5
5
5
5
5
5
5
5
5
5
5
5
5
5
5
5
5
5
5
5
5
5
5
5
5
5
5
5
5
5
5

POINT_DATA 81

SCALARS u_h float 2
LOOKUP_TABLE default
0.002762 -0.222598 
-0.002762 -0.222598 
0.000000 0.000000 
0.000000 0.000000 
-0.000000 -0.097265 
-0.022110 -0.165743 
0.000000 0.000000 
0.022110 -0.165743 
-0.000000 -0.166140 
-0.001702 -0.160857 
-0.000000 -0.156182 
-0.013310 -0.184679 
0.001702 -0.160857 
0.013310 -0.184679 
0.007501 -0.205039 
-0.006092 -0.170872 
-0.049962 -0.110521 
-0.021895 -0.107771 
0.000000 0.000000 
0.000000 -0.103599 
0.000000 0.000000 
0.021895 -0.107771 
0.049962 -0.110521 
0.006092 -0.170872 
-0.007501 -0.205039 
0.002152 -0.204020 
-0.013989 -0.177095 
-0.012241 -0.205892 
-0.000000 -0.131800 
-0.010311 -0.145331 
-0.003144 -0.113771 
-0.004822 -0.172099 
-0.009358 -0.164834 
-0.000000 -0.167996 
0.003144 -0.113771 
0.010311 -0.145331 
0.012241 -0.205892 
0.013989 -0.177095 
-0.002152 -0.204020 
0.009358 -0.164834 
0.004822 -0.172099 
0.009416 -0.217523 
0.012069 -0.202071 
-0.013111 -0.174197 
0.002104 -0.191941 
-0.004822 -0.187689 
0.005472 -0.183213 
-0.001804 -0.165343 
-0.037968 -0.142003 
-0.027178 -0.148250 
-0.029557 -0.057619 
-0.036020 -0.110664 
-0.049291 -0.067873 
-0.016769 -0.146451 
-0.008090 -0.143284 
0.000000 0.000000 
-0.017466 -0.056461 
-0.000000 -0.054254 
-0.008135 -0.055830 
0.000000 0.000000 
-0.010359 -0.105568 
-0.000000 -0.141895 
0.000000 0.000000 
0.008135 -0.055830 
0.029557 -0.057619 
0.017466 -0.056461 
0.000000 0.000000 
0.010359 -0.105568 
0.008090 -0.143284 
0.049291 -0.067873 
0.036020 -0.110664 
0.013111 -0.174197 
0.027178 -0.148250 
0.037968 -0.142003 
0.016769 -0.146451 
0.001804 -0.165343 
0.004822 -0.187689 
-0.002104 -0.191941 
-0.012069 -0.202071 
-0.009416 -0.217523 
-0.005472 -0.183213 

CELL_DATA 128

SCALARS epsilon float 4
LOOKUP_TABLE default
0.019082 0.013322 0.000000 0.017572
0.014415 -0.021854 0.000000 0.148262
-0.015413 -0.032832 0.000000 0.125343
0.019525 0.038513 0.000000 0.058540
0.024832 -0.293050 0.000000 0.091177
0.079104 -0.205243 0.000000 0.066848
0.020057 -0.132165 0.000000 0.225489
0.089169 -0.265110 0.000000 0.048260
0.037835 0.015221 0.000000 0.016152
0.025882 -0.052219 0.000000 0.101731
0.072075 -0.096398 0.000000 0.038034
0.037308 -0.060455 0.000000 0.034805
0.062146 -0.073050 0.000000 0.098506
0.071532 -0.165426 0.000000 0.044233
0.030244 -0.049947 0.000000 0.087052
0.026802 -0.126970 0.000000 0.154009
0.024832 -0.293050 0.000000 -0.091177
0.020057 -0.132165 0.000000 -0.225489
0.079104 -0.205243 0.000000 -0.066848
0.089169 -0.265110 0.000000 -0.048260
0.019082 0.013322 0.000000 -0.017572
-0.015413 -0.032832 0.000000 -0.125343
0.014415 -0.021854 0.000000 -0.148262
0.019525 0.038513 0.000000 -0.058540
0.037835 0.015221 0.000000 -0.016152
0.072075 -0.096398 0.000000 -0.038034
0.025882 -0.052219 0.000000 -0.101731
0.037308 -0.060455 0.000000 -0.034805
0.062146 -0.073050 0.000000 -0.098506
0.030244 -0.049947 0.000000 -0.087052
0.071532 -0.165426 0.000000 -0.044233
0.026802 -0.126970 0.000000 -0.154009
-0.009485 0.052745 0.000000 0.005027
-0.037450 0.094837 0.000000 -0.018665
-0.010169 0.039220 0.000000 -0.068193
-0.022987 0.034248 0.000000 -0.045823
-0.058180 0.170729 0.000000 -0.044061
-0.054301 0.129376 0.000000 -0.075124
-0.049664 0.132867 0.000000 -0.036485
-0.046803 0.136295 0.000000 -0.048533
-0.012907 0.052938 0.000000 -0.023796
0.001607 0.010027 0.000000 -0.075129
-0.034926 0.090931 0.000000 -0.067641
0.001986 0.051700 0.000000 -0.068482
-0.036089 0.076225 0.000000 -0.052114
-0.029569 0.090034 0.000000 -0.078937
-0.016734 0.012729 0.000000 -0.100404
-0.029703 0.074722 0.000000 -0.073020
-0.060376 0.181725 0.000000 -0.038186
-0.082380 0.226385 0.000000 -0.030515
-0.055439 0.184390 0.000000 -0.068866
-0.079827 0.192614 0.000000 -0.039145
-0.102205 0.437128 0.000000 0.176564
-0.117521 0.343343 0.000000 0.018554
-0.117653 0.286739 0.000000 0.003251
-0.165562 0.347849 0.000000 0.000101
-0.013316 0.161535 0.000000 -0.022229
-0.035416 0.174342 0.000000 -0.061556
-0.072106 0.263649 0.000000 -0.030428
-0.071925 0.160380 0.000000 -0.037128
-0.115715 0.257961 0.000000 -0.037248
-0.119468 0.263665 0.000000 -0.030524
-0.084777 0.175789 0.000000 -0.051322
-0.085793 0.257158 0.000000 -0.042019
0.013098 0.365290 0.000000 0.106458
0.004632 0.359551 0.000000 0.063099
-0.100714 0.333632 0.000000 0.014702
-0.083715 0.366808 0.000000 0.114628
0.000000 0.348471 0.000000 0.000000
-0.067190 0.323130 0.000000 -0.004497
0.001012 0.356405 0.000000 0.029439
-0.065430 0.356996 0.000000 0.027144
-0.066807 0.175699 0.000000 -0.004633
-0.096647 0.258512 0.000000 -0.016162
-0.086280 0.262101 0.000000 -0.005978
-0.066861 0.258542 0.000000 -0.013432
-0.071484 0.360032 0.000000 0.066445
-0.085967 0.325428 0.000000 0.003326
-0.095631 0.333911 0.000000 0.011676
-0.077246 0.325223 0.000000 0.007041
0.000000 0.348471 0.000000 0.000000
0.001012 0.356405 0.000000 -0.029439
-0.067190 0.323130 0.000000 0.004497
-0.065430 0.356996 0.000000 -0.027144
0.013098 0.365290 0.000000 -0.106458
-0.100714 0.333632 0.000000 -0.014702
0.004632 0.359551 0.000000 -0.063099
-0.083715 0.366808 0.000000 -0.114628
-0.066807 0.175699 0.000000 0.004633
-0.086280 0.262101 0.000000 0.005978
-0.096647 0.258512 0.000000 0.016162
-0.066861 0.258542 0.000000 0.013432
-0.071484 0.360032 0.000000 -0.066445
-0.095631 0.333911 0.000000 -0.011676
-0.085967 0.325428 0.000000 -0.003326
-0.077246 0.325223 0.000000 -0.007041
-0.102205 0.437128 0.000000 -0.176564
-0.117653 0.286739 0.000000 -0.003251
-0.117521 0.343343 0.000000 -0.018554
-0.165562 0.347849 0.000000 -0.000101
-0.060376 0.181725 0.000000 0.038186
-0.055439 0.184390 0.000000 0.068866
-0.082380 0.226385 0.000000 0.030515
-0.079827 0.192614 0.000000 0.039145
-0.013316 0.161535 0.000000 0.022229
-0.072106 0.263649 0.000000 0.030428
-0.035416 0.174342 0.000000 0.061556
-0.071925 0.160380 0.000000 0.037128
-0.115715 0.257961 0.000000 0.037248
-0.084777 0.175789 0.000000 0.051322
-0.119468 0.263665 0.000000 0.030524
-0.085793 0.257158 0.000000 0.042019
-0.058180 0.170729 0.000000 0.044061
-0.049664 0.132867 0.000000 0.036485
-0.054301 0.129376 0.000000 0.075124
-0.046803 0.136295 0.000000 0.048533
-0.009485 0.052745 0.000000 -0.005027
-0.010169 0.039220 0.000000 0.068193
-0.037450 0.094837 0.000000 0.018665
-0.022987 0.034248 0.000000 0.045823
-0.012907 0.052938 0.000000 0.023796
-0.034926 0.090931 0.000000 0.067641
0.001607 0.010027 0.000000 0.075129
0.001986 0.051700 0.000000 0.068482
-0.036089 0.076225 0.000000 0.052114
-0.016734 0.012729 0.000000 0.100404
-0.029569 0.090034 0.000000 0.078937
-0.029703 0.074722 0.000000 0.073020

SCALARS sigma float 4
LOOKUP_TABLE default
0.649922 0.489610 0.322953 0.340501
0.019326 -1.947084 -0.520326 2.195530
-1.070573 -1.978675 -0.786547 2.099896
0.920592 0.905147 0.526887 1.051073
-2.524791 -13.036604 -2.993977 1.459492
-0.351383 -6.820815 -1.675471 1.018680
-1.367617 -8.357997 -2.191001 3.016372
-0.668693 -9.872460 -2.278779 0.089750
1.115905 0.767300 0.536859 0.255410
-0.137669 -1.751053 -0.497390 1.692091
0.720724 -2.270488 -0.411114 0.583149
0.278761 -1.400725 -0.300808 0.601195
0.754224 -2.214273 -0.393905 1.307287
-0.045963 -4.889780 -1.214736 0.716989
0.105596 -1.526686 -0.378800 1.394680
-1.106196 -5.367747 -1.544117 2.506739
-2.524791 -13.036604 -2.993977 -1.459492
-1.367617 -8.357997 -2.191001 -3.016372
-0.351383 -6.820815 -1.675471 -1.018680
-0.668693 -9.872460 -2.278779 -0.089750
0.649922 0.489610 0.322953 -0.340501
-1.070573 -1.978675 -0.786547 -2.099896
0.019326 -1.947084 -0.520326 -2.195530
0.920592 0.905147 0.526887 -1.051073
1.115905 0.767300 0.536859 -0.255410
0.720724 -2.270488 -0.411114 -0.583149
-0.137669 -1.751053 -0.497390 -1.692091
0.278761 -1.400725 -0.300808 -0.601195
0.754224 -2.214273 -0.393905 -1.307287
0.105596 -1.526686 -0.378800 -1.394680
-0.045963 -4.889780 -1.214736 -0.716989
-1.106196 -5.367747 -1.544117 -2.506739
0.260602 1.225753 0.422091 -0.034407
-0.127295 1.875013 0.495863 -0.290096
0.021512 0.659324 0.189531 -1.129011
-0.330870 0.529863 0.054863 -0.768649
-0.154201 3.206894 0.888002 -0.342963
-0.553666 2.312211 0.497375 -1.035009
-0.200246 2.547242 0.673429 -0.387078
-0.133560 2.635628 0.720232 -0.528536
0.146780 1.184465 0.375326 -0.334622
-0.046073 0.059826 0.003769 -1.228788
-0.268668 1.707102 0.405029 -0.999410
0.425212 1.149218 0.445125 -1.064581
-0.376490 1.420307 0.292031 -0.776691
-0.168706 1.683325 0.426783 -1.188347
-0.641846 -0.274017 -0.245926 -1.695994
-0.283986 1.354230 0.299168 -1.131889
-0.092343 3.396658 0.964894 -0.256816
-0.369403 3.959462 1.048437 -0.186435
-0.015578 3.414894 0.990206 -0.843901
-0.628295 3.369972 0.789699 -0.329290
-0.550920 6.631333 1.832194 1.107873
-0.563441 5.449630 1.444338 0.093228
-1.044952 4.558752 1.015937 0.037455
-2.496090 4.889542 0.671052 -0.255136
1.214336 3.546786 1.429283 -0.213832
0.568102 3.462660 1.189981 -0.782945
0.346976 4.720458 1.516707 -0.367811
-0.625719 2.823725 0.626271 -0.518359
-1.292476 4.084283 0.797711 -0.412626
-1.354894 4.134801 0.793341 -0.406683
-0.978393 2.953522 0.559380 -0.673194
-0.223822 4.428083 1.237100 -0.469225
3.652900 7.330708 3.652900 0.559436
3.595512 7.239588 3.595512 0.338010
-0.004548 5.518186 1.652834 0.098179
0.363594 6.057716 1.954000 0.889931
3.484706 7.062146 3.484706 0.000000
1.099380 5.785785 2.124770 -0.079269
3.564046 7.189401 3.564046 0.159364
1.443394 6.332221 2.433756 0.151047
-0.259882 3.212498 0.853733 -0.081631
-0.528563 4.344031 1.113742 -0.220826
-0.120679 4.538018 1.305216 -0.107774
0.503270 4.714016 1.567478 -0.161181
1.112500 6.243786 2.282445 0.478965
0.466395 5.581875 1.834869 -0.025163
0.187907 5.589511 1.741418 0.041020
0.770320 5.690208 1.976341 0.040485
3.484706 7.062146 3.484706 0.000000
3.564046 7.189401 3.564046 -0.159364
1.099380 5.785785 2.124770 0.079269
1.443394 6.332221 2.433756 -0.151047
3.652900 7.330708 3.652900 -0.559436
-0.004548 5.518186 1.652834 -0.098179
3.595512 7.239588 3.595512 -0.338010
0.363594 6.057716 1.954000 -0.889931
-0.259882 3.212498 0.853733 0.081631
-0.120679 4.538018 1.305216 0.107774
-0.528563 4.344031 1.113742 0.220826
0.503270 4.714016 1.567478 0.161181
1.112500 6.243786 2.282445 -0.478965
0.187907 5.589511 1.741418 -0.041020
0.466395 5.581875 1.834869 0.025163
0.770320 5.690208 1.976341 -0.040485
-0.550920 6.631333 1.832194 -1.107873
-1.044952 4.558752 1.015937 -0.037455
-0.563441 5.449630 1.444338 -0.093228
-2.496090 4.889542 0.671052 0.255136
-0.092343 3.396658 0.964894 0.256816
-0.015578 3.414894 0.990206 0.843901
-0.369403 3.959462 1.048437 0.186435
-0.628295 3.369972 0.789699 0.329290
1.214336 3.546786 1.429283 0.213832
0.346976 4.720458 1.516707 0.367811
0.568102 3.462660 1.189981 0.782945
-0.625719 2.823725 0.626271 0.518359
-1.292476 4.084283 0.797711 0.412626
-0.978393 2.953522 0.559380 0.673194
-1.354894 4.134801 0.793341 0.406683
-0.223822 4.428083 1.237100 0.469225
-0.154201 3.206894 0.888002 0.342963
-0.200246 2.547242 0.673429 0.387078
-0.553666 2.312211 0.497375 1.035009
-0.133560 2.635628 0.720232 0.528536
0.260602 1.225753 0.422091 0.034407
0.021512 0.659324 0.189531 1.129011
-0.127295 1.875013 0.495863 0.290096
-0.330870 0.529863 0.054863 0.768649
0.146780 1.184465 0.375326 0.334622
-0.268668 1.707102 0.405029 0.999410
-0.046073 0.059826 0.003769 1.228788
0.425212 1.149218 0.445125 1.064581
-0.376490 1.420307 0.292031 0.776691
-0.641846 -0.274017 -0.245926 1.695994
-0.168706 1.683325 0.426783 1.188347
-0.283986 1.354230 0.299168 1.131889

