# vtk DataFile Version 2.0
Unstructured Grid Example
ASCII
DATASET UNSTRUCTURED_GRID

POINTS 25 float
-0.010374 -0.203563 0.000000 
1.010374 -0.203563 0.000000 
1.000000 1.000000 0.000000 
0.000000 1.000000 0.000000 
0.500000 -0.088674 0.000000 
0.975691 0.341582 0.000000 
0.500000 1.000000 0.000000 
0.024309 0.341582 0.000000 
0.500000 0.339718 0.000000 
0.239087 -0.157108 0.000000 
0.500000 0.102327 0.000000 
0.239254 0.070689 0.000000 
0.760913 -0.157108 0.000000 
0.760746 0.070689 0.000000 
1.005769 0.056367 0.000000 
0.740706 0.336254 0.000000 
0.954276 0.641478 0.000000 
0.730694 0.648432 0.000000 
0.750000 1.000000 0.000000 
0.500000 0.653968 0.000000 
0.250000 1.000000 0.000000 
0.269306 0.648432 0.000000 
0.045724 0.641478 0.000000 
0.259294 0.336254 0.000000 
-0.005769 0.056367 0.000000 

CELLS 32 128
3  0 9 11 
3  4 10 9 
3  8 11 10 
3  9 10 11 
3  4 12 10 
3  1 13 12 
3  8 10 13 
3  12 13 10 
3  1 14 13 
3  5 15 14 
3  8 13 15 
3  14 15 13 
3  5 16 15 
3  2 17 16 
3  8 15 17 
3  16 17 15 
3  2 18 17 
3  6 19 18 
3  8 17 19 
3  18 19 17 
3  6 20 19 
3  3 21 20 
3  8 19 21 
3  20 21 19 
3  3 22 21 
3  7 23 22 
3  8 21 23 
3  22 23 21 
3  7 24 23 
3  0 11 24 
3  8 23 11 
3  24 11 23 

CELL_TYPES 32
5
5
5
5
5
5
5
5
5
5
5
5
5
5
5
5
5
5
5
5
5
5
5
5
5
5
5
5
5
5
5
5

POINT_DATA 25

SCALARS u_h float 2
LOOKUP_TABLE default
-0.010374 -0.203563 
0.010374 -0.203563 
0.000000 0.000000 
0.000000 0.000000 
0.000000 -0.088674 
-0.024309 -0.158418 
0.000000 0.000000 
0.024309 -0.158418 
-0.000000 -0.160282 
-0.010913 -0.157108 
-0.000000 -0.147673 
-0.010746 -0.179311 
0.010913 -0.157108 
0.010746 -0.179311 
0.005769 -0.193633 
-0.009294 -0.163746 
-0.045724 -0.108522 
-0.019306 -0.101568 
0.000000 0.000000 
-0.000000 -0.096032 
0.000000 0.000000 
0.019306 -0.101568 
0.045724 -0.108522 
0.009294 -0.163746 
-0.005769 -0.193633 

CELL_DATA 32

SCALARS epsilon float 4
LOOKUP_TABLE default
-0.002298 -0.071964 0.000000 0.102299
0.042703 -0.202257 0.000000 0.178832
0.042061 -0.043539 0.000000 0.066523
0.041972 -0.083939 0.000000 0.069644
0.042703 -0.202257 0.000000 -0.178832
-0.002298 -0.071964 0.000000 -0.102299
0.042061 -0.043539 0.000000 -0.066523
0.041972 -0.083939 0.000000 -0.069644
-0.020978 0.039481 0.000000 -0.036923
-0.053216 0.133639 0.000000 -0.053686
-0.035872 0.059337 0.000000 -0.048001
-0.021534 0.057448 0.000000 -0.067721
-0.057372 0.181970 0.000000 -0.035436
-0.097183 0.352330 0.000000 0.083141
-0.037771 0.218633 0.000000 -0.025517
-0.111516 0.218362 0.000000 -0.032489
0.001508 0.330632 0.000000 0.035390
0.000000 0.316034 0.000000 0.000000
-0.080186 0.225536 0.000000 -0.008747
-0.077112 0.331984 0.000000 0.030509
0.000000 0.316034 0.000000 0.000000
0.001508 0.330632 0.000000 -0.035390
-0.080186 0.225536 0.000000 0.008747
-0.077112 0.331984 0.000000 -0.030509
-0.097183 0.352330 0.000000 -0.083141
-0.057372 0.181970 0.000000 0.035436
-0.037771 0.218633 0.000000 0.025517
-0.111516 0.218362 0.000000 0.032489
-0.053216 0.133639 0.000000 0.053686
-0.020978 0.039481 0.000000 0.036923
-0.035872 0.059337 0.000000 0.048001
-0.021534 0.057448 0.000000 0.067721

SCALARS sigma float 4
LOOKUP_TABLE default
-0.990104 -2.740470 -0.948609 1.683598
-1.639023 -9.682114 -2.407905 2.815098
0.528120 -1.043242 -0.139911 1.047800
0.096351 -2.338177 -0.587140 1.098633
-1.639023 -9.682114 -2.407905 -2.815098
-0.990104 -2.740470 -0.948609 -1.683598
0.528120 -1.043242 -0.139911 -1.047800
0.096351 -2.338177 -0.587140 -1.098633
-0.218293 0.727548 0.141195 -0.605300
-0.378441 2.495391 0.604341 -0.640451
-0.521980 1.048759 0.145992 -0.734105
-0.197656 1.068400 0.242674 -1.054184
0.035593 3.427885 1.012067 -0.342444
-0.015483 5.760410 1.728407 0.615281
1.040371 4.348279 1.630442 -0.284688
-1.459694 3.446236 0.560328 -0.464512
3.306321 6.772197 3.306321 0.208500
3.160336 6.530826 3.160336 0.000000
-0.245309 3.973653 1.090274 -0.156545
0.795196 5.787976 2.018101 0.170368
3.160336 6.530826 3.160336 0.000000
3.306321 6.772197 3.306321 -0.208500
-0.245309 3.973653 1.090274 0.156545
0.795196 5.787976 2.018101 -0.170368
-0.015483 5.760410 1.728407 -0.615281
0.035593 3.427885 1.012067 0.342444
1.040371 4.348279 1.630442 0.284688
-1.459694 3.446236 0.560328 0.464512
-0.378441 2.495391 0.604341 0.640451
-0.218293 0.727548 0.141195 0.605300
-0.521980 1.048759 0.145992 0.734105
-0.197656 1.068400 0.242674 1.054184

