# vtk DataFile Version 2.0
Unstructured Grid Example
ASCII
DATASET UNSTRUCTURED_GRID

POINTS 9 float
0.019049 -0.211609 0.000000 
0.980951 -0.211609 0.000000 
1.000000 1.000000 0.000000 
0.000000 1.000000 0.000000 
0.500000 -0.061508 0.000000 
0.965857 0.343228 0.000000 
0.500000 1.000000 0.000000 
0.034143 0.343228 0.000000 
0.500000 0.368598 0.000000 

CELLS 8 32
3  0 4 8 
3  4 1 8 
3  1 5 8 
3  5 2 8 
3  2 6 8 
3  6 3 8 
3  3 7 8 
3  7 0 8 

CELL_TYPES 8
5
5
5
5
5
5
5
5

POINT_DATA 9

SCALARS u_h float 2
LOOKUP_TABLE default
0.019049 -0.211609 
-0.019049 -0.211609 
0.000000 0.000000 
0.000000 0.000000 
0.000000 -0.061508 
-0.034143 -0.156772 
0.000000 0.000000 
0.034143 -0.156772 
0.000000 -0.131402 

CELL_DATA 8

SCALARS epsilon float 4
LOOKUP_TABLE default
-0.038822 -0.083486 0.000000 0.174219
-0.038822 -0.083486 0.000000 -0.174219
-0.071652 0.103458 0.000000 -0.038781
-0.066245 0.270709 0.000000 0.015301
0.000000 0.229767 0.000000 -0.000000
0.000000 0.229767 0.000000 -0.000000
-0.066245 0.270709 0.000000 -0.015301
-0.071652 0.103458 0.000000 0.038781

SCALARS sigma float 4
LOOKUP_TABLE default
-2.501040 -5.031481 -1.765305 2.975023
-2.501040 -5.031481 -1.765305 -2.975023
-1.139118 1.644828 0.139718 -0.635493
0.626480 4.932001 1.681293 -0.025243
2.297673 5.020938 2.297673 -0.000000
2.297673 5.020938 2.297673 -0.000000
0.626480 4.932001 1.681293 0.025243
-1.139118 1.644828 0.139718 0.635493

