# vtk DataFile Version 2.0
Unstructured Grid Example
ASCII
DATASET UNSTRUCTURED_GRID

POINTS 1089 float
0.013778 -0.236486 0.000000 
0.986222 -0.236486 0.000000 
1.000000 1.000000 0.000000 
0.000000 1.000000 0.000000 
0.500000 -0.099820 0.000000 
0.979650 0.330614 0.000000 
0.500000 1.000000 0.000000 
0.020350 0.330614 0.000000 
0.500000 0.332456 0.000000 
0.252770 -0.160989 0.000000 
0.500000 0.089271 0.000000 
0.235115 0.062364 0.000000 
0.747230 -0.160989 0.000000 
0.764885 0.062364 0.000000 
1.009182 0.037464 0.000000 
0.745179 0.324292 0.000000 
0.946995 0.639080 0.000000 
0.726556 0.638219 0.000000 
0.750000 1.000000 0.000000 
0.500000 0.641560 0.000000 
0.250000 1.000000 0.000000 
0.273444 0.638219 0.000000 
0.053005 0.639080 0.000000 
0.254821 0.324292 0.000000 
-0.009182 0.037464 0.000000 
0.137760 -0.211396 0.000000 
0.235575 -0.053909 0.000000 
0.114170 -0.086908 0.000000 
0.500000 -0.011279 0.000000 
0.364820 -0.023129 0.000000 
0.370497 -0.116588 0.000000 
0.370130 0.198765 0.000000 
0.365512 0.081517 0.000000 
0.500000 0.203388 0.000000 
0.629503 -0.116588 0.000000 
0.635180 -0.023129 0.000000 
0.885830 -0.086908 0.000000 
0.764425 -0.053909 0.000000 
0.862240 -0.211396 0.000000 
0.634488 0.081517 0.000000 
0.629870 0.198765 0.000000 
1.005734 -0.105091 0.000000 
0.889359 0.043168 0.000000 
0.863962 0.321169 0.000000 
0.879748 0.178643 0.000000 
0.997903 0.183066 0.000000 
0.756958 0.187764 0.000000 
0.623512 0.330252 0.000000 
0.960943 0.481621 0.000000 
0.847808 0.472823 0.000000 
0.840603 0.814040 0.000000 
0.836842 0.636221 0.000000 
0.946518 0.805300 0.000000 
0.733542 0.473943 0.000000 
0.617424 0.477397 0.000000 
0.875000 1.000000 0.000000 
0.730295 0.816142 0.000000 
0.500000 0.817332 0.000000 
0.616064 0.816902 0.000000 
0.625000 1.000000 0.000000 
0.614081 0.640498 0.000000 
0.500000 0.479004 0.000000 
0.375000 1.000000 0.000000 
0.383936 0.816902 0.000000 
0.159397 0.814040 0.000000 
0.269705 0.816142 0.000000 
0.125000 1.000000 0.000000 
0.385919 0.640498 0.000000 
0.382576 0.477397 0.000000 
0.053482 0.805300 0.000000 
0.163158 0.636221 0.000000 
0.136038 0.321169 0.000000 
0.152192 0.472823 0.000000 
0.039057 0.481621 0.000000 
0.266458 0.473943 0.000000 
0.376488 0.330252 0.000000 
0.002097 0.183066 0.000000 
0.120252 0.178643 0.000000 
0.110641 0.043168 0.000000 
-0.005734 -0.105091 0.000000 
0.243042 0.187764 0.000000 
0.075447 -0.225378 0.000000 
0.123156 -0.150155 0.000000 
0.063207 -0.162830 0.000000 
0.241093 -0.108825 0.000000 
0.181947 -0.131836 0.000000 
0.197853 -0.190242 0.000000 
0.171405 -0.010677 0.000000 
0.174217 -0.071828 0.000000 
0.233953 0.003181 0.000000 
0.500000 -0.056974 0.000000 
0.432813 -0.060631 0.000000 
0.434398 -0.104118 0.000000 
0.431920 0.034882 0.000000 
0.431993 -0.014346 0.000000 
0.500000 0.037405 0.000000 
0.309763 -0.136039 0.000000 
0.366762 -0.071157 0.000000 
0.302716 -0.087671 0.000000 
0.436420 0.265184 0.000000 
0.434862 0.202187 0.000000 
0.500000 0.266014 0.000000 
0.299603 0.072812 0.000000 
0.367480 0.138470 0.000000 
0.302327 0.131740 0.000000 
0.500000 0.144530 0.000000 
0.433503 0.142944 0.000000 
0.432474 0.087245 0.000000 
0.299175 -0.036812 0.000000 
0.364515 0.027708 0.000000 
0.298373 0.016671 0.000000 
0.565602 -0.104118 0.000000 
0.567187 -0.060631 0.000000 
0.697284 -0.087671 0.000000 
0.633238 -0.071157 0.000000 
0.690237 -0.136039 0.000000 
0.568007 -0.014346 0.000000 
0.568080 0.034882 0.000000 
0.936793 -0.162830 0.000000 
0.876844 -0.150155 0.000000 
0.924553 -0.225378 0.000000 
0.766047 0.003181 0.000000 
0.825783 -0.071828 0.000000 
0.828595 -0.010677 0.000000 
0.802147 -0.190242 0.000000 
0.818053 -0.131836 0.000000 
0.758907 -0.108825 0.000000 
0.565138 0.202187 0.000000 
0.563580 0.265184 0.000000 
0.567526 0.087245 0.000000 
0.566497 0.142944 0.000000 
0.697673 0.131740 0.000000 
0.632520 0.138470 0.000000 
0.700397 0.072812 0.000000 
0.700825 -0.036812 0.000000 
0.701627 0.016671 0.000000 
0.635485 0.027708 0.000000 
0.997264 -0.172757 0.000000 
0.945809 -0.097702 0.000000 
0.949815 0.037924 0.000000 
0.950075 -0.030611 0.000000 
1.009741 -0.034553 0.000000 
0.889711 -0.022465 0.000000 
0.827815 0.051855 0.000000 
0.922181 0.323580 0.000000 
0.931240 0.250276 0.000000 
0.989219 0.256470 0.000000 
0.812262 0.250783 0.000000 
0.872251 0.248900 0.000000 
0.804961 0.321842 0.000000 
1.004883 0.110098 0.000000 
0.939414 0.178353 0.000000 
0.945920 0.107604 0.000000 
0.626791 0.262623 0.000000 
0.561889 0.332156 0.000000 
0.761661 0.123808 0.000000 
0.693890 0.193656 0.000000 
0.684662 0.327398 0.000000 
0.689431 0.258798 0.000000 
0.751300 0.254502 0.000000 
0.885729 0.110140 0.000000 
0.818927 0.182290 0.000000 
0.824339 0.116077 0.000000 
0.970081 0.405416 0.000000 
0.913064 0.398497 0.000000 
0.897015 0.554566 0.000000 
0.904443 0.475371 0.000000 
0.952962 0.559430 0.000000 
0.855615 0.395704 0.000000 
0.797637 0.395718 0.000000 
0.907908 0.905124 0.000000 
0.893648 0.810863 0.000000 
0.957603 0.894170 0.000000 
0.781923 0.637024 0.000000 
0.835943 0.723229 0.000000 
0.781692 0.724630 0.000000 
0.944220 0.720858 0.000000 
0.889795 0.721659 0.000000 
0.891685 0.636486 0.000000 
0.620263 0.401800 0.000000 
0.560203 0.403257 0.000000 
0.739078 0.397360 0.000000 
0.679933 0.399646 0.000000 
0.672433 0.555682 0.000000 
0.675713 0.475715 0.000000 
0.729138 0.554214 0.000000 
0.841244 0.552872 0.000000 
0.785366 0.553063 0.000000 
0.790885 0.472701 0.000000 
0.937500 1.000000 0.000000 
0.853399 0.907562 0.000000 
0.738127 0.908116 0.000000 
0.796369 0.908037 0.000000 
0.812500 1.000000 0.000000 
0.786098 0.815448 0.000000 
0.726643 0.725751 0.000000 
0.500000 0.908271 0.000000 
0.559931 0.908173 0.000000 
0.562500 1.000000 0.000000 
0.557241 0.727857 0.000000 
0.558147 0.817142 0.000000 
0.500000 0.728125 0.000000 
0.687500 1.000000 0.000000 
0.619696 0.908137 0.000000 
0.679153 0.908125 0.000000 
0.558792 0.478566 0.000000 
0.500000 0.403716 0.000000 
0.670598 0.639449 0.000000 
0.615258 0.557029 0.000000 
0.500000 0.558361 0.000000 
0.557721 0.557973 0.000000 
0.557147 0.641228 0.000000 
0.673525 0.816581 0.000000 
0.614245 0.727364 0.000000 
0.670779 0.726656 0.000000 
0.437500 1.000000 0.000000 
0.440069 0.908173 0.000000 
0.320847 0.908125 0.000000 
0.380304 0.908137 0.000000 
0.312500 1.000000 0.000000 
0.441853 0.817142 0.000000 
0.442759 0.727857 0.000000 
0.092092 0.905124 0.000000 
0.146601 0.907562 0.000000 
0.062500 1.000000 0.000000 
0.273357 0.725751 0.000000 
0.213902 0.815448 0.000000 
0.218308 0.724630 0.000000 
0.187500 1.000000 0.000000 
0.203631 0.908037 0.000000 
0.261873 0.908116 0.000000 
0.441208 0.478566 0.000000 
0.439797 0.403257 0.000000 
0.442853 0.641228 0.000000 
0.442279 0.557973 0.000000 
0.327567 0.555682 0.000000 
0.384742 0.557029 0.000000 
0.329402 0.639449 0.000000 
0.326475 0.816581 0.000000 
0.329221 0.726656 0.000000 
0.385755 0.727364 0.000000 
0.042397 0.894170 0.000000 
0.106352 0.810863 0.000000 
0.108315 0.636486 0.000000 
0.110205 0.721659 0.000000 
0.055780 0.720858 0.000000 
0.164057 0.723229 0.000000 
0.218077 0.637024 0.000000 
0.077819 0.323580 0.000000 
0.086936 0.398497 0.000000 
0.029919 0.405416 0.000000 
0.202363 0.395718 0.000000 
0.144385 0.395704 0.000000 
0.195039 0.321842 0.000000 
0.047038 0.559430 0.000000 
0.095557 0.475371 0.000000 
0.102985 0.554566 0.000000 
0.379737 0.401800 0.000000 
0.438111 0.332156 0.000000 
0.270862 0.554214 0.000000 
0.324287 0.475715 0.000000 
0.315338 0.327398 0.000000 
0.320067 0.399646 0.000000 
0.260922 0.397360 0.000000 
0.158756 0.552872 0.000000 
0.209115 0.472701 0.000000 
0.214634 0.553063 0.000000 
0.010781 0.256470 0.000000 
0.068760 0.250276 0.000000 
0.054080 0.107604 0.000000 
0.060586 0.178353 0.000000 
-0.004883 0.110098 0.000000 
0.127749 0.248900 0.000000 
0.187738 0.250783 0.000000 
0.054191 -0.097702 0.000000 
0.002736 -0.172757 0.000000 
0.172185 0.051855 0.000000 
0.110289 -0.022465 0.000000 
-0.009741 -0.034553 0.000000 
0.049925 -0.030611 0.000000 
0.050185 0.037924 0.000000 
0.373209 0.262623 0.000000 
0.248700 0.254502 0.000000 
0.310569 0.258798 0.000000 
0.306110 0.193656 0.000000 
0.238339 0.123808 0.000000 
0.114271 0.110140 0.000000 
0.175661 0.116077 0.000000 
0.181073 0.182290 0.000000 
0.044471 -0.230952 0.000000 
0.069142 -0.194460 0.000000 
0.038600 -0.199828 0.000000 
0.129764 -0.181151 0.000000 
0.099590 -0.188407 0.000000 
0.106634 -0.219038 0.000000 
0.088141 -0.125152 0.000000 
0.093313 -0.157052 0.000000 
0.117977 -0.118698 0.000000 
0.245946 -0.135294 0.000000 
0.216990 -0.148332 0.000000 
0.225389 -0.175244 0.000000 
0.207268 -0.091937 0.000000 
0.211242 -0.120433 0.000000 
0.237746 -0.081662 0.000000 
0.168379 -0.201972 0.000000 
0.188480 -0.161359 0.000000 
0.159448 -0.172257 0.000000 
0.202615 0.026343 0.000000 
0.202457 -0.003856 0.000000 
0.234236 0.032504 0.000000 
0.144129 -0.079895 0.000000 
0.172296 -0.041407 0.000000 
0.141864 -0.048561 0.000000 
0.234361 -0.025622 0.000000 
0.203087 -0.033626 0.000000 
0.204635 -0.062987 0.000000 
0.152680 -0.141809 0.000000 
0.177345 -0.101970 0.000000 
0.147668 -0.110983 0.000000 
0.500000 -0.078747 0.000000 
0.466671 -0.079759 0.000000 
0.467107 -0.100900 0.000000 
0.466089 -0.035352 0.000000 
0.466333 -0.057911 0.000000 
0.500000 -0.034489 0.000000 
0.402126 -0.109392 0.000000 
0.433515 -0.082719 0.000000 
0.400710 -0.087563 0.000000 
0.466024 0.062340 0.000000 
0.465916 0.036752 0.000000 
0.500000 0.062927 0.000000 
0.398255 -0.018061 0.000000 
0.431869 0.009888 0.000000 
0.398040 0.006518 0.000000 
0.500000 0.012678 0.000000 
0.465886 0.011958 0.000000 
0.465942 -0.012069 0.000000 
0.280812 -0.147909 0.000000 
0.305767 -0.112139 0.000000 
0.275515 -0.123149 0.000000 
0.368412 -0.094181 0.000000 
0.336740 -0.102427 0.000000 
0.339674 -0.125534 0.000000 
0.332809 -0.054418 0.000000 
0.334451 -0.078739 0.000000 
0.365569 -0.047483 0.000000 
0.432305 -0.037846 0.000000 
0.398763 -0.041919 0.000000 
0.399581 -0.065079 0.000000 
[...]
POINT_DATA 1089

SCALARS u_h float 2
LOOKUP_TABLE default
0.013778 -0.236486 
-0.013778 -0.236486 
0.000000 0.000000 
0.000000 0.000000 
0.000000 -0.099820 
-0.020350 -0.169386 
0.000000 0.000000 
0.020350 -0.169386 
-0.000000 -0.167544 
0.002770 -0.160989 
-0.000000 -0.160729 
-0.014885 -0.187636 
-0.002770 -0.160989 
0.014885 -0.187636 
0.009182 -0.212536 
-0.004821 -0.175708 
-0.053005 -0.110920 
-0.023444 -0.111781 
0.000000 0.000000 
0.000000 -0.108440 
0.000000 0.000000 
0.023444 -0.111781 
0.053005 -0.110920 
0.004821 -0.175708 
-0.009182 -0.212536 
0.012760 -0.211396 
-0.014425 -0.178909 
-0.010830 -0.211908 
-0.000000 -0.136279 
-0.010180 -0.148129 
-0.004503 -0.116588 
-0.004870 -0.176235 
-0.009488 -0.168483 
-0.000000 -0.171612 
0.004503 -0.116588 
0.010180 -0.148129 
0.010830 -0.211908 
0.014425 -0.178909 
-0.012760 -0.211396 
0.009488 -0.168483 
0.004870 -0.176235 
0.005734 -0.230091 
0.014359 -0.206832 
-0.011038 -0.178831 
0.004748 -0.196357 
-0.002097 -0.191934 
0.006958 -0.187236 
-0.001488 -0.169748 
-0.039057 -0.143379 
-0.027192 -0.152177 
-0.034397 -0.060960 
-0.038158 -0.113779 
-0.053482 -0.069700 
-0.016458 -0.151057 
-0.007576 -0.147603 
0.000000 0.000000 
-0.019705 -0.058858 
-0.000000 -0.057668 
-0.008936 -0.058098 
0.000000 0.000000 
-0.010919 -0.109502 
0.000000 -0.145996 
0.000000 0.000000 
0.008936 -0.058098 
0.034397 -0.060960 
0.019705 -0.058858 
0.000000 0.000000 
0.010919 -0.109502 
0.007576 -0.147603 
0.053482 -0.069700 
0.038158 -0.113779 
0.011038 -0.178831 
0.027192 -0.152177 
0.039057 -0.143379 
0.016458 -0.151057 
0.001488 -0.169748 
0.002097 -0.191934 
-0.004748 -0.196357 
-0.014359 -0.206832 
-0.005734 -0.230091 
-0.006958 -0.187236 
0.012947 -0.225378 
-0.001844 -0.212655 
0.000707 -0.225330 
-0.008907 -0.171325 
-0.005553 -0.194336 
0.010353 -0.190242 
-0.016095 -0.198177 
-0.013283 -0.196828 
-0.016047 -0.184319 
-0.000000 -0.119474 
-0.004687 -0.123131 
-0.003102 -0.104118 
-0.005580 -0.152618 
-0.005507 -0.139346 
-0.000000 -0.150095 
-0.002737 -0.136039 
-0.008238 -0.133657 
-0.009784 -0.150171 
-0.001080 -0.172316 
-0.002638 -0.172813 
-0.000000 -0.171486 
-0.012897 -0.177188 
-0.007520 -0.174030 
-0.010173 -0.180760 
-0.000000 -0.167970 
-0.003997 -0.169556 
-0.005026 -0.162755 
-0.013325 -0.161812 
-0.010485 -0.159792 
-0.014127 -0.170829 
0.003102 -0.104118 
0.004687 -0.123131 
0.009784 -0.150171 
0.008238 -0.133657 
0.002737 -0.136039 
0.005507 -0.139346 
0.005580 -0.152618 
-0.000707 -0.225330 
0.001844 -0.212655 
-0.012947 -0.225378 
0.016047 -0.184319 
0.013283 -0.196828 
0.016095 -0.198177 
-0.010353 -0.190242 
0.005553 -0.194336 
0.008907 -0.171325 
0.002638 -0.172813 
0.001080 -0.172316 
0.005026 -0.162755 
0.003997 -0.169556 
0.010173 -0.180760 
0.007520 -0.174030 
0.012897 -0.177188 
0.013325 -0.161812 
0.014127 -0.170829 
0.010485 -0.159792 
-0.002736 -0.235257 
0.008309 -0.222702 
0.012315 -0.212076 
0.012575 -0.218111 
0.009741 -0.222053 
0.014711 -0.209965 
0.015315 -0.198145 
-0.015319 -0.176420 
-0.006260 -0.187224 
-0.010781 -0.181030 
-0.000238 -0.186717 
-0.002749 -0.188600 
-0.007539 -0.178158 
0.004883 -0.202402 
0.001914 -0.196647 
0.008420 -0.204896 
0.001791 -0.174877 
-0.000611 -0.167844 
0.011661 -0.188692 
0.006390 -0.181344 
-0.002838 -0.172602 
0.001931 -0.178702 
0.001300 -0.182998 
0.010729 -0.202360 
0.006427 -0.192710 
0.011839 -0.196423 
-0.029919 -0.157084 
-0.024436 -0.164003 
-0.040485 -0.132934 
-0.033057 -0.149629 
-0.047038 -0.128070 
-0.019385 -0.166796 
-0.014863 -0.166782 
-0.029592 -0.032376 
-0.043852 -0.064137 
-0.042397 -0.043330 
-0.030577 -0.112976 
-0.039057 -0.089271 
-0.030808 -0.087870 
-0.055780 -0.091642 
-0.047705 -0.090841 
-0.045815 -0.113514 
-0.004737 -0.160700 
-0.002297 -0.159243 
-0.010922 -0.165140 
-0.007567 -0.162854 
-0.015067 -0.131818 
-0.011787 -0.149285 
-0.020862 -0.133286 
-0.033756 -0.134628 
-0.027134 -0.134437 
-0.021615 -0.152299 
0.000000 0.000000 
-0.021601 -0.029938 
-0.011873 -0.029384 
-0.016131 -0.029463 
0.000000 0.000000 
-0.026402 -0.059552 
-0.023357 -0.086749 
0.000000 -0.029229 
-0.002569 -0.029327 
0.000000 0.000000 
-0.005259 -0.084643 
-0.004353 -0.057858 
-0.000000 -0.084375 
0.000000 0.000000 
-0.005304 -0.029363 
-0.008347 -0.029375 
-0.003708 -0.146434 
-0.000000 -0.158784 
-0.016902 -0.110551 
-0.009742 -0.130471 
-0.000000 -0.129139 
-0.004779 -0.129527 
-0.005353 -0.108772 
-0.013975 -0.058419 
-0.010755 -0.085136 
-0.016721 -0.085844 
0.000000 0.000000 
0.002569 -0.029327 
0.008347 -0.029375 
0.005304 -0.029363 
0.000000 0.000000 
0.004353 -0.057858 
0.005259 -0.084643 
0.029592 -0.032376 
0.021601 -0.029938 
0.000000 0.000000 
0.023357 -0.086749 
0.026402 -0.059552 
0.030808 -0.087870 
0.000000 0.000000 
0.016131 -0.029463 
0.011873 -0.029384 
0.003708 -0.146434 
0.002297 -0.159243 
0.005353 -0.108772 
0.004779 -0.129527 
0.015067 -0.131818 
0.009742 -0.130471 
0.016902 -0.110551 
0.013975 -0.058419 
0.016721 -0.085844 
0.010755 -0.085136 
0.042397 -0.043330 
0.043852 -0.064137 
0.045815 -0.113514 
0.047705 -0.090841 
0.055780 -0.091642 
0.039057 -0.089271 
0.030577 -0.112976 
0.015319 -0.176420 
0.024436 -0.164003 
0.029919 -0.157084 
0.014863 -0.166782 
0.019385 -0.166796 
0.007539 -0.178158 
0.047038 -0.128070 
0.033057 -0.149629 
0.040485 -0.132934 
0.004737 -0.160700 
0.000611 -0.167844 
0.020862 -0.133286 
0.011787 -0.149285 
0.002838 -0.172602 
0.007567 -0.162854 
0.010922 -0.165140 
0.033756 -0.134628 
0.021615 -0.152299 
0.027134 -0.134437 
0.010781 -0.181030 
0.006260 -0.187224 
-0.008420 -0.204896 
-0.001914 -0.196647 
-0.004883 -0.202402 
0.002749 -0.188600 
0.000238 -0.186717 
-0.008309 -0.222702 
0.002736 -0.235257 
-0.015315 -0.198145 
-0.014711 -0.209965 
-0.009741 -0.222053 
-0.012575 -0.218111 
-0.012315 -0.212076 
-0.001791 -0.174877 
-0.001300 -0.182998 
-0.001931 -0.178702 
-0.006390 -0.181344 
-0.011661 -0.188692 
-0.010729 -0.202360 
-0.011839 -0.196423 
-0.006427 -0.192710 
0.013221 -0.230952 
0.006642 -0.225710 
0.007350 -0.231078 
0.004764 -0.212401 
0.005840 -0.219657 
0.012884 -0.219038 
-0.005609 -0.218902 
-0.000437 -0.219552 
-0.007023 -0.212448 
-0.004054 -0.166544 
-0.001760 -0.179582 
0.006639 -0.175244 
-0.011482 -0.185687 
-0.007508 -0.182933 
-0.012254 -0.175412 
0.012129 -0.201972 
0.000980 -0.192609 
0.003198 -0.203507 
-0.016135 -0.192407 
-0.016293 -0.191356 
-0.015764 -0.186246 
-0.012121 -0.204895 
-0.015204 -0.197657 
-0.014386 -0.204811 
-0.015639 -0.181872 
-0.015663 -0.189876 
-0.014115 -0.187987 
-0.003570 -0.204309 
-0.010155 -0.195720 
-0.008582 -0.204733 
-0.000000 -0.109997 
-0.002079 -0.111009 
-0.001643 -0.100900 
-0.002661 -0.129102 
-0.002417 -0.120411 
-0.000000 -0.128239 
-0.004124 -0.109392 
-0.003985 -0.113969 
-0.005540 -0.118813 
-0.002726 -0.156410 
-0.002834 -0.150748 
-0.000000 -0.155823 
-0.007995 -0.143061 
-0.005631 -0.146362 
-0.008210 -0.149732 
-0.000000 -0.143572 
-0.002864 -0.144292 
-0.002808 -0.137069 
-0.000438 -0.147909 
-0.006733 -0.143389 
-0.005735 -0.154399 
-0.006588 -0.125431 
-0.007010 -0.133677 
-0.004076 -0.125534 
-0.010941 -0.148168 
-0.009299 -0.141239 
-0.009431 -0.141233 
-0.005195 -0.131596 
-0.007487 -0.135669 
-0.006669 -0.127579 
-0.000173 -0.170073 
-0.000576 -0.171673 
-0.000000 -0.169984 
-0.003826 -0.174270 
-0.001877 -0.173047 
-0.002688 -0.174309 
-0.000000 -0.172028 
-0.000969 -0.172279 
-0.001348 -0.171917 
-0.014084 -0.182290 
-0.011693 -0.179334 
-0.012768 -0.183803 
-0.008606 -0.171661 
-0.010293 -0.175234 
-0.011351 -0.172528 
-0.007444 -0.178311 
-0.008976 -0.177170 
-0.006264 -0.175564 
-0.000000 -0.164787 
-0.002315 -0.165252 
-0.002550 -0.161254 
-0.001705 -0.170609 
-0.002030 -0.168379 
-0.000000 -0.170253 
-0.007360 -0.165190 
-0.004561 -0.166585 
-0.006678 -0.168745 
-0.004885 -0.173312 
-0.005844 -0.171461 
-0.003350 -0.171640 
-0.009660 -0.160276 
-0.011980 -0.154432 
-0.011949 -0.156319 
-0.012401 -0.165490 
-0.014156 -0.170062 
-0.005372 -0.158091 
-0.010128 -0.164519 
-0.007862 -0.160820 
-0.008156 -0.155659 
-0.010518 -0.154323 
-0.014960 -0.180143 
-0.015088 -0.174022 
-0.015322 -0.177382 
-0.013729 -0.174346 
-0.012103 -0.169077 
-0.012477 -0.160014 
-0.012497 -0.164900 
-0.014020 -0.166649 
0.001643 -0.100900 
0.002079 -0.111009 
0.005540 -0.118813 
0.003985 -0.113969 
0.004124 -0.109392 
0.002417 -0.120411 
0.002661 -0.129102 
0.005735 -0.154399 
0.006733 -0.143389 
0.000438 -0.147909 
0.009431 -0.141233 
0.009299 -0.141239 
0.010941 -0.148168 
0.004076 -0.125534 
0.007010 -0.133677 
0.006588 -0.125431 
0.002834 -0.150748 
0.002726 -0.156410 
0.002808 -0.137069 
0.002864 -0.144292 
0.008210 -0.149732 
0.005631 -0.146362 
0.007995 -0.143061 
0.006669 -0.127579 
0.007487 -0.135669 
0.005195 -0.131596 
-0.007350 -0.231078 
-0.006642 -0.225710 
-0.013221 -0.230952 
0.007023 -0.212448 
0.000437 -0.219552 
0.005609 -0.218902 
-0.012884 -0.219038 
-0.005840 -0.219657 
-0.004764 -0.212401 
0.015764 -0.186246 
0.016293 -0.191356 
0.016135 -0.192407 
0.014115 -0.187987 
0.015663 -0.189876 
0.015639 -0.181872 
0.014386 -0.204811 
0.015204 -0.197657 
0.012121 -0.204895 
-0.006639 -0.175244 
0.001760 -0.179582 
0.004054 -0.166544 
-0.003198 -0.203507 
-0.000980 -0.192609 
-0.012129 -0.201972 
0.012254 -0.175412 
0.007508 -0.182933 
0.011482 -0.185687 
0.008582 -0.204733 
0.010155 -0.195720 
0.003570 -0.204309 
0.000576 -0.171673 
0.000173 -0.170073 
0.001348 -0.171917 
0.000969 -0.172279 
0.002688 -0.174309 
0.001877 -0.173047 
0.003826 -0.174270 
0.002550 -0.161254 
0.002315 -0.165252 
0.006678 -0.168745 
0.004561 -0.166585 
0.007360 -0.165190 
0.002030 -0.168379 
0.001705 -0.170609 
0.012768 -0.183803 
0.011693 -0.179334 
0.014084 -0.182290 
0.006264 -0.175564 
0.008976 -0.177170 
0.007444 -0.178311 
0.011351 -0.172528 
0.010293 -0.175234 
0.008606 -0.171661 
0.003350 -0.171640 
0.005844 -0.171461 
0.004885 -0.173312 
0.009660 -0.160276 
0.014156 -0.170062 
0.012401 -0.165490 
0.011949 -0.156319 
0.011980 -0.154432 
0.014960 -0.180143 
0.012103 -0.169077 
0.013729 -0.174346 
0.015322 -0.177382 
0.015088 -0.174022 
0.005372 -0.158091 
0.010518 -0.154323 
0.008156 -0.155659 
0.007862 -0.160820 
0.010128 -0.164519 
0.014020 -0.166649 
0.012497 -0.164900 
0.012477 -0.160014 
-0.008126 -0.236371 
-0.001707 -0.230406 
0.007083 -0.226733 
0.003204 -0.228930 
0.001988 -0.233125 
0.004359 -0.224300 
0.009544 -0.217814 
0.010904 -0.212993 
0.011620 -0.216961 
0.009992 -0.217410 
0.014085 -0.212410 
0.012962 -0.215250 
0.013462 -0.209969 
0.008334 -0.226336 
0.011279 -0.220635 
0.009784 -0.223928 
0.016093 -0.198353 
0.015291 -0.193001 
0.013357 -0.211079 
0.015533 -0.204462 
0.014989 -0.202829 
0.015693 -0.203812 
0.015005 -0.208555 
0.011046 -0.220615 
0.013712 -0.214540 
0.012228 -0.216348 
-0.017744 -0.173596 
-0.012999 -0.179357 
-0.015501 -0.175323 
-0.008667 -0.183487 
-0.010722 -0.182011 
-0.013081 -0.178100 
-0.006281 -0.186552 
-0.008394 -0.184830 
-0.004010 -0.190043 
-0.002682 -0.181411 
-0.003846 -0.182776 
-0.006084 -0.177080 
0.001141 -0.192713 
-0.001370 -0.187973 
0.002311 -0.191684 
-0.009190 -0.178794 
-0.005229 -0.183689 
-0.006836 -0.183985 
0.007434 -0.207517 
0.006814 -0.204389 
0.009258 -0.208791 
0.000059 -0.195025 
0.003706 -0.199802 
0.001664 -0.197210 
0.006853 -0.200759 
0.005431 -0.200909 
0.003476 -0.197021 
-0.004379 -0.188414 
-0.000301 -0.192916 
-0.002017 -0.192094 
0.000250 -0.170588 
-0.000286 -0.167427 
0.003370 -0.176015 
0.001492 -0.173400 
-0.001002 -0.168641 
0.000255 -0.171516 
0.000161 -0.172795 
0.013493 -0.188461 
0.011076 -0.184657 
0.006805 -0.184261 
0.009069 -0.184820 
0.009461 -0.188295 
0.008389 -0.181440 
0.005736 -0.178627 
-0.003742 -0.174175 
-0.000989 -0.177937 
-0.001733 -0.179751 
-0.000061 -0.174351 
-0.000437 -0.176098 
-0.002092 -0.171095 
0.004217 -0.185482 
0.001722 -0.180851 
0.004338 -0.182949 
0.003891 -0.178091 
0.004222 -0.180441 
0.001946 -0.176675 
0.010757 -0.208619 
0.007977 -0.199563 
0.009721 -0.204152 
0.011965 -0.207218 
0.012894 -0.204775 
0.000650 -0.185004 
0.006835 -0.190110 
0.003845 -0.187891 
0.003212 -0.190016 
0.005732 -0.194856 
0.013856 -0.193103 
0.013534 -0.201475 
0.013864 -0.197515 
0.011916 -0.192680 
0.009550 -0.191694 
0.008805 -0.197522 
0.009331 -0.194834 
0.011438 -0.199718 
-0.025143 -0.163400 
-0.022459 -0.167550 
-0.031689 -0.154323 
-0.027131 -0.161142 
-0.034586 -0.150418 
-0.019902 -0.170434 
-0.017492 -0.172229 
-0.046974 -0.122119 
-0.043800 -0.130993 
-0.050336 -0.119740 
-0.030098 -0.151282 
-0.036970 -0.141595 
-0.033815 -0.143040 
-0.043241 -0.135939 
-0.040119 -0.139289 
-0.036049 -0.147052 
-0.011235 -0.172840 
-0.009488 -0.171989 
-0.015240 -0.173116 
-0.013153 -0.173266 
-0.020815 -0.160143 
-0.017053 -0.167062 
-0.023396 -0.159831 
-0.028848 -0.157083 
-0.026079 -0.158863 
-0.021850 -0.165831 
-0.020980 -0.017430 
-0.035631 -0.036350 
-0.030869 -0.026346 
-0.038969 -0.062249 
-0.038485 -0.048940 
-0.033475 -0.046795 
-0.049420 -0.057309 
-0.043990 -0.052410 
-0.048817 -0.066671 
-0.026940 -0.112400 
-0.031178 -0.100868 
-0.027399 -0.100267 
-0.039154 -0.102002 
-0.035110 -0.101460 
-0.034330 -0.113459 
-0.033298 -0.074714 
-0.034845 -0.088532 
-0.037585 -0.075574 
-0.054885 -0.101570 
-0.051216 -0.102422 
-0.049503 -0.112616 
-0.051235 -0.079593 
-0.051893 -0.091453 
-0.055430 -0.081062 
-0.042009 -0.113842 
-0.047302 -0.102625 
-0.043247 -0.102428 
-0.042092 -0.076686 
-0.043379 -0.090064 
-0.046705 -0.078056 
-0.001490 -0.164068 
-0.000759 -0.163698 
-0.003148 -0.165724 
-0.002276 -0.164762 
-0.004597 -0.153915 
-0.003480 -0.159857 
-0.006223 -0.154661 
-0.007910 -0.170850 
-0.006497 -0.169548 
-0.011715 -0.157579 
-0.009174 -0.164024 
-0.013794 -0.158551 
-0.005241 -0.168196 
-0.004130 -0.166893 
-0.019248 -0.122318 
-0.017902 -0.132560 
-0.022430 -0.122995 
-0.009629 -0.148402 
-0.013574 -0.141037 
-0.011116 -0.140247 
-0.018842 -0.142639 
-0.016147 -0.141855 
-0.014061 -0.150193 
-0.006093 -0.161720 
-0.009766 -0.156555 
-0.007940 -0.155560 
-0.043482 -0.123593 
-0.036298 -0.124640 
-0.039907 -0.124375 
-0.037125 -0.134088 
-0.030679 -0.143792 
-0.025745 -0.123630 
-0.021654 -0.143318 
-0.023944 -0.133935 
-0.029178 -0.124165 
-0.032707 -0.124532 
-0.012818 -0.166098 
-0.024358 -0.152470 
-0.018349 -0.159946 
-0.016006 -0.159375 
-0.018978 -0.151791 
-0.030414 -0.134703 
-0.024576 -0.143806 
-0.027591 -0.144003 
0.000000 0.000000 
-0.016613 -0.015356 
-0.011801 -0.014524 
-0.013854 -0.014727 
0.000000 0.000000 
-0.025124 -0.030679 
-0.029146 -0.045612 
-0.006394 -0.014576 
-0.007496 -0.014532 
0.000000 0.000000 
-0.019045 -0.044367 
-0.013889 -0.029404 
-0.016326 -0.044218 
0.000000 0.000000 
-0.008730 -0.014494 
-0.010140 -0.014478 
-0.026976 -0.087279 
-0.023792 -0.099678 
-0.030215 -0.060115 
-0.029276 -0.074052 
-0.022028 -0.073096 
-0.025525 -0.073527 
-0.022913 -0.059156 
-0.018666 -0.029607 
-0.022040 -0.044591 
-0.025376 -0.044962 
0.000000 -0.014661 
-0.000674 -0.014697 
0.000000 0.000000 
-0.001771 -0.043685 
-0.001272 -0.029292 
-0.000000 -0.043604 
0.000000 0.000000 
-0.001368 -0.014708 
-0.002086 -0.014707 
-0.002686 -0.096899 
-0.002615 -0.084482 
0.000000 -0.096788 
-0.006602 -0.057969 
-0.004914 -0.071529 
-0.007446 -0.071693 
-0.000000 -0.071298 
-0.002442 -0.071399 
-0.002162 -0.057760 
0.000000 0.000000 
-0.004480 -0.014650 
-0.005395 -0.014616 
-0.002837 -0.014696 
-0.003631 -0.014677 
0.000000 0.000000 
-0.009373 -0.043944 
-0.006777 -0.029371 
-0.007347 -0.043875 
-0.003570 -0.043750 
-0.005421 -0.043812 
-0.003908 -0.029349 
-0.001150 -0.158883 
-0.000000 -0.163651 
-0.005610 -0.146936 
-0.003037 -0.153360 
0.000000 -0.152903 
-0.001514 -0.153020 
-0.001846 -0.146117 
-0.020098 -0.111155 
-0.016200 -0.121644 
-0.010476 -0.120445 
-0.013280 -0.121010 
-0.013848 -0.109994 
-0.012350 -0.131108 
-0.008762 -0.139534 
0.000000 -0.119246 
-0.002558 -0.119363 
-0.002664 -0.108554 
-0.002138 -0.138189 
-0.002379 -0.129258 
0.000000 -0.138068 
-0.008096 -0.109091 
-0.005139 -0.119607 
-0.007770 -0.119971 
-0.006495 -0.138936 
-0.007226 -0.129936 
-0.004295 -0.138481 
-0.010037 -0.029378 
-0.011384 -0.058247 
-0.011525 -0.044020 
-0.013832 -0.044108 
-0.016738 -0.058620 
-0.005400 -0.097090 
-0.011027 -0.097705 
-0.008170 -0.097360 
-0.007962 -0.084861 
-0.010068 -0.071895 
-0.020361 -0.099115 
-0.018760 -0.072729 
-0.019944 -0.086272 
-0.017100 -0.098592 
-0.013995 -0.098118 
-0.012808 -0.072133 
-0.013666 -0.085464 
-0.015696 -0.072410 
0.000000 0.000000 
0.000674 -0.014697 
0.002086 -0.014707 
0.001368 -0.014708 
0.000000 0.000000 
0.001272 -0.029292 
0.001771 -0.043685 
0.005395 -0.014616 
0.004480 -0.014650 
0.000000 0.000000 
0.007347 -0.043875 
0.006777 -0.029371 
0.009373 -0.043944 
0.000000 0.000000 
0.003631 -0.014677 
0.002837 -0.014696 
0.002615 -0.084482 
0.002686 -0.096899 
0.002162 -0.057760 
0.002442 -0.071399 
0.007446 -0.071693 
0.004914 -0.071529 
0.006602 -0.057969 
0.003908 -0.029349 
0.005421 -0.043812 
0.003570 -0.043750 
0.020980 -0.017430 
0.016613 -0.015356 
0.000000 0.000000 
0.029146 -0.045612 
0.025124 -0.030679 
0.033475 -0.046795 
0.000000 0.000000 
0.013854 -0.014727 
0.011801 -0.014524 
0.023792 -0.099678 
0.026976 -0.087279 
0.027399 -0.100267 
0.022913 -0.059156 
0.025525 -0.073527 
0.022028 -0.073096 
0.033298 -0.074714 
0.029276 -0.074052 
0.030215 -0.060115 
0.000000 0.000000 
0.007496 -0.014532 
0.006394 -0.014576 
0.010140 -0.014478 
0.008730 -0.014494 
0.000000 0.000000 
0.016326 -0.044218 
0.013889 -0.029404 
0.019045 -0.044367 
0.025376 -0.044962 
0.022040 -0.044591 
0.018666 -0.029607 
0.001150 -0.158883 
0.000759 -0.163698 
0.001846 -0.146117 
0.001514 -0.153020 
0.004597 -0.153915 
0.003037 -0.153360 
0.005610 -0.146936 
0.002664 -0.108554 
0.002558 -0.119363 
0.007770 -0.119971 
0.005139 -0.119607 
0.008096 -0.109091 
0.002379 -0.129258 
0.002138 -0.138189 
0.019248 -0.122318 
0.016200 -0.121644 
0.020098 -0.111155 
0.008762 -0.139534 
0.012350 -0.131108 
0.011116 -0.140247 
0.013848 -0.109994 
0.013280 -0.121010 
0.010476 -0.120445 
0.004295 -0.138481 
0.007226 -0.129936 
0.006495 -0.138936 
0.010037 -0.029378 
0.016738 -0.058620 
0.013832 -0.044108 
0.011525 -0.044020 
0.011384 -0.058247 
0.020361 -0.099115 
0.013995 -0.098118 
0.017100 -0.098592 
0.019944 -0.086272 
0.018760 -0.072729 
0.005400 -0.097090 
0.010068 -0.071895 
0.007962 -0.084861 
0.008170 -0.097360 
0.011027 -0.097705 
0.015696 -0.072410 
0.013666 -0.085464 
0.012808 -0.072133 
0.030869 -0.026346 
0.035631 -0.036350 
0.048817 -0.066671 
0.043990 -0.052410 
0.049420 -0.057309 
0.038485 -0.048940 
0.038969 -0.062249 
0.049503 -0.112616 
0.051216 -0.102422 
0.054885 -0.101570 
0.043247 -0.102428 
0.047302 -0.102625 
0.042009 -0.113842 
0.055430 -0.081062 
0.051893 -0.091453 
0.051235 -0.079593 
0.031178 -0.100868 
0.026940 -0.112400 
0.037585 -0.075574 
0.034845 -0.088532 
0.034330 -0.113459 
0.035110 -0.101460 
0.039154 -0.102002 
0.046705 -0.078056 
0.043379 -0.090064 
0.042092 -0.076686 
0.017744 -0.173596 
0.022459 -0.167550 
0.025143 -0.163400 
0.017492 -0.172229 
0.019902 -0.170434 
0.013081 -0.178100 
0.034586 -0.150418 
0.027131 -0.161142 
0.031689 -0.154323 
0.009488 -0.171989 
0.011235 -0.172840 
0.006084 -0.177080 
0.023396 -0.159831 
0.017053 -0.167062 
0.020815 -0.160143 
0.009190 -0.178794 
0.013153 -0.173266 
0.015240 -0.173116 
0.050336 -0.119740 
0.043800 -0.130993 
0.046974 -0.122119 
0.036049 -0.147052 
0.040119 -0.139289 
0.043241 -0.135939 
0.033815 -0.143040 
0.036970 -0.141595 
0.030098 -0.151282 
0.021850 -0.165831 
0.026079 -0.158863 
0.028848 -0.157083 
0.001490 -0.164068 
0.000286 -0.167427 
0.006223 -0.154661 
0.003480 -0.159857 
0.001002 -0.168641 
0.002276 -0.164762 
0.003148 -0.165724 
0.022430 -0.122995 
0.017902 -0.132560 
0.014061 -0.150193 
0.016147 -0.141855 
0.018842 -0.142639 
0.013574 -0.141037 
0.009629 -0.148402 
0.003742 -0.174175 
0.006497 -0.169548 
0.007910 -0.170850 
0.004130 -0.166893 
0.005241 -0.168196 
0.002092 -0.171095 
0.013794 -0.158551 
0.009174 -0.164024 