# vtk DataFile Version 2.0
Unstructured Grid Example
ASCII
DATASET UNSTRUCTURED_GRID

POINTS 4225 float
0.014160 -0.237111 0.000000 
0.985840 -0.237111 0.000000 
1.000000 1.000000 0.000000 
0.000000 1.000000 0.000000 
0.500000 -0.099955 0.000000 
0.979790 0.330340 0.000000 
0.500000 1.000000 0.000000 
0.020210 0.330340 0.000000 
0.500000 0.332486 0.000000 
0.252778 -0.161080 0.000000 
0.500000 0.088953 0.000000 
0.235007 0.062163 0.000000 
0.747222 -0.161080 0.000000 
0.764993 0.062163 0.000000 
1.009387 0.037039 0.000000 
0.745234 0.323940 0.000000 
0.946747 0.639053 0.000000 
0.726413 0.637916 0.000000 
0.750000 1.000000 0.000000 
0.500000 0.641191 0.000000 
0.250000 1.000000 0.000000 
0.273587 0.637916 0.000000 
0.053253 0.639053 0.000000 
0.254766 0.323940 0.000000 
-0.009387 0.037039 0.000000 
0.138581 -0.211947 0.000000 
0.235515 -0.053993 0.000000 
0.114161 -0.087229 0.000000 
0.500000 -0.011579 0.000000 
0.364800 -0.023332 0.000000 
0.370250 -0.116772 0.000000 
0.370128 0.198476 0.000000 
0.365500 0.081265 0.000000 
0.500000 0.203123 0.000000 
0.629750 -0.116772 0.000000 
0.635200 -0.023332 0.000000 
0.885839 -0.087229 0.000000 
0.764485 -0.053993 0.000000 
0.861419 -0.211947 0.000000 
0.634500 0.081265 0.000000 
0.629872 0.198476 0.000000 
1.005462 -0.106003 0.000000 
0.889582 0.042908 0.000000 
0.864082 0.320855 0.000000 
0.879934 0.178360 0.000000 
0.998112 0.182877 0.000000 
0.757049 0.187474 0.000000 
0.623514 0.329930 0.000000 
0.960853 0.481534 0.000000 
0.847787 0.472526 0.000000 
0.840170 0.813746 0.000000 
0.836647 0.635942 0.000000 
0.946060 0.805130 0.000000 
0.733540 0.473599 0.000000 
0.617446 0.477078 0.000000 
0.875000 1.000000 0.000000 
0.730070 0.815952 0.000000 
0.500000 0.817066 0.000000 
0.615974 0.816749 0.000000 
0.625000 1.000000 0.000000 
0.614017 0.640213 0.000000 
0.500000 0.478698 0.000000 
0.375000 1.000000 0.000000 
0.384026 0.816749 0.000000 
0.159830 0.813746 0.000000 
0.269930 0.815952 0.000000 
0.125000 1.000000 0.000000 
0.385983 0.640213 0.000000 
0.382554 0.477078 0.000000 
0.053940 0.805130 0.000000 
0.163353 0.635942 0.000000 
0.135918 0.320855 0.000000 
0.152213 0.472526 0.000000 
0.039147 0.481534 0.000000 
0.266460 0.473599 0.000000 
0.376486 0.329930 0.000000 
0.001888 0.182877 0.000000 
0.120066 0.178360 0.000000 
0.110418 0.042908 0.000000 
-0.005462 -0.106003 0.000000 
0.242951 0.187474 0.000000 
0.075950 -0.226066 0.000000 
0.123483 -0.150631 0.000000 
0.063714 -0.163518 0.000000 
0.241086 -0.108843 0.000000 
0.181947 -0.131837 0.000000 
0.198776 -0.190089 0.000000 
0.171250 -0.010821 0.000000 
0.174107 -0.071908 0.000000 
0.233861 0.003034 0.000000 
0.500000 -0.057227 0.000000 
0.432760 -0.060847 0.000000 
0.434217 -0.104272 0.000000 
0.431922 0.034612 0.000000 
0.431983 -0.014596 0.000000 
0.500000 0.037087 0.000000 
0.309541 -0.136230 0.000000 
0.366690 -0.071343 0.000000 
0.302665 -0.087799 0.000000 
0.436452 0.264930 0.000000 
0.434878 0.201914 0.000000 
0.500000 0.265838 0.000000 
0.299553 0.072588 0.000000 
0.367470 0.138197 0.000000 
0.302277 0.131478 0.000000 
0.500000 0.144227 0.000000 
0.433510 0.142661 0.000000 
0.432478 0.086964 0.000000 
0.299144 -0.036955 0.000000 
0.364503 0.027481 0.000000 
0.298333 0.016489 0.000000 
0.565783 -0.104272 0.000000 
0.567240 -0.060847 0.000000 
0.697335 -0.087799 0.000000 
0.633310 -0.071343 0.000000 
0.690459 -0.136230 0.000000 
0.568017 -0.014596 0.000000 
0.568078 0.034612 0.000000 
0.936286 -0.163518 0.000000 
0.876517 -0.150631 0.000000 
0.924050 -0.226066 0.000000 
0.766139 0.003034 0.000000 
0.825893 -0.071908 0.000000 
0.828750 -0.010821 0.000000 
0.801224 -0.190089 0.000000 
0.818053 -0.131837 0.000000 
0.758914 -0.108843 0.000000 
0.565122 0.201914 0.000000 
0.563548 0.264930 0.000000 
0.567522 0.086964 0.000000 
0.566490 0.142661 0.000000 
0.697723 0.131478 0.000000 
0.632530 0.138197 0.000000 
0.700447 0.072588 0.000000 
0.700856 -0.036955 0.000000 
0.701667 0.016489 0.000000 
0.635497 0.027481 0.000000 
0.996688 -0.173640 0.000000 
0.945653 -0.098278 0.000000 
0.950047 0.037554 0.000000 
0.950190 -0.031074 0.000000 
1.009790 -0.035234 0.000000 
0.889876 -0.022729 0.000000 
0.827989 0.051655 0.000000 
0.922319 0.323304 0.000000 
0.931403 0.250007 0.000000 
0.989390 0.256271 0.000000 
0.812376 0.250470 0.000000 
0.872397 0.248602 0.000000 
0.805050 0.321502 0.000000 
1.005118 0.109839 0.000000 
0.939622 0.178079 0.000000 
0.946163 0.107298 0.000000 
0.626785 0.262318 0.000000 
0.561881 0.331909 0.000000 
0.761766 0.123559 0.000000 
0.693931 0.193361 0.000000 
0.684687 0.327051 0.000000 
0.689462 0.258474 0.000000 
0.751372 0.254178 0.000000 
0.885948 0.109871 0.000000 
0.819070 0.182006 0.000000 
0.824506 0.115831 0.000000 
0.970085 0.405266 0.000000 
0.913108 0.398245 0.000000 
0.896889 0.554362 0.000000 
0.904399 0.475149 0.000000 
0.952794 0.559381 0.000000 
0.855668 0.395393 0.000000 
0.797686 0.395375 0.000000 
0.907195 0.904672 0.000000 
0.893180 0.810572 0.000000 
0.957043 0.893353 0.000000 
0.781750 0.636720 0.000000 
0.835638 0.722945 0.000000 
0.781423 0.724342 0.000000 
0.943878 0.720818 0.000000 
0.889474 0.721423 0.000000 
0.891472 0.636279 0.000000 
0.620302 0.401480 0.000000 
0.560247 0.402996 0.000000 
0.739119 0.397005 0.000000 
0.679969 0.399297 0.000000 
0.672390 0.555361 0.000000 
0.675723 0.475377 0.000000 
0.729072 0.553887 0.000000 
0.841141 0.552589 0.000000 
0.785281 0.552745 0.000000 
0.790875 0.472368 0.000000 
0.937500 1.000000 0.000000 
0.853004 0.907363 0.000000 
0.737999 0.908031 0.000000 
0.796153 0.907923 0.000000 
0.812500 1.000000 0.000000 
0.785771 0.815208 0.000000 
0.726431 0.725486 0.000000 
0.500000 0.908117 0.000000 
0.559901 0.908085 0.000000 
0.562500 1.000000 0.000000 
0.557198 0.727601 0.000000 
0.558103 0.816964 0.000000 
0.500000 0.727787 0.000000 
0.687500 1.000000 0.000000 
0.619644 0.908066 0.000000 
0.679073 0.908052 0.000000 
0.558816 0.478267 0.000000 
0.500000 0.403525 0.000000 
0.670493 0.639158 0.000000 
0.615238 0.556717 0.000000 
0.500000 0.558001 0.000000 
0.557718 0.557655 0.000000 
0.557120 0.640922 0.000000 
0.673379 0.816420 0.000000 
0.614152 0.727133 0.000000 
0.670630 0.726417 0.000000 
0.437500 1.000000 0.000000 
0.440099 0.908085 0.000000 
0.320927 0.908052 0.000000 
0.380356 0.908066 0.000000 
0.312500 1.000000 0.000000 
0.441897 0.816964 0.000000 
0.442802 0.727601 0.000000 
0.092805 0.904672 0.000000 
0.146996 0.907363 0.000000 
0.062500 1.000000 0.000000 
0.273569 0.725486 0.000000 
0.214229 0.815208 0.000000 
0.218577 0.724342 0.000000 
0.187500 1.000000 0.000000 
0.203847 0.907923 0.000000 
0.262001 0.908031 0.000000 
0.441184 0.478267 0.000000 
0.439753 0.402996 0.000000 
0.442880 0.640922 0.000000 
0.442282 0.557655 0.000000 
0.327610 0.555361 0.000000 
0.384762 0.556717 0.000000 
0.329507 0.639158 0.000000 
0.326621 0.816420 0.000000 
0.329370 0.726417 0.000000 
0.385848 0.727133 0.000000 
0.042957 0.893353 0.000000 
0.106820 0.810572 0.000000 
0.108528 0.636279 0.000000 
0.110526 0.721423 0.000000 
0.056122 0.720818 0.000000 
0.164362 0.722945 0.000000 
0.218250 0.636720 0.000000 
0.077681 0.323304 0.000000 
0.086892 0.398245 0.000000 
0.029915 0.405266 0.000000 
0.202314 0.395375 0.000000 
0.144332 0.395393 0.000000 
0.194950 0.321502 0.000000 
0.047206 0.559381 0.000000 
0.095601 0.475149 0.000000 
0.103111 0.554362 0.000000 
0.379698 0.401480 0.000000 
0.438119 0.331909 0.000000 
0.270928 0.553887 0.000000 
0.324277 0.475377 0.000000 
0.315313 0.327051 0.000000 
0.320031 0.399297 0.000000 
0.260881 0.397005 0.000000 
0.158859 0.552589 0.000000 
0.209125 0.472368 0.000000 
0.214719 0.552745 0.000000 
0.010610 0.256271 0.000000 
0.068597 0.250007 0.000000 
0.053837 0.107298 0.000000 
0.060378 0.178079 0.000000 
-0.005118 0.109839 0.000000 
0.127603 0.248602 0.000000 
0.187624 0.250470 0.000000 
0.054347 -0.098278 0.000000 
0.003312 -0.173640 0.000000 
0.172011 0.051655 0.000000 
0.110124 -0.022729 0.000000 
-0.009790 -0.035234 0.000000 
0.049810 -0.031074 0.000000 
0.049953 0.037554 0.000000 
0.373215 0.262318 0.000000 
0.248628 0.254178 0.000000 
0.310538 0.258474 0.000000 
0.306069 0.193361 0.000000 
0.238234 0.123559 0.000000 
0.114052 0.109871 0.000000 
0.175494 0.115831 0.000000 
0.180930 0.182006 0.000000 
0.044904 -0.231665 0.000000 
0.069738 -0.195173 0.000000 
0.039181 -0.200570 0.000000 
0.130358 -0.181709 0.000000 
0.100205 -0.189068 0.000000 
0.107265 -0.219681 0.000000 
0.088387 -0.125681 0.000000 
0.093752 -0.157660 0.000000 
0.118106 -0.119084 0.000000 
0.245972 -0.135300 0.000000 
0.217089 -0.148236 0.000000 
0.225763 -0.175128 0.000000 
0.207211 -0.091964 0.000000 
0.211234 -0.120407 0.000000 
0.237709 -0.081712 0.000000 
0.169398 -0.202304 0.000000 
0.188675 -0.161313 0.000000 
0.159914 -0.172598 0.000000 
0.202480 0.026175 0.000000 
0.202332 -0.003993 0.000000 
0.234134 0.032329 0.000000 
0.144047 -0.080075 0.000000 
0.172160 -0.041519 0.000000 
0.141728 -0.048739 0.000000 
0.234283 -0.025738 0.000000 
0.202979 -0.033731 0.000000 
0.204548 -0.063055 0.000000 
0.152840 -0.142069 0.000000 
0.177273 -0.102013 0.000000 
0.147672 -0.111187 0.000000 
0.500000 -0.078954 0.000000 
0.466613 -0.079952 0.000000 
0.466996 -0.101041 0.000000 
0.466076 -0.035608 0.000000 
0.466304 -0.058141 0.000000 
0.500000 -0.034772 0.000000 
0.401901 -0.109562 0.000000 
0.433415 -0.082909 0.000000 
0.400583 -0.087751 0.000000 
0.466027 0.062043 0.000000 
0.465918 0.036460 0.000000 
0.500000 0.062607 0.000000 
0.398239 -0.018288 0.000000 
0.431867 0.009627 0.000000 
0.398033 0.006279 0.000000 
0.500000 0.012366 0.000000 
0.465886 0.011673 0.000000 
0.465937 -0.012343 0.000000 
0.280660 -0.148076 0.000000 
0.305667 -0.112286 0.000000 
0.275467 -0.123246 0.000000 
0.368275 -0.094364 0.000000 
0.336611 -0.102599 0.000000 
0.339425 -0.125727 0.000000 
0.332772 -0.054582 0.000000 
0.334385 -0.078902 0.000000 
0.365531 -0.047676 0.000000 
0.432280 -0.038081 0.000000 
0.398730 -0.042134 0.000000 
0.399514 -0.065281 0.000000 
[...]
POINT_DATA 4225

SCALARS u_h float 2
LOOKUP_TABLE default
0.014160 -0.237111 
-0.014160 -0.237111 
0.000000 0.000000 
0.000000 0.000000 
0.000000 -0.099955 
-0.020210 -0.169660 
0.000000 0.000000 
0.020210 -0.169660 
0.000000 -0.167514 
0.002778 -0.161080 
0.000000 -0.161047 
-0.014993 -0.187837 
-0.002778 -0.161080 
0.014993 -0.187837 
0.009387 -0.212961 
-0.004766 -0.176060 
-0.053253 -0.110947 
-0.023587 -0.112084 
0.000000 0.000000 
0.000000 -0.108809 
0.000000 0.000000 
0.023587 -0.112084 
0.053253 -0.110947 
0.004766 -0.176060 
-0.009387 -0.212961 
0.013581 -0.211947 
-0.014485 -0.178993 
-0.010839 -0.212229 
0.000000 -0.136579 
-0.010200 -0.148332 
-0.004750 -0.116772 
-0.004872 -0.176524 
-0.009500 -0.168735 
0.000000 -0.171877 
0.004750 -0.116772 
0.010200 -0.148332 
0.010839 -0.212229 
0.014485 -0.178993 
-0.013581 -0.211947 
0.009500 -0.168735 
0.004872 -0.176524 
0.005462 -0.231003 
0.014582 -0.207092 
-0.010918 -0.179145 
0.004934 -0.196640 
-0.001888 -0.192123 
0.007049 -0.187526 
-0.001486 -0.170070 
-0.039147 -0.143466 
-0.027213 -0.152474 
-0.034830 -0.061254 
-0.038353 -0.114058 
-0.053940 -0.069870 
-0.016460 -0.151401 
-0.007554 -0.147922 
0.000000 0.000000 
-0.019930 -0.059048 
0.000000 -0.057934 
-0.009026 -0.058251 
0.000000 0.000000 
-0.010983 -0.109787 
0.000000 -0.146302 
0.000000 0.000000 
0.009026 -0.058251 
0.034830 -0.061254 
0.019930 -0.059048 
0.000000 0.000000 
0.010983 -0.109787 
0.007554 -0.147922 
0.053940 -0.069870 
0.038353 -0.114058 
0.010918 -0.179145 
0.027213 -0.152474 
0.039147 -0.143466 
0.016460 -0.151401 
0.001486 -0.170070 
0.001888 -0.192123 
-0.004934 -0.196640 
-0.014582 -0.207092 
-0.005462 -0.231003 
-0.007049 -0.187526 
0.013450 -0.226066 
-0.001517 -0.213131 
0.001214 -0.226018 
-0.008914 -0.171343 
-0.005553 -0.194337 
0.011276 -0.190089 
-0.016250 -0.198321 
-0.013393 -0.196908 
-0.016139 -0.184466 
0.000000 -0.119727 
-0.004740 -0.123347 
-0.003283 -0.104272 
-0.005578 -0.152888 
-0.005517 -0.139596 
0.000000 -0.150413 
-0.002959 -0.136230 
-0.008310 -0.133843 
-0.009835 -0.150299 
-0.001048 -0.172570 
-0.002622 -0.173086 
0.000000 -0.171662 
-0.012947 -0.177412 
-0.007530 -0.174303 
-0.010223 -0.181022 
0.000000 -0.168273 
-0.003990 -0.169839 
-0.005022 -0.163036 
-0.013356 -0.161955 
-0.010497 -0.160019 
-0.014167 -0.171011 
0.003283 -0.104272 
0.004740 -0.123347 
0.009835 -0.150299 
0.008310 -0.133843 
0.002959 -0.136230 
0.005517 -0.139596 
0.005578 -0.152888 
-0.001214 -0.226018 
0.001517 -0.213131 
-0.013450 -0.226066 
0.016139 -0.184466 
0.013393 -0.196908 
0.016250 -0.198321 
-0.011276 -0.190089 
0.005553 -0.194337 
0.008914 -0.171343 
0.002622 -0.173086 
0.001048 -0.172570 
0.005022 -0.163036 
0.003990 -0.169839 
0.010223 -0.181022 
0.007530 -0.174303 
0.012947 -0.177412 
0.013356 -0.161955 
0.014167 -0.171011 
0.010497 -0.160019 
-0.003312 -0.236140 
0.008153 -0.223278 
0.012547 -0.212446 
0.012690 -0.218574 
0.009790 -0.222734 
0.014876 -0.210229 
0.015489 -0.198345 
-0.015181 -0.176696 
-0.006097 -0.187493 
-0.010610 -0.181229 
-0.000124 -0.187030 
-0.002603 -0.188898 
-0.007450 -0.178498 
0.005118 -0.202661 
0.002122 -0.196921 
0.008663 -0.205202 
0.001785 -0.175182 
-0.000619 -0.168091 
0.011766 -0.188941 
0.006431 -0.181639 
-0.002813 -0.172949 
0.001962 -0.179026 
0.001372 -0.183322 
0.010948 -0.202629 
0.006570 -0.192994 
0.012006 -0.196669 
-0.029915 -0.157234 
-0.024392 -0.164255 
-0.040611 -0.133138 
-0.033101 -0.149851 
-0.047206 -0.128119 
-0.019332 -0.167107 
-0.014814 -0.167125 
-0.030305 -0.032828 
-0.044320 -0.064428 
-0.042957 -0.044147 
-0.030750 -0.113280 
-0.039362 -0.089555 
-0.031077 -0.088158 
-0.056122 -0.091682 
-0.048026 -0.091077 
-0.046028 -0.113721 
-0.004698 -0.161020 
-0.002253 -0.159504 
-0.010881 -0.165495 
-0.007531 -0.163203 
-0.015110 -0.132139 
-0.011777 -0.149623 
-0.020928 -0.133613 
-0.033859 -0.134911 
-0.027219 -0.134755 
-0.021625 -0.152632 
0.000000 0.000000 
-0.021996 -0.030137 
-0.012001 -0.029469 
-0.016347 -0.029577 
0.000000 0.000000 
-0.026729 -0.059792 
-0.023569 -0.087014 
0.000000 -0.029383 
-0.002599 -0.029415 
0.000000 0.000000 
-0.005302 -0.084899 
-0.004397 -0.058036 
0.000000 -0.084713 
0.000000 0.000000 
-0.005356 -0.029434 
-0.008427 -0.029448 
-0.003684 -0.146733 
0.000000 -0.158975 
-0.017007 -0.110842 
-0.009762 -0.130783 
0.000000 -0.129499 
-0.004782 -0.129845 
-0.005380 -0.109078 
-0.014121 -0.058580 
-0.010848 -0.085367 
-0.016870 -0.086083 
0.000000 0.000000 
0.002599 -0.029415 
0.008427 -0.029448 
0.005356 -0.029434 
0.000000 0.000000 
0.004397 -0.058036 
0.005302 -0.084899 
0.030305 -0.032828 
0.021996 -0.030137 
0.000000 0.000000 
0.023569 -0.087014 
0.026729 -0.059792 
0.031077 -0.088158 
0.000000 0.000000 
0.016347 -0.029577 
0.012001 -0.029469 
0.003684 -0.146733 
0.002253 -0.159504 
0.005380 -0.109078 
0.004782 -0.129845 
0.015110 -0.132139 
0.009762 -0.130783 
0.017007 -0.110842 
0.014121 -0.058580 
0.016870 -0.086083 
0.010848 -0.085367 
0.042957 -0.044147 
0.044320 -0.064428 
0.046028 -0.113721 
0.048026 -0.091077 
0.056122 -0.091682 
0.039362 -0.089555 
0.030750 -0.113280 
0.015181 -0.176696 
0.024392 -0.164255 
0.029915 -0.157234 
0.014814 -0.167125 
0.019332 -0.167107 
0.007450 -0.178498 
0.047206 -0.128119 
0.033101 -0.149851 
0.040611 -0.133138 
0.004698 -0.161020 
0.000619 -0.168091 
0.020928 -0.133613 
0.011777 -0.149623 
0.002813 -0.172949 
0.007531 -0.163203 
0.010881 -0.165495 
0.033859 -0.134911 
0.021625 -0.152632 
0.027219 -0.134755 
0.010610 -0.181229 
0.006097 -0.187493 
-0.008663 -0.205202 
-0.002122 -0.196921 
-0.005118 -0.202661 
0.002603 -0.188898 
0.000124 -0.187030 
-0.008153 -0.223278 
0.003312 -0.236140 
-0.015489 -0.198345 
-0.014876 -0.210229 
-0.009790 -0.222734 
-0.012690 -0.218574 
-0.012547 -0.212446 
-0.001785 -0.175182 
-0.001372 -0.183322 
-0.001962 -0.179026 
-0.006431 -0.181639 
-0.011766 -0.188941 
-0.010948 -0.202629 
-0.012006 -0.196669 
-0.006570 -0.192994 
0.013654 -0.231665 
0.007238 -0.226423 
0.007931 -0.231820 
0.005358 -0.212959 
0.006455 -0.220318 
0.013515 -0.219681 
-0.005363 -0.219431 
0.000002 -0.220160 
-0.006894 -0.212834 
-0.004028 -0.166550 
-0.001661 -0.179486 
0.007013 -0.175128 
-0.011539 -0.185714 
-0.007516 -0.182907 
-0.012291 -0.175462 
0.013148 -0.202304 
0.001175 -0.192563 
0.003664 -0.203848 
-0.016270 -0.192575 
-0.016418 -0.191493 
-0.015866 -0.186421 
-0.012203 -0.205075 
-0.015340 -0.197769 
-0.014522 -0.204989 
-0.015717 -0.181988 
-0.015771 -0.189981 
-0.014202 -0.188055 
-0.003410 -0.204569 
-0.010227 -0.195763 
-0.008578 -0.204937 
0.000000 -0.110204 
-0.002137 -0.111202 
-0.001754 -0.101041 
-0.002674 -0.129358 
-0.002446 -0.120641 
0.000000 -0.128522 
-0.004349 -0.109562 
-0.004085 -0.114159 
-0.005667 -0.119001 
-0.002723 -0.156707 
-0.002832 -0.151040 
0.000000 -0.156143 
-0.008011 -0.143288 
-0.005633 -0.146623 
-0.008217 -0.149971 
0.000000 -0.143884 
-0.002864 -0.144577 
-0.002813 -0.137343 
-0.000590 -0.148076 
-0.006833 -0.143536 
-0.005783 -0.154496 
-0.006725 -0.125614 
-0.007139 -0.133849 
-0.004325 -0.125727 
-0.010978 -0.148332 
-0.009365 -0.141402 
-0.009469 -0.141426 
-0.005220 -0.131831 
-0.007520 -0.135884 
-0.006736 -0.127781 
-0.000136 -0.170252 
-0.000547 -0.171888 
0.000000 -0.170075 
-0.003814 -0.174552 
-0.001853 -0.173311 
-0.002671 -0.174592 
0.000000 -0.172258 
-0.000949 -0.172524 
-0.001335 -0.172183 
-0.014161 -0.182502 
-0.011744 -0.179577 
-0.012846 -0.184038 
-0.008618 -0.171924 
-0.010322 -0.175487 
-0.011379 -0.172766 
-0.007468 -0.178592 
-0.009004 -0.177438 
-0.006270 -0.175846 
0.000000 -0.165099 
-0.002310 -0.165548 
-0.002546 -0.161552 
-0.001696 -0.170890 
-0.002024 -0.168670 
0.000000 -0.170540 
-0.007361 -0.165456 
-0.004556 -0.166869 
-0.006678 -0.169018 
-0.004879 -0.173593 
-0.005842 -0.171739 
-0.003339 -0.171920 
-0.009686 -0.160354 
-0.012005 -0.154606 
-0.011982 -0.156449 
-0.012431 -0.165579 
-0.014197 -0.170173 
-0.005369 -0.158368 
-0.010139 -0.164759 
-0.007864 -0.161078 
-0.008159 -0.155908 
-0.010531 -0.154537 
-0.015031 -0.180330 
-0.015141 -0.174158 
-0.015386 -0.177545 
-0.013775 -0.174550 
-0.012129 -0.169298 
-0.012499 -0.160202 
-0.012520 -0.165104 
-0.014054 -0.166810 
0.001754 -0.101041 
0.002137 -0.111202 
0.005667 -0.119001 
0.004085 -0.114159 
0.004349 -0.109562 
0.002446 -0.120641 
0.002674 -0.129358 
0.005783 -0.154496 
0.006833 -0.143536 
0.000590 -0.148076 
0.009469 -0.141426 
0.009365 -0.141402 
0.010978 -0.148332 
0.004325 -0.125727 
0.007139 -0.133849 
0.006725 -0.125614 
0.002832 -0.151040 
0.002723 -0.156707 
0.002813 -0.137343 
0.002864 -0.144577 
0.008217 -0.149971 
0.005633 -0.146623 
0.008011 -0.143288 
0.006736 -0.127781 
0.007520 -0.135884 
0.005220 -0.131831 
-0.007931 -0.231820 
-0.007238 -0.226423 
-0.013654 -0.231665 
0.006894 -0.212834 
-0.000002 -0.220160 
0.005363 -0.219431 
-0.013515 -0.219681 
-0.006455 -0.220318 
-0.005358 -0.212959 
0.015866 -0.186421 
0.016418 -0.191493 
0.016270 -0.192575 
0.014202 -0.188055 
0.015771 -0.189981 
0.015717 -0.181988 
0.014522 -0.204989 
0.015340 -0.197769 
0.012203 -0.205075 
-0.007013 -0.175128 
0.001661 -0.179486 
0.004028 -0.166550 
-0.003664 -0.203848 
-0.001175 -0.192563 
-0.013148 -0.202304 
0.012291 -0.175462 
0.007516 -0.182907 
0.011539 -0.185714 
0.008578 -0.204937 
0.010227 -0.195763 
0.003410 -0.204569 
0.000547 -0.171888 
0.000136 -0.170252 
0.001335 -0.172183 
0.000949 -0.172524 
0.002671 -0.174592 
0.001853 -0.173311 
0.003814 -0.174552 
0.002546 -0.161552 
0.002310 -0.165548 
0.006678 -0.169018 
0.004556 -0.166869 
0.007361 -0.165456 
0.002024 -0.168670 
0.001696 -0.170890 
0.012846 -0.184038 
0.011744 -0.179577 
0.014161 -0.182502 
0.006270 -0.175846 
0.009004 -0.177438 
0.007468 -0.178592 
0.011379 -0.172766 
0.010322 -0.175487 
0.008618 -0.171924 
0.003339 -0.171920 
0.005842 -0.171739 
0.004879 -0.173593 
0.009686 -0.160354 
0.014197 -0.170173 
0.012431 -0.165579 
0.011982 -0.156449 
0.012005 -0.154606 
0.015031 -0.180330 
0.012129 -0.169298 
0.013775 -0.174550 
0.015386 -0.177545 
0.015141 -0.174158 
0.005369 -0.158368 
0.010531 -0.154537 
0.008159 -0.155908 
0.007864 -0.161078 
0.010139 -0.164759 
0.014054 -0.166810 
0.012520 -0.165104 
0.012499 -0.160202 
-0.008683 -0.237116 
-0.002258 -0.231163 
0.006866 -0.227444 
0.002801 -0.229679 
0.001534 -0.234070 
0.004022 -0.224936 
0.009466 -0.218269 
0.011128 -0.213408 
0.011793 -0.217451 
0.010140 -0.217956 
0.014287 -0.212743 
0.013153 -0.215663 
0.013694 -0.210282 
0.008241 -0.227149 
0.011365 -0.221205 
0.009738 -0.224576 
0.016262 -0.198526 
0.015432 -0.193197 
0.013460 -0.211361 
0.015704 -0.204648 
0.015193 -0.203049 
0.015887 -0.204015 
0.015209 -0.208814 
0.011045 -0.221133 
0.013855 -0.214900 
0.012280 -0.216748 
-0.017603 -0.173857 
-0.012850 -0.179608 
-0.015344 -0.175554 
-0.008527 -0.183778 
-0.010576 -0.182282 
-0.012951 -0.178396 
-0.006092 -0.186737 
-0.008228 -0.185072 
-0.003822 -0.190283 
-0.002600 -0.181746 
-0.003745 -0.183103 
-0.006012 -0.177428 
0.001306 -0.193003 
-0.001238 -0.188280 
0.002460 -0.191979 
-0.009085 -0.179123 
-0.005113 -0.184006 
-0.006706 -0.184290 
0.007665 -0.207846 
0.007057 -0.204692 
0.009501 -0.209143 
0.000269 -0.195273 
0.003936 -0.200070 
0.001889 -0.197422 
0.007073 -0.201043 
0.005660 -0.201195 
0.003676 -0.197303 
-0.004223 -0.188700 
-0.000124 -0.193198 
-0.001833 -0.192362 
0.000221 -0.170836 
-0.000293 -0.167588 
0.003367 -0.176312 
0.001472 -0.173684 
-0.001007 -0.168935 
0.000238 -0.171806 
0.000157 -0.173109 
0.013601 -0.188687 
0.011152 -0.184912 
0.006870 -0.184555 
0.009140 -0.185095 
0.009560 -0.188565 
0.008435 -0.181719 
0.005756 -0.178921 
-0.003703 -0.174527 
-0.000944 -0.178276 
-0.001669 -0.180089 
-0.000050 -0.174679 
-0.000410 -0.176435 
-0.002080 -0.171433 
0.004299 -0.185790 
0.001774 -0.181177 
0.004396 -0.183259 
0.003906 -0.178397 
0.004258 -0.180751 
0.001958 -0.176992 
0.011004 -0.208953 
0.008182 -0.199839 
0.009957 -0.204442 
0.012207 -0.207517 
0.013121 -0.205038 
0.000743 -0.185323 
0.006952 -0.190396 
0.003951 -0.188195 
0.003340 -0.190316 
0.005898 -0.195138 
0.013998 -0.193325 
0.013738 -0.201713 
0.014038 -0.197739 
0.012052 -0.192925 
0.009678 -0.191961 
0.008988 -0.197791 
0.009487 -0.195100 
0.011635 -0.199971 
-0.025080 -0.163604 
-0.022375 -0.167786 
-0.031708 -0.154508 
-0.027102 -0.161351 
-0.034633 -0.150532 
-0.019810 -0.170700 
-0.017399 -0.172522 
-0.047158 -0.122253 
-0.043943 -0.131131 
-0.050544 -0.119776 
-0.030128 -0.151547 
-0.037055 -0.141806 
-0.033886 -0.143296 
-0.043371 -0.136005 
-0.040223 -0.139438 
-0.036112 -0.147217 
-0.011163 -0.173184 
-0.009426 -0.172341 
-0.015151 -0.173430 
-0.013072 -0.173597 
-0.020795 -0.160468 
-0.017001 -0.167391 
-0.023380 -0.160135 
-0.028849 -0.157319 
-0.026069 -0.159139 
-0.021798 -0.166116 
-0.022045 -0.018396 
-0.036249 -0.036814 
-0.031141 -0.027873 
-0.039428 -0.062549 
-0.039046 -0.049274 
-0.034021 -0.047121 
-0.049941 -0.057682 
-0.044543 -0.052769 
-0.049286 -0.066948 
-0.027100 -0.112707 
-0.031400 -0.101166 
-0.027601 -0.100562 
-0.039401 -0.102282 
-0.035346 -0.101753 
-0.034514 -0.113754 
-0.033641 -0.075001 
-0.035135 -0.088823 
-0.037953 -0.075865 
-0.055178 -0.101597 
-0.051490 -0.102571 
-0.049730 -0.112753 
-0.051626 -0.079809 
-0.052220 -0.091627 
-0.055826 -0.081140 
-0.042213 -0.114093 
-0.047565 -0.102843 
-0.043503 -0.102685 
-0.042474 -0.076967 
-0.043694 -0.090331 
-0.047094 -0.078316 
-0.001455 -0.164318 
-0.000721 -0.163877 
-0.003119 -0.166046 
-0.002246 -0.165056 
-0.004559 -0.154215 
-0.003438 -0.160152 
-0.006188 -0.154980 
-0.007858 -0.171205 
-0.006454 -0.169904 
-0.011691 -0.157929 
-0.009136 -0.164378 
-0.013771 -0.158902 
-0.005206 -0.168547 
-0.004099 -0.167233 
-0.019337 -0.122632 
-0.017957 -0.132885 
-0.022534 -0.123312 
-0.009613 -0.148731 
-0.013588 -0.141368 
-0.011121 -0.140571 
-0.018873 -0.142976 
-0.016171 -0.142190 
-0.014058 -0.150537 
-0.006056 -0.162058 
-0.009739 -0.156899 
-0.007909 -0.155894 
-0.043650 -0.123796 
-0.036445 -0.124919 
-0.040063 -0.124623 
-0.037238 -0.134339 
-0.030741 -0.144081 
-0.025861 -0.123946 
-0.021693 -0.143652 
-0.024019 -0.134261 
-0.029306 -0.124476 
-0.032845 -0.124831 
-0.012773 -0.166449 
-0.024373 -0.152788 
-0.018327 -0.160285 
-0.015984 -0.159723 
-0.018984 -0.152132 
-0.030508 -0.135007 
-0.024621 -0.144132 
-0.027644 -0.144314 
0.000000 0.000000 
-0.017090 -0.015721 
-0.011962 -0.014623 
-0.014109 -0.014901 
0.000000 0.000000 
-0.025669 -0.030977 
-0.029613 -0.045886 
-0.006448 -0.014615 
-0.007564 -0.014576 
0.000000 0.000000 
-0.019284 -0.044524 
-0.014054 -0.029501 
-0.016515 -0.044356 
0.000000 0.000000 
-0.008817 -0.014546 
-0.010255 -0.014545 
-0.027218 -0.087557 
-0.023972 -0.099965 
-0.030599 -0.060385 
-0.029586 -0.074323 
-0.022257 -0.073328 
-0.025795 -0.073779 
-0.023186 -0.059368 
-0.018955 -0.029752 
-0.022341 -0.044776 
-0.025755 -0.045185 
0.000000 -0.014742 
-0.000686 -0.014752 
0.000000 0.000000 
-0.001791 -0.043847 
-0.001289 -0.029402 
0.000000 -0.043819 
0.000000 0.000000 
-0.001386 -0.014751 
-0.002108 -0.014743 
-0.002704 -0.097214 
-0.002636 -0.084770 
0.000000 -0.097147 
-0.006668 -0.058129 
-0.004960 -0.071749 
-0.007516 -0.071895 
0.000000 -0.071605 
-0.002465 -0.071652 
-0.002184 -0.057971 
0.000000 0.000000 
-0.004515 -0.014685 
-0.005439 -0.014652 
-0.002862 -0.014730 
-0.003661 -0.014711 
0.000000 0.000000 
-0.009468 -0.044054 
-0.006841 -0.029441 
-0.007421 -0.043986 
-0.003608 -0.043883 
-0.005476 -0.043929 
-0.003948 -0.029425 
-0.001117 -0.159107 
0.000000 -0.163747 
-0.005584 -0.147244 
-0.003001 -0.153640 
0.000000 -0.153161 
-0.001490 -0.153284 
-0.001831 -0.146414 
-0.020222 -0.111453 
-0.016274 -0.121953 
-0.010519 -0.120747 
-0.013338 -0.121314 
-0.013932 -0.110280 
-0.012381 -0.131424 
-0.008759 -0.139851 
0.000000 -0.119616 
-0.002564 -0.119700 
-0.002676 -0.108885 
-0.002131 -0.138509 
-0.002379 -0.129592 
0.000000 -0.138406 
-0.008141 -0.109382 
-0.005155 -0.119923 
-0.007798 -0.120276 
-0.006487 -0.139248 
-0.007236 -0.130248 
-0.004285 -0.138793 
-0.010137 -0.029455 
-0.011500 -0.058400 
-0.011645 -0.044135 
-0.013983 -0.044233 
-0.016920 -0.058792 
-0.005436 -0.097375 
-0.011108 -0.097967 
-0.008228 -0.097628 
-0.008030 -0.085099 
-0.010164 -0.072088 
-0.020517 -0.099393 
-0.018952 -0.072944 
-0.020125 -0.086523 
-0.017231 -0.098860 
-0.014101 -0.098381 
-0.012933 -0.072328 
-0.013786 -0.085696 
-0.015853 -0.072613 
0.000000 0.000000 
0.000686 -0.014752 
0.002108 -0.014743 
0.001386 -0.014751 
0.000000 0.000000 
0.001289 -0.029402 
0.001791 -0.043847 
0.005439 -0.014652 
0.004515 -0.014685 
0.000000 0.000000 
0.007421 -0.043986 
0.006841 -0.029441 
0.009468 -0.044054 
0.000000 0.000000 
0.003661 -0.014711 
0.002862 -0.014730 
0.002636 -0.084770 
0.002704 -0.097214 
0.002184 -0.057971 
0.002465 -0.071652 
0.007516 -0.071895 
0.004960 -0.071749 
0.006668 -0.058129 
0.003948 -0.029425 
0.005476 -0.043929 
0.003608 -0.043883 
0.022045 -0.018396 
0.017090 -0.015721 
0.000000 0.000000 
0.029613 -0.045886 
0.025669 -0.030977 
0.034021 -0.047121 
0.000000 0.000000 
0.014109 -0.014901 
0.011962 -0.014623 
0.023972 -0.099965 
0.027218 -0.087557 
0.027601 -0.100562 
0.023186 -0.059368 
0.025795 -0.073779 
0.022257 -0.073328 
0.033641 -0.075001 
0.029586 -0.074323 
0.030599 -0.060385 
0.000000 0.000000 
0.007564 -0.014576 
0.006448 -0.014615 
0.010255 -0.014545 
0.008817 -0.014546 
0.000000 0.000000 
0.016515 -0.044356 
0.014054 -0.029501 
0.019284 -0.044524 
0.025755 -0.045185 
0.022341 -0.044776 
0.018955 -0.029752 
0.001117 -0.159107 
0.000721 -0.163877 
0.001831 -0.146414 
0.001490 -0.153284 
0.004559 -0.154215 
0.003001 -0.153640 
0.005584 -0.147244 
0.002676 -0.108885 
0.002564 -0.119700 
0.007798 -0.120276 
0.005155 -0.119923 
0.008141 -0.109382 
0.002379 -0.129592 
0.002131 -0.138509 
0.019337 -0.122632 
0.016274 -0.121953 
0.020222 -0.111453 
0.008759 -0.139851 
0.012381 -0.131424 
0.011121 -0.140571 
0.013932 -0.110280 
0.013338 -0.121314 
0.010519 -0.120747 
0.004285 -0.138793 
0.007236 -0.130248 
0.006487 -0.139248 
0.010137 -0.029455 
0.016920 -0.058792 
0.013983 -0.044233 
0.011645 -0.044135 
0.011500 -0.058400 
0.020517 -0.099393 
0.014101 -0.098381 
0.017231 -0.098860 
0.020125 -0.086523 
0.018952 -0.072944 
0.005436 -0.097375 
0.010164 -0.072088 
0.008030 -0.085099 
0.008228 -0.097628 
0.011108 -0.097967 
0.015853 -0.072613 
0.013786 -0.085696 
0.012933 -0.072328 
0.031141 -0.027873 
0.036249 -0.036814 
0.049286 -0.066948 
0.044543 -0.052769 
0.049941 -0.057682 
0.039046 -0.049274 
0.039428 -0.062549 
0.049730 -0.112753 
0.051490 -0.102571 
0.055178 -0.101597 
0.043503 -0.102685 
0.047565 -0.102843 
0.042213 -0.114093 
0.055826 -0.081140 
0.052220 -0.091627 
0.051626 -0.079809 
0.031400 -0.101166 
0.027100 -0.112707 
0.037953 -0.075865 
0.035135 -0.088823 
0.034514 -0.113754 
0.035346 -0.101753 
0.039401 -0.102282 
0.047094 -0.078316 
0.043694 -0.090331 
0.042474 -0.076967 
0.017603 -0.173857 
0.022375 -0.167786 
0.025080 -0.163604 
0.017399 -0.172522 
0.019810 -0.170700 
0.012951 -0.178396 
0.034633 -0.150532 
0.027102 -0.161351 
0.031708 -0.154508 
0.009426 -0.172341 
0.011163 -0.173184 
0.006012 -0.177428 
0.023380 -0.160135 
0.017001 -0.167391 
0.020795 -0.160468 
0.009085 -0.179123 
0.013072 -0.173597 
0.015151 -0.173430 
0.050544 -0.119776 
0.043943 -0.131131 
0.047158 -0.122253 
0.036112 -0.147217 
0.040223 -0.139438 
0.043371 -0.136005 
0.033886 -0.143296 
0.037055 -0.141806 
0.030128 -0.151547 
0.021798 -0.166116 
0.026069 -0.159139 
0.028849 -0.157319 
0.001455 -0.164318 
0.000293 -0.167588 
0.006188 -0.154980 
0.003438 -0.160152 
0.001007 -0.168935 
0.002246 -0.165056 
0.003119 -0.166046 
0.022534 -0.123312 
0.017957 -0.132885 
0.014058 -0.150537 
0.016171 -0.142190 
0.018873 -0.142976 
0.013588 -0.141368 
0.009613 -0.148731 
0.003703 -0.174527 
0.006454 -0.169904 
0.007858 -0.171205 
0.004099 -0.167233 
0.005206 -0.168547 
0.002080 -0.171433 
0.013771 -0.158902 
0.009136 -0.164378 
0.011691 -0.157929 