# vtk DataFile Version 2.0
Unstructured Grid Example
ASCII
DATASET UNSTRUCTURED_GRID

POINTS 64 float
0.000000 0.000000 0.000000 
0.031250 0.000000 0.000000 
0.031250 0.000000 0.000000 
0.062500 0.000000 0.000000 
0.062500 0.000000 0.000000 
0.093750 0.000000 0.000000 
0.093750 0.000000 0.000000 
0.125000 0.000000 0.000000 
0.187500 0.375972 0.000000 
0.218750 -7.327573 0.000000 
0.218750 -3.302802 0.000000 
0.250000 -7.673571 0.000000 
0.125000 0.000000 0.000000 
0.156250 0.000000 0.000000 
0.156250 2.191876 0.000000 
0.187500 -4.383753 0.000000 
0.437500 -11.569575 0.000000 
0.468750 -12.505358 0.000000 
0.468750 -12.233102 0.000000 
0.500000 -12.114086 0.000000 
0.375000 -9.903127 0.000000 
0.406250 -12.077870 0.000000 
0.406250 -10.824409 0.000000 
0.437500 -12.410049 0.000000 
0.250000 -4.922170 0.000000 
0.281250 -8.805603 0.000000 
0.281250 -6.337147 0.000000 
0.312500 -9.859082 0.000000 
0.312500 -7.639469 0.000000 
0.343750 -10.776372 0.000000 
0.343750 -8.833434 0.000000 
0.375000 -11.525345 0.000000 
0.500000 -12.114086 0.000000 
0.531250 -12.233102 0.000000 
0.531250 -12.505358 0.000000 
0.562500 -11.569575 0.000000 
0.562500 -12.410049 0.000000 
0.593750 -10.824409 0.000000 
0.593750 -12.077870 0.000000 
0.625000 -9.903127 0.000000 
0.687500 -9.859082 0.000000 
0.718750 -6.337147 0.000000 
0.718750 -8.805603 0.000000 
0.750000 -4.922170 0.000000 
0.625000 -11.525345 0.000000 
0.656250 -8.833434 0.000000 
0.656250 -10.776372 0.000000 
0.687500 -7.639469 0.000000 
0.937500 0.000000 0.000000 
0.968750 0.000000 0.000000 
0.968750 0.000000 0.000000 
1.000000 0.000000 0.000000 
0.875000 0.000000 0.000000 
0.906250 0.000000 0.000000 
0.906250 0.000000 0.000000 
0.937500 0.000000 0.000000 
0.750000 -7.673571 0.000000 
0.781250 -3.302802 0.000000 
0.781250 -7.327573 0.000000 
0.812500 0.375972 0.000000 
0.812500 -4.383753 0.000000 
0.843750 2.191876 0.000000 
0.843750 0.000000 0.000000 
0.875000 0.000000 0.000000 

CELLS 32 96
2  0 1 
2  2 3 
2  4 5 
2  6 7 
2  8 9 
2  10 11 
2  12 13 
2  14 15 
2  16 17 
2  18 19 
2  20 21 
2  22 23 
2  24 25 
2  26 27 
2  28 29 
2  30 31 
2  32 33 
2  34 35 
2  36 37 
2  38 39 
2  40 41 
2  42 43 
2  44 45 
2  46 47 
2  48 49 
2  50 51 
2  52 53 
2  54 55 
2  56 57 
2  58 59 
2  60 61 
2  62 63 

CELL_TYPES 32
3
3
3
3
3
3
3
3
3
3
3
3
3
3
3
3
3
3
3
3
3
3
3
3
3
3
3
3
3
3
3
3

POINT_DATA 64

SCALARS lambda_h float 1
LOOKUP_TABLE default
0.000000 
0.000000 
0.000000 
0.000000 
0.000000 
0.000000 
0.000000 
0.000000 
0.375972 
-7.327573 
-3.302802 
-7.673571 
0.000000 
0.000000 
2.191876 
-4.383753 
-11.569575 
-12.505358 
-12.233102 
-12.114086 
-9.903127 
-12.077870 
-10.824409 
-12.410049 
-4.922170 
-8.805603 
-6.337147 
-9.859082 
-7.639469 
-10.776372 
-8.833434 
-11.525345 
-12.114086 
-12.233102 
-12.505358 
-11.569575 
-12.410049 
-10.824409 
-12.077870 
-9.903127 
-9.859082 
-6.337147 
-8.805603 
-4.922170 
-11.525345 
-8.833434 
-10.776372 
-7.639469 
0.000000 
0.000000 
0.000000 
0.000000 
0.000000 
0.000000 
0.000000 
0.000000 
-7.673571 
-3.302802 
-7.327573 
0.375972 
-4.383753 
2.191876 
0.000000 
0.000000 

