# vtk DataFile Version 2.0
Unstructured Grid Example
ASCII
DATASET UNSTRUCTURED_GRID

POINTS 256 float
0.000000 0.000000 0.000000 
0.007812 0.000000 0.000000 
0.007812 0.000000 0.000000 
0.015625 0.000000 0.000000 
0.015625 0.000000 0.000000 
0.023438 0.000000 0.000000 
0.023438 0.000000 0.000000 
0.031250 0.000000 0.000000 
0.046875 0.000000 0.000000 
0.054688 0.000000 0.000000 
0.054688 0.000000 0.000000 
0.062500 0.000000 0.000000 
0.031250 0.000000 0.000000 
0.039062 0.000000 0.000000 
0.039062 0.000000 0.000000 
0.046875 0.000000 0.000000 
0.109375 0.000000 0.000000 
0.117188 0.000000 0.000000 
0.117188 0.000000 0.000000 
0.125000 0.000000 0.000000 
0.093750 0.000000 0.000000 
0.101562 0.000000 0.000000 
0.101562 0.000000 0.000000 
0.109375 0.000000 0.000000 
0.062500 0.000000 0.000000 
0.070312 0.000000 0.000000 
0.070312 0.000000 0.000000 
0.078125 0.000000 0.000000 
0.078125 0.000000 0.000000 
0.085938 0.000000 0.000000 
0.085938 0.000000 0.000000 
0.093750 0.000000 0.000000 
0.234375 -4.985134 0.000000 
0.242188 -6.096840 0.000000 
0.242188 -5.367614 0.000000 
0.250000 -6.443588 0.000000 
0.218750 -4.170119 0.000000 
0.226562 -5.372027 0.000000 
0.226562 -4.587079 0.000000 
0.234375 -5.740015 0.000000 
0.187500 -2.162864 0.000000 
0.195312 -3.754487 0.000000 
0.195312 -2.743867 0.000000 
0.203125 -4.184105 0.000000 
0.203125 -3.257943 0.000000 
0.210938 -4.596191 0.000000 
0.210938 -3.729462 0.000000 
0.218750 -4.991402 0.000000 
0.125000 0.000000 0.000000 
0.132812 0.000000 0.000000 
0.132812 0.000000 0.000000 
0.140625 0.000000 0.000000 
0.140625 0.000000 0.000000 
0.148438 0.000000 0.000000 
0.148438 0.000000 0.000000 
0.156250 0.000000 0.000000 
0.171875 0.944181 0.000000 
0.179688 -3.561764 0.000000 
0.179688 -1.426160 0.000000 
0.187500 -3.327028 0.000000 
0.156250 0.000000 0.000000 
0.164062 0.000000 0.000000 
0.164062 0.557801 0.000000 
0.171875 -1.115602 0.000000 
0.484375 -12.304923 0.000000 
0.492188 -12.368501 0.000000 
0.492188 -12.385231 0.000000 
0.500000 -12.271464 0.000000 
0.468750 -12.190928 0.000000 
0.476562 -12.340416 0.000000 
0.476562 -12.255058 0.000000 
0.484375 -12.361645 0.000000 
0.437500 -11.796163 0.000000 
0.445312 -12.112341 0.000000 
0.445312 -11.915140 0.000000 
0.453125 -12.190566 0.000000 
0.453125 -12.020756 0.000000 
0.460938 -12.254760 0.000000 
0.460938 -12.112760 0.000000 
0.468750 -12.304756 0.000000 
0.375000 -10.400812 0.000000 
0.382812 -11.010652 0.000000 
0.382812 -10.615132 0.000000 
0.390625 -11.191853 0.000000 
0.390625 -10.818773 0.000000 
0.398438 -11.361291 0.000000 
0.398438 -11.011370 0.000000 
0.406250 -11.518616 0.000000 
0.421875 -11.519269 0.000000 
0.429688 -11.914612 0.000000 
0.429688 -11.664106 0.000000 
0.437500 -12.020281 0.000000 
0.406250 -11.192557 0.000000 
0.414062 -11.663489 0.000000 
0.414062 -11.361973 0.000000 
0.421875 -11.795588 0.000000 
0.250000 -5.736876 0.000000 
0.257812 -6.781037 0.000000 
0.257812 -6.094607 0.000000 
0.265625 -7.109737 0.000000 
0.265625 -6.442016 0.000000 
0.273438 -7.430049 0.000000 
0.273438 -6.779961 0.000000 
0.281250 -7.742192 0.000000 
0.296875 -7.742026 0.000000 
0.304688 -8.630152 0.000000 
0.304688 -8.046289 0.000000 
0.312500 -8.909750 0.000000 
0.281250 -7.109039 0.000000 
0.289062 -8.046267 0.000000 
0.289062 -7.429647 0.000000 
0.296875 -8.342278 0.000000 
0.359375 -9.941582 0.000000 
0.367188 -10.614410 0.000000 
0.367188 -10.176177 0.000000 
0.375000 -10.818049 0.000000 
0.343750 -9.443866 0.000000 
0.351562 -10.175488 0.000000 
0.351562 -9.697370 0.000000 
0.359375 -10.400102 0.000000 
0.312500 -8.342454 0.000000 
0.320312 -9.180880 0.000000 
0.320312 -8.630454 0.000000 
0.328125 -9.443307 0.000000 
0.328125 -8.910156 0.000000 
0.335938 -9.696756 0.000000 
0.335938 -9.181371 0.000000 
0.343750 -9.940925 0.000000 
0.500000 -12.271464 0.000000 
0.507812 -12.385231 0.000000 
0.507812 -12.368501 0.000000 
0.515625 -12.304923 0.000000 
0.515625 -12.361645 0.000000 
0.523438 -12.255058 0.000000 
0.523438 -12.340416 0.000000 
0.531250 -12.190928 0.000000 
0.546875 -12.190566 0.000000 
0.554688 -11.915140 0.000000 
0.554688 -12.112341 0.000000 
0.562500 -11.796163 0.000000 
0.531250 -12.304756 0.000000 
0.539062 -12.112760 0.000000 
0.539062 -12.254760 0.000000 
0.546875 -12.020756 0.000000 
0.609375 -11.191853 0.000000 
0.617188 -10.615132 0.000000 
0.617188 -11.010652 0.000000 
0.625000 -10.400812 0.000000 
0.593750 -11.518616 0.000000 
0.601562 -11.011370 0.000000 
0.601562 -11.361291 0.000000 
0.609375 -10.818773 0.000000 
0.562500 -12.020281 0.000000 
0.570312 -11.664106 0.000000 
0.570312 -11.914612 0.000000 
0.578125 -11.519269 0.000000 
0.578125 -11.795588 0.000000 
0.585938 -11.361973 0.000000 
0.585938 -11.663489 0.000000 
0.593750 -11.192557 0.000000 
0.734375 -7.109737 0.000000 
0.742188 -6.094607 0.000000 
0.742188 -6.781037 0.000000 
0.750000 -5.736876 0.000000 
0.718750 -7.742192 0.000000 
0.726562 -6.779961 0.000000 
0.726562 -7.430049 0.000000 
0.734375 -6.442016 0.000000 
0.687500 -8.909750 0.000000 
0.695312 -8.046289 0.000000 
0.695312 -8.630152 0.000000 
0.703125 -7.742026 0.000000 
0.703125 -8.342278 0.000000 
0.710938 -7.429647 0.000000 
0.710938 -8.046267 0.000000 
0.718750 -7.109039 0.000000 
0.625000 -10.818049 0.000000 
0.632812 -10.176177 0.000000 
0.632812 -10.614410 0.000000 
0.640625 -9.941582 0.000000 
0.640625 -10.400102 0.000000 
0.648438 -9.697370 0.000000 
0.648438 -10.175488 0.000000 
0.656250 -9.443866 0.000000 
0.671875 -9.443307 0.000000 
0.679688 -8.630454 0.000000 
0.679688 -9.180880 0.000000 
0.687500 -8.342454 0.000000 
0.656250 -9.940925 0.000000 
0.664062 -9.181371 0.000000 
0.664062 -9.696756 0.000000 
0.671875 -8.910156 0.000000 
0.984375 0.000000 0.000000 
0.992188 0.000000 0.000000 
0.992188 0.000000 0.000000 
1.000000 0.000000 0.000000 
0.968750 0.000000 0.000000 
0.976562 0.000000 0.000000 
0.976562 0.000000 0.000000 
0.984375 0.000000 0.000000 
0.937500 0.000000 0.000000 
0.945312 0.000000 0.000000 
0.945312 0.000000 0.000000 
0.953125 0.000000 0.000000 
0.953125 0.000000 0.000000 
0.960938 0.000000 0.000000 
0.960938 0.000000 0.000000 
0.968750 0.000000 0.000000 
0.875000 0.000000 0.000000 
0.882812 0.000000 0.000000 
0.882812 0.000000 0.000000 
0.890625 0.000000 0.000000 
0.890625 0.000000 0.000000 
0.898438 0.000000 0.000000 
0.898438 0.000000 0.000000 
0.906250 0.000000 0.000000 
0.921875 0.000000 0.000000 
0.929688 0.000000 0.000000 
0.929688 0.000000 0.000000 
0.937500 0.000000 0.000000 
0.906250 0.000000 0.000000 
0.914062 0.000000 0.000000 
0.914062 0.000000 0.000000 
0.921875 0.000000 0.000000 
0.750000 -6.443588 0.000000 
0.757812 -5.367614 0.000000 
0.757812 -6.096840 0.000000 
0.765625 -4.985134 0.000000 
0.765625 -5.740015 0.000000 
0.773438 -4.587079 0.000000 
0.773438 -5.372027 0.000000 
0.781250 -4.170119 0.000000 
0.796875 -4.184105 0.000000 
0.804688 -2.743867 0.000000 
0.804688 -3.754487 0.000000 
0.812500 -2.162864 0.000000 
0.781250 -4.991402 0.000000 
0.789062 -3.729462 0.000000 
0.789062 -4.596191 0.000000 
0.796875 -3.257943 0.000000 
0.859375 0.000000 0.000000 
0.867188 0.000000 0.000000 
0.867188 0.000000 0.000000 
0.875000 0.000000 0.000000 
0.843750 0.000000 0.000000 
0.851562 0.000000 0.000000 
0.851562 0.000000 0.000000 
0.859375 0.000000 0.000000 
0.812500 -3.327028 0.000000 
0.820312 -1.426160 0.000000 
0.820312 -3.561764 0.000000 
0.828125 0.944181 0.000000 
0.828125 -1.115602 0.000000 
0.835938 0.557801 0.000000 
0.835938 0.000000 0.000000 
0.843750 0.000000 0.000000 

CELLS 128 384
2  0 1 
2  2 3 
2  4 5 
2  6 7 
2  8 9 
2  10 11 
2  12 13 
2  14 15 
2  16 17 
2  18 19 
2  20 21 
2  22 23 
2  24 25 
2  26 27 
2  28 29 
2  30 31 
2  32 33 
2  34 35 
2  36 37 
2  38 39 
2  40 41 
2  42 43 
2  44 45 
2  46 47 
2  48 49 
2  50 51 
2  52 53 
2  54 55 
2  56 57 
2  58 59 
2  60 61 
2  62 63 
2  64 65 
2  66 67 
2  68 69 
2  70 71 
2  72 73 
2  74 75 
2  76 77 
2  78 79 
2  80 81 
2  82 83 
2  84 85 
2  86 87 
2  88 89 
2  90 91 
2  92 93 
2  94 95 
2  96 97 
2  98 99 
2  100 101 
2  102 103 
2  104 105 
2  106 107 
2  108 109 
2  110 111 
2  112 113 
2  114 115 
2  116 117 
2  118 119 
2  120 121 
2  122 123 
2  124 125 
2  126 127 
2  128 129 
2  130 131 
2  132 133 
2  134 135 
2  136 137 
2  138 139 
2  140 141 
2  142 143 
2  144 145 
2  146 147 
2  148 149 
2  150 151 
2  152 153 
2  154 155 
2  156 157 
2  158 159 
2  160 161 
2  162 163 
2  164 165 
2  166 167 
2  168 169 
2  170 171 
2  172 173 
2  174 175 
2  176 177 
2  178 179 
2  180 181 
2  182 183 
2  184 185 
2  186 187 
2  188 189 
2  190 191 
2  192 193 
2  194 195 
2  196 197 
2  198 199 
2  200 201 
2  202 203 
2  204 205 
2  206 207 
2  208 209 
2  210 211 
2  212 213 
2  214 215 
2  216 217 
2  218 219 
2  220 221 
2  222 223 
2  224 225 
2  226 227 
2  228 229 
2  230 231 
2  232 233 
2  234 235 
2  236 237 
2  238 239 
2  240 241 
2  242 243 
2  244 245 
2  246 247 
2  248 249 
2  250 251 
2  252 253 
2  254 255 

CELL_TYPES 128
3
3
3
3
3
3
3
3
3
3
3
3
3
3
3
3
3
3
3
3
3
3
3
3
3
3
3
3
3
3
3
3
3
3
3
3
3
3
3
3
3
3
3
3
3
3
3
3
3
3
3
3
3
3
3
3
3
3
3
3
3
3
3
3
3
3
3
3
3
3
3
3
3
3
3
3
3
3
3
3
3
3
3
3
3
3
3
3
3
3
3
3
3
3
3
3
3
3
3
3
3
3
3
3
3
3
3
3
3
3
3
3
3
3
3
3
3
3
3
3
3
3
3
3
3
3
3
3

POINT_DATA 256

SCALARS lambda_h float 1
LOOKUP_TABLE default
0.000000 
0.000000 
0.000000 
0.000000 
0.000000 
0.000000 
0.000000 
0.000000 
0.000000 
0.000000 
0.000000 
0.000000 
0.000000 
0.000000 
0.000000 
0.000000 
0.000000 
0.000000 
0.000000 
0.000000 
0.000000 
0.000000 
0.000000 
0.000000 
0.000000 
0.000000 
0.000000 
0.000000 
0.000000 
0.000000 
0.000000 
0.000000 
-4.985134 
-6.096840 
-5.367614 
-6.443588 
-4.170119 
-5.372027 
-4.587079 
-5.740015 
-2.162864 
-3.754487 
-2.743867 
-4.184105 
-3.257943 
-4.596191 
-3.729462 
-4.991402 
0.000000 
0.000000 
0.000000 
0.000000 
0.000000 
0.000000 
0.000000 
0.000000 
0.944181 
-3.561764 
-1.426160 
-3.327028 
0.000000 
0.000000 
0.557801 
-1.115602 
-12.304923 
-12.368501 
-12.385231 
-12.271464 
-12.190928 
-12.340416 
-12.255058 
-12.361645 
-11.796163 
-12.112341 
-11.915140 
-12.190566 
-12.020756 
-12.254760 
-12.112760 
-12.304756 
-10.400812 
-11.010652 
-10.615132 
-11.191853 
-10.818773 
-11.361291 
-11.011370 
-11.518616 
-11.519269 
-11.914612 
-11.664106 
-12.020281 
-11.192557 
-11.663489 
-11.361973 
-11.795588 
-5.736876 
-6.781037 
-6.094607 
-7.109737 
-6.442016 
-7.430049 
-6.779961 
-7.742192 
-7.742026 
-8.630152 
-8.046289 
-8.909750 
-7.109039 
-8.046267 
-7.429647 
-8.342278 
-9.941582 
-10.614410 
-10.176177 
-10.818049 
-9.443866 
-10.175488 
-9.697370 
-10.400102 
-8.342454 
-9.180880 
-8.630454 
-9.443307 
-8.910156 
-9.696756 
-9.181371 
-9.940925 
-12.271464 
-12.385231 
-12.368501 
-12.304923 
-12.361645 
-12.255058 
-12.340416 
-12.190928 
-12.190566 
-11.915140 
-12.112341 
-11.796163 
-12.304756 
-12.112760 
-12.254760 
-12.020756 
-11.191853 
-10.615132 
-11.010652 
-10.400812 
-11.518616 
-11.011370 
-11.361291 
-10.818773 
-12.020281 
-11.664106 
-11.914612 
-11.519269 
-11.795588 
-11.361973 
-11.663489 
-11.192557 
-7.109737 
-6.094607 
-6.781037 
-5.736876 
-7.742192 
-6.779961 
-7.430049 
-6.442016 
-8.909750 
-8.046289 
-8.630152 
-7.742026 
-8.342278 
-7.429647 
-8.046267 
-7.109039 
-10.818049 
-10.176177 
-10.614410 
-9.941582 
-10.400102 
-9.697370 
-10.175488 
-9.443866 
-9.443307 
-8.630454 
-9.180880 
-8.342454 
-9.940925 
-9.181371 
-9.696756 
-8.910156 
0.000000 
0.000000 
0.000000 
0.000000 
0.000000 
0.000000 
0.000000 
0.000000 
0.000000 
0.000000 
0.000000 
0.000000 
0.000000 
0.000000 
0.000000 
0.000000 
0.000000 
0.000000 
0.000000 
0.000000 
0.000000 
0.000000 
0.000000 
0.000000 
0.000000 
0.000000 
0.000000 
0.000000 
0.000000 
0.000000 
0.000000 
0.000000 
-6.443588 
-5.367614 
-6.096840 
-4.985134 
-5.740015 
-4.587079 
-5.372027 
-4.170119 
-4.184105 
-2.743867 
-3.754487 
-2.162864 
-4.991402 
-3.729462 
-4.596191 
-3.257943 
0.000000 
0.000000 
0.000000 
0.000000 
0.000000 
0.000000 
0.000000 
0.000000 
-3.327028 
-1.426160 
-3.561764 
0.944181 
-1.115602 
0.557801 
0.000000 
0.000000 

