# vtk DataFile Version 2.0
Unstructured Grid Example
ASCII
DATASET UNSTRUCTURED_GRID

POINTS 8 float
0.000000 5.874576 0.000000 
0.250000 -11.749152 0.000000 
0.250000 0.349468 0.000000 
0.500000 -18.322664 0.000000 
0.500000 -18.322664 0.000000 
0.750000 0.349468 0.000000 
0.750000 -11.749152 0.000000 
1.000000 5.874576 0.000000 

CELLS 4 12
2  0 1 
2  2 3 
2  4 5 
2  6 7 

CELL_TYPES 4
3
3
3
3

POINT_DATA 8

SCALARS lambda_h float 1
LOOKUP_TABLE default
5.874576 
-11.749152 
0.349468 
-18.322664 
-18.322664 
0.349468 
-11.749152 
5.874576 

