# vtk DataFile Version 2.0
Unstructured Grid Example
ASCII
DATASET UNSTRUCTURED_GRID

POINTS 16 float
0.000000 0.000000 0.000000 
0.125000 0.000000 0.000000 
0.125000 6.259609 0.000000 
0.250000 -12.519218 0.000000 
0.250000 -1.573379 0.000000 
0.375000 -15.632069 0.000000 
0.375000 -10.142288 0.000000 
0.500000 -12.552941 0.000000 
0.500000 -12.552941 0.000000 
0.625000 -10.142288 0.000000 
0.625000 -15.632069 0.000000 
0.750000 -1.573379 0.000000 
0.750000 -12.519218 0.000000 
0.875000 6.259609 0.000000 
0.875000 0.000000 0.000000 
1.000000 0.000000 0.000000 

CELLS 8 24
2  0 1 
2  2 3 
2  4 5 
2  6 7 
2  8 9 
2  10 11 
2  12 13 
2  14 15 

CELL_TYPES 8
3
3
3
3
3
3
3
3

POINT_DATA 16

SCALARS lambda_h float 1
LOOKUP_TABLE default
0.000000 
0.000000 
6.259609 
-12.519218 
-1.573379 
-15.632069 
-10.142288 
-12.552941 
-12.552941 
-10.142288 
-15.632069 
-1.573379 
-12.519218 
6.259609 
0.000000 
0.000000 

