# vtk DataFile Version 2.0
Unstructured Grid Example
ASCII
DATASET UNSTRUCTURED_GRID

POINTS 128 float
0.000000 0.000000 0.000000 
0.015625 0.000000 0.000000 
0.015625 0.000000 0.000000 
0.031250 0.000000 0.000000 
0.031250 0.000000 0.000000 
0.046875 0.000000 0.000000 
0.046875 0.000000 0.000000 
0.062500 0.000000 0.000000 
0.093750 0.000000 0.000000 
0.109375 0.000000 0.000000 
0.109375 0.000000 0.000000 
0.125000 0.000000 0.000000 
0.062500 0.000000 0.000000 
0.078125 0.000000 0.000000 
0.078125 0.000000 0.000000 
0.093750 0.000000 0.000000 
0.218750 -3.857465 0.000000 
0.234375 -6.159261 0.000000 
0.234375 -4.672595 0.000000 
0.250000 -6.830797 0.000000 
0.187500 -1.822224 0.000000 
0.203125 -4.771865 0.000000 
0.203125 -2.952572 0.000000 
0.218750 -5.460810 0.000000 
0.125000 0.000000 0.000000 
0.140625 0.000000 0.000000 
0.140625 0.000000 0.000000 
0.156250 0.000000 0.000000 
0.156250 0.375992 0.000000 
0.171875 -0.751983 0.000000 
0.171875 2.053454 0.000000 
0.187500 -5.234883 0.000000 
0.468750 -12.148626 0.000000 
0.484375 -12.395605 0.000000 
0.484375 -12.368619 0.000000 
0.500000 -12.202597 0.000000 
0.437500 -11.702605 0.000000 
0.453125 -12.286438 0.000000 
0.453125 -11.952701 0.000000 
0.468750 -12.370078 0.000000 
0.375000 -10.214842 0.000000 
0.390625 -11.395493 0.000000 
0.390625 -10.654101 0.000000 
0.406250 -11.697625 0.000000 
0.406250 -11.050481 0.000000 
0.421875 -11.948389 0.000000 
0.421875 -11.400957 0.000000 
0.437500 -12.145345 0.000000 
0.250000 -5.430790 0.000000 
0.265625 -7.472610 0.000000 
0.265625 -6.145719 0.000000 
0.281250 -8.084572 0.000000 
0.281250 -6.824433 0.000000 
0.296875 -8.665997 0.000000 
0.296875 -7.470508 0.000000 
0.312500 -9.215410 0.000000 
0.343750 -9.219492 0.000000 
0.359375 -10.648322 0.000000 
0.359375 -9.735698 0.000000 
0.375000 -11.044739 0.000000 
0.312500 -8.085313 0.000000 
0.328125 -9.730702 0.000000 
0.328125 -8.668710 0.000000 
0.343750 -10.209298 0.000000 
0.500000 -12.202597 0.000000 
0.515625 -12.368619 0.000000 
0.515625 -12.395605 0.000000 
0.531250 -12.148626 0.000000 
0.531250 -12.370078 0.000000 
0.546875 -11.952701 0.000000 
0.546875 -12.286438 0.000000 
0.562500 -11.702605 0.000000 
0.593750 -11.697625 0.000000 
0.609375 -10.654101 0.000000 
0.609375 -11.395493 0.000000 
0.625000 -10.214842 0.000000 
0.562500 -12.145345 0.000000 
0.578125 -11.400957 0.000000 
0.578125 -11.948389 0.000000 
0.593750 -11.050481 0.000000 
0.718750 -8.084572 0.000000 
0.734375 -6.145719 0.000000 
0.734375 -7.472610 0.000000 
0.750000 -5.430790 0.000000 
0.687500 -9.215410 0.000000 
0.703125 -7.470508 0.000000 
0.703125 -8.665997 0.000000 
0.718750 -6.824433 0.000000 
0.625000 -11.044739 0.000000 
0.640625 -9.735698 0.000000 
0.640625 -10.648322 0.000000 
0.656250 -9.219492 0.000000 
0.656250 -10.209298 0.000000 
0.671875 -8.668710 0.000000 
0.671875 -9.730702 0.000000 
0.687500 -8.085313 0.000000 
0.968750 0.000000 0.000000 
0.984375 0.000000 0.000000 
0.984375 0.000000 0.000000 
1.000000 0.000000 0.000000 
0.937500 0.000000 0.000000 
0.953125 0.000000 0.000000 
0.953125 0.000000 0.000000 
0.968750 0.000000 0.000000 
0.875000 0.000000 0.000000 
0.890625 0.000000 0.000000 
0.890625 0.000000 0.000000 
0.906250 0.000000 0.000000 
0.906250 0.000000 0.000000 
0.921875 0.000000 0.000000 
0.921875 0.000000 0.000000 
0.937500 0.000000 0.000000 
0.750000 -6.830797 0.000000 
0.765625 -4.672595 0.000000 
0.765625 -6.159261 0.000000 
0.781250 -3.857465 0.000000 
0.781250 -5.460810 0.000000 
0.796875 -2.952572 0.000000 
0.796875 -4.771865 0.000000 
0.812500 -1.822224 0.000000 
0.843750 0.000000 0.000000 
0.859375 0.000000 0.000000 
0.859375 0.000000 0.000000 
0.875000 0.000000 0.000000 
0.812500 -5.234883 0.000000 
0.828125 2.053454 0.000000 
0.828125 -0.751983 0.000000 
0.843750 0.375992 0.000000 

CELLS 64 192
2  0 1 
2  2 3 
2  4 5 
2  6 7 
2  8 9 
2  10 11 
2  12 13 
2  14 15 
2  16 17 
2  18 19 
2  20 21 
2  22 23 
2  24 25 
2  26 27 
2  28 29 
2  30 31 
2  32 33 
2  34 35 
2  36 37 
2  38 39 
2  40 41 
2  42 43 
2  44 45 
2  46 47 
2  48 49 
2  50 51 
2  52 53 
2  54 55 
2  56 57 
2  58 59 
2  60 61 
2  62 63 
2  64 65 
2  66 67 
2  68 69 
2  70 71 
2  72 73 
2  74 75 
2  76 77 
2  78 79 
2  80 81 
2  82 83 
2  84 85 
2  86 87 
2  88 89 
2  90 91 
2  92 93 
2  94 95 
2  96 97 
2  98 99 
2  100 101 
2  102 103 
2  104 105 
2  106 107 
2  108 109 
2  110 111 
2  112 113 
2  114 115 
2  116 117 
2  118 119 
2  120 121 
2  122 123 
2  124 125 
2  126 127 

CELL_TYPES 64
3
3
3
3
3
3
3
3
3
3
3
3
3
3
3
3
3
3
3
3
3
3
3
3
3
3
3
3
3
3
3
3
3
3
3
3
3
3
3
3
3
3
3
3
3
3
3
3
3
3
3
3
3
3
3
3
3
3
3
3
3
3
3
3

POINT_DATA 128

SCALARS lambda_h float 1
LOOKUP_TABLE default
0.000000 
0.000000 
0.000000 
0.000000 
0.000000 
0.000000 
0.000000 
0.000000 
0.000000 
0.000000 
0.000000 
0.000000 
0.000000 
0.000000 
0.000000 
0.000000 
-3.857465 
-6.159261 
-4.672595 
-6.830797 
-1.822224 
-4.771865 
-2.952572 
-5.460810 
0.000000 
0.000000 
0.000000 
0.000000 
0.375992 
-0.751983 
2.053454 
-5.234883 
-12.148626 
-12.395605 
-12.368619 
-12.202597 
-11.702605 
-12.286438 
-11.952701 
-12.370078 
-10.214842 
-11.395493 
-10.654101 
-11.697625 
-11.050481 
-11.948389 
-11.400957 
-12.145345 
-5.430790 
-7.472610 
-6.145719 
-8.084572 
-6.824433 
-8.665997 
-7.470508 
-9.215410 
-9.219492 
-10.648322 
-9.735698 
-11.044739 
-8.085313 
-9.730702 
-8.668710 
-10.209298 
-12.202597 
-12.368619 
-12.395605 
-12.148626 
-12.370078 
-11.952701 
-12.286438 
-11.702605 
-11.697625 
-10.654101 
-11.395493 
-10.214842 
-12.145345 
-11.400957 
-11.948389 
-11.050481 
-8.084572 
-6.145719 
-7.472610 
-5.430790 
-9.215410 
-7.470508 
-8.665997 
-6.824433 
-11.044739 
-9.735698 
-10.648322 
-9.219492 
-10.209298 
-8.668710 
-9.730702 
-8.085313 
0.000000 
0.000000 
0.000000 
0.000000 
0.000000 
0.000000 
0.000000 
0.000000 
0.000000 
0.000000 
0.000000 
0.000000 
0.000000 
0.000000 
0.000000 
0.000000 
-6.830797 
-4.672595 
-6.159261 
-3.857465 
-5.460810 
-2.952572 
-4.771865 
-1.822224 
0.000000 
0.000000 
0.000000 
0.000000 
-5.234883 
2.053454 
-0.751983 
0.375992 

