# vtk DataFile Version 2.0
Unstructured Grid Example
ASCII
DATASET UNSTRUCTURED_GRID

POINTS 16641 float
-0.013676 -0.253870 0.000000 
1.013676 -0.253870 0.000000 
1.000000 1.000000 0.000000 
0.000000 1.000000 0.000000 
0.500000 -0.099986 0.000000 
0.976069 0.314603 0.000000 
0.500000 1.000000 0.000000 
0.023931 0.314603 0.000000 
0.500000 0.312532 0.000000 
0.229610 -0.172686 0.000000 
0.500000 0.064197 0.000000 
0.229725 0.039179 0.000000 
0.770390 -0.172686 0.000000 
0.770275 0.039179 0.000000 
1.016587 0.022578 0.000000 
0.743145 0.305272 0.000000 
0.945694 0.628788 0.000000 
0.728162 0.630099 0.000000 
0.750000 1.000000 0.000000 
0.500000 0.632330 0.000000 
0.250000 1.000000 0.000000 
0.271838 0.630099 0.000000 
0.054306 0.628788 0.000000 
0.256855 0.305272 0.000000 
-0.016587 0.022578 0.000000 
0.113555 -0.234073 0.000000 
0.222345 -0.072251 0.000000 
0.096648 -0.106731 0.000000 
0.500000 -0.029042 0.000000 
0.358033 -0.040949 0.000000 
0.356782 -0.120167 0.000000 
0.369952 0.174311 0.000000 
0.362727 0.057018 0.000000 
0.500000 0.178438 0.000000 
0.643218 -0.120167 0.000000 
0.641967 -0.040949 0.000000 
0.903352 -0.106731 0.000000 
0.777655 -0.072251 0.000000 
0.886445 -0.234073 0.000000 
0.637273 0.057018 0.000000 
0.630048 0.174311 0.000000 
1.023808 -0.120056 0.000000 
0.896359 0.022219 0.000000 
0.860539 0.303539 0.000000 
0.879446 0.158130 0.000000 
0.997826 0.166931 0.000000 
0.757080 0.164763 0.000000 
0.622672 0.310257 0.000000 
0.956952 0.467932 0.000000 
0.844900 0.459796 0.000000 
0.845715 0.809923 0.000000 
0.837543 0.628219 0.000000 
0.950364 0.799501 0.000000 
0.732294 0.460627 0.000000 
0.617137 0.463448 0.000000 
0.875000 1.000000 0.000000 
0.734183 0.811472 0.000000 
0.500000 0.811879 0.000000 
0.618054 0.811776 0.000000 
0.625000 1.000000 0.000000 
0.615209 0.631693 0.000000 
0.500000 0.464757 0.000000 
0.375000 1.000000 0.000000 
0.381946 0.811776 0.000000 
0.154285 0.809923 0.000000 
0.265817 0.811472 0.000000 
0.125000 1.000000 0.000000 
0.384791 0.631693 0.000000 
0.382863 0.463448 0.000000 
0.049636 0.799501 0.000000 
0.162457 0.628219 0.000000 
0.139461 0.303539 0.000000 
0.155100 0.459796 0.000000 
0.043048 0.467932 0.000000 
0.267706 0.460627 0.000000 
0.377328 0.310257 0.000000 
0.002174 0.166931 0.000000 
0.120554 0.158130 0.000000 
0.103641 0.022219 0.000000 
-0.023808 -0.120056 0.000000 
0.242920 0.164763 0.000000 
0.049306 -0.246560 0.000000 
0.100721 -0.170423 0.000000 
0.040584 -0.182608 0.000000 
0.223383 -0.123296 0.000000 
0.160698 -0.148725 0.000000 
0.173533 -0.206378 0.000000 
0.160511 -0.031720 0.000000 
0.158214 -0.090902 0.000000 
0.224897 -0.018212 0.000000 
0.500000 -0.067493 0.000000 
0.427911 -0.071419 0.000000 
0.427205 -0.105180 0.000000 
0.429618 0.012521 0.000000 
0.428573 -0.032090 0.000000 
0.500000 0.014905 0.000000 
0.290595 -0.143360 0.000000 
0.357199 -0.082810 0.000000 
0.288886 -0.100602 0.000000 
0.436700 0.242306 0.000000 
0.434771 0.177363 0.000000 
0.500000 0.243112 0.000000 
0.295459 0.048898 0.000000 
0.366182 0.113271 0.000000 
0.300432 0.107193 0.000000 
0.500000 0.118746 0.000000 
0.432851 0.117326 0.000000 
0.431083 0.062345 0.000000 
0.289109 -0.054799 0.000000 
0.359909 0.005615 0.000000 
0.291489 -0.005071 0.000000 
0.572795 -0.105180 0.000000 
0.572089 -0.071419 0.000000 
0.711114 -0.100602 0.000000 
0.642801 -0.082810 0.000000 
0.709405 -0.143360 0.000000 
0.571427 -0.032090 0.000000 
0.570382 0.012521 0.000000 
0.959416 -0.182608 0.000000 
0.899279 -0.170423 0.000000 
0.950694 -0.246560 0.000000 
0.775103 -0.018212 0.000000 
0.841786 -0.090902 0.000000 
0.839489 -0.031720 0.000000 
0.826467 -0.206378 0.000000 
0.839302 -0.148725 0.000000 
0.776617 -0.123296 0.000000 
0.565229 0.177363 0.000000 
0.563300 0.242306 0.000000 
0.568917 0.062345 0.000000 
0.567149 0.117326 0.000000 
0.699568 0.107193 0.000000 
0.633818 0.113271 0.000000 
0.704541 0.048898 0.000000 
0.710891 -0.054799 0.000000 
0.708511 -0.005071 0.000000 
0.640091 0.005615 0.000000 
1.020304 -0.189066 0.000000 
0.963758 -0.116434 0.000000 
0.957057 0.019202 0.000000 
0.962551 -0.049141 0.000000 
1.022304 -0.049046 0.000000 
0.901753 -0.042848 0.000000 
0.834203 0.029584 0.000000 
0.918381 0.306756 0.000000 
0.928621 0.232303 0.000000 
0.986925 0.240180 0.000000 
0.810384 0.230328 0.000000 
0.869879 0.229555 0.000000 
0.802202 0.303479 0.000000 
1.008027 0.094508 0.000000 
0.939000 0.159710 0.000000 
0.948792 0.088751 0.000000 
0.626248 0.240024 0.000000 
0.561491 0.311963 0.000000 
0.764042 0.100128 0.000000 
0.694092 0.169815 0.000000 
0.683283 0.307820 0.000000 
0.688539 0.236719 0.000000 
0.749951 0.233143 0.000000 
0.888557 0.089093 0.000000 
0.818861 0.160373 0.000000 
0.827037 0.093515 0.000000 
0.965872 0.390421 0.000000 
0.908904 0.383289 0.000000 
0.894662 0.543497 0.000000 
0.900778 0.462122 0.000000 
0.949958 0.547319 0.000000 
0.852023 0.380234 0.000000 
0.794851 0.379895 0.000000 
0.913566 0.902585 0.000000 
0.898555 0.806666 0.000000 
0.964173 0.891048 0.000000 
0.783288 0.629138 0.000000 
0.839103 0.717420 0.000000 
0.785080 0.718740 0.000000 
0.945265 0.712644 0.000000 
0.892089 0.715224 0.000000 
0.891380 0.627719 0.000000 
0.619558 0.384812 0.000000 
0.559919 0.386094 0.000000 
0.737112 0.381121 0.000000 
0.678673 0.382992 0.000000 
0.672749 0.544834 0.000000 
0.675049 0.462071 0.000000 
0.729151 0.543683 0.000000 
0.839812 0.542396 0.000000 
0.784784 0.542716 0.000000 
0.788856 0.459630 0.000000 
0.937500 1.000000 0.000000 
0.858223 0.904817 0.000000 
0.741202 0.905177 0.000000 
0.800311 0.905181 0.000000 
0.812500 1.000000 0.000000 
0.790760 0.811063 0.000000 
0.729761 0.719541 0.000000 
0.500000 0.905040 0.000000 
0.560645 0.905045 0.000000 
0.562500 1.000000 0.000000 
0.558150 0.720746 0.000000 
0.559142 0.811851 0.000000 
0.500000 0.720837 0.000000 
0.687500 1.000000 0.000000 
0.621159 0.905070 0.000000 
0.681401 0.905116 0.000000 
0.558707 0.464411 0.000000 
0.500000 0.386550 0.000000 
0.672090 0.630978 0.000000 
0.615624 0.545865 0.000000 
0.500000 0.546820 0.000000 
0.557956 0.546568 0.000000 
0.557753 0.632163 0.000000 
0.676494 0.811660 0.000000 
0.616017 0.720493 0.000000 
0.673316 0.720093 0.000000 
0.437500 1.000000 0.000000 
0.439355 0.905045 0.000000 
0.318599 0.905116 0.000000 
0.378841 0.905070 0.000000 
0.312500 1.000000 0.000000 
0.440858 0.811851 0.000000 
0.441850 0.720746 0.000000 
0.086434 0.902585 0.000000 
0.141777 0.904817 0.000000 
0.062500 1.000000 0.000000 
0.270239 0.719541 0.000000 
0.209240 0.811063 0.000000 
0.214920 0.718740 0.000000 
0.187500 1.000000 0.000000 
0.199689 0.905181 0.000000 
0.258798 0.905177 0.000000 
0.441293 0.464411 0.000000 
0.440081 0.386094 0.000000 
0.442247 0.632163 0.000000 
0.442044 0.546568 0.000000 
0.327251 0.544834 0.000000 
0.384376 0.545865 0.000000 
0.327910 0.630978 0.000000 
0.323506 0.811660 0.000000 
0.326684 0.720093 0.000000 
0.383983 0.720493 0.000000 
0.035827 0.891048 0.000000 
0.101445 0.806666 0.000000 
0.108620 0.627719 0.000000 
0.107911 0.715224 0.000000 
0.054735 0.712644 0.000000 
0.160897 0.717420 0.000000 
0.216712 0.629138 0.000000 
0.081619 0.306756 0.000000 
0.091096 0.383289 0.000000 
0.034128 0.390421 0.000000 
0.205149 0.379895 0.000000 
0.147977 0.380234 0.000000 
0.197798 0.303479 0.000000 
0.050042 0.547319 0.000000 
0.099222 0.462122 0.000000 
0.105338 0.543497 0.000000 
0.380442 0.384812 0.000000 
0.438509 0.311963 0.000000 
0.270849 0.543683 0.000000 
0.324951 0.462071 0.000000 
0.316717 0.307820 0.000000 
0.321327 0.382992 0.000000 
0.262888 0.381121 0.000000 
0.160188 0.542396 0.000000 
0.211144 0.459630 0.000000 
0.215216 0.542716 0.000000 
0.013075 0.240180 0.000000 
0.071379 0.232303 0.000000 
0.051208 0.088751 0.000000 
0.061000 0.159710 0.000000 
-0.008027 0.094508 0.000000 
0.130121 0.229555 0.000000 
0.189616 0.230328 0.000000 
0.036242 -0.116434 0.000000 
-0.020304 -0.189066 0.000000 
0.165797 0.029584 0.000000 
0.098247 -0.042848 0.000000 
-0.022304 -0.049046 0.000000 
0.037449 -0.049141 0.000000 
0.042943 0.019202 0.000000 
0.373752 0.240024 0.000000 
0.250049 0.233143 0.000000 
0.311461 0.236719 0.000000 
0.305908 0.169815 0.000000 
0.235958 0.100128 0.000000 
0.111443 0.089093 0.000000 
0.172963 0.093515 0.000000 
0.181139 0.160373 0.000000 
0.017607 -0.250434 0.000000 
0.044699 -0.215007 0.000000 
0.013779 -0.218775 0.000000 
0.105825 -0.202441 0.000000 
0.075474 -0.209862 0.000000 
0.081393 -0.241399 0.000000 
0.067793 -0.145044 0.000000 
0.070801 -0.177577 0.000000 
0.097821 -0.138530 0.000000 
0.225819 -0.148012 0.000000 
0.195130 -0.162390 0.000000 
0.201058 -0.189045 0.000000 
0.190115 -0.109023 0.000000 
0.191671 -0.135891 0.000000 
0.222306 -0.098110 0.000000 
0.145060 -0.223277 0.000000 
0.165017 -0.177433 0.000000 
0.135504 -0.191713 0.000000 
0.194715 0.004209 0.000000 
0.192417 -0.025083 0.000000 
0.227087 0.010049 0.000000 
0.127175 -0.099450 0.000000 
0.158904 -0.061535 0.000000 
0.127643 -0.068742 0.000000 
0.223269 -0.045634 0.000000 
0.190767 -0.053683 0.000000 
0.189926 -0.081643 0.000000 
0.130511 -0.160694 0.000000 
0.158683 -0.119926 0.000000 
0.127998 -0.130033 0.000000 
0.500000 -0.084537 0.000000 
0.463688 -0.085668 0.000000 
0.463450 -0.101294 0.000000 
0.464033 -0.049840 0.000000 
0.463865 -0.068481 0.000000 
0.500000 -0.048972 0.000000 
0.391563 -0.111530 0.000000 
0.427612 -0.089033 0.000000 
0.391994 -0.094540 0.000000 
0.465113 0.038358 0.000000 
0.464766 0.014305 0.000000 
0.500000 0.038888 0.000000 
0.393142 -0.035832 0.000000 
0.429040 -0.010439 0.000000 
0.393799 -0.013747 0.000000 
0.500000 -0.007742 0.000000 
0.464471 -0.008421 0.000000 
0.464229 -0.029809 0.000000 
0.259434 -0.157387 0.000000 
0.289594 -0.122281 0.000000 
0.257261 -0.134572 0.000000 
0.357026 -0.102045 0.000000 
0.322861 -0.111363 0.000000 
0.323075 -0.130864 0.000000 
0.322825 -0.069671 0.000000 
0.322701 -0.090992 0.000000 
0.357499 -0.062454 0.000000 
0.428209 -0.052424 0.000000 
0.392658 -0.056661 0.000000 
[...]
POINT_DATA 16641

SCALARS u_h float 2
LOOKUP_TABLE default
-0.013676 -0.253870 
0.013676 -0.253870 
0.000000 0.000000 
0.000000 0.000000 
0.000000 -0.099986 
-0.023931 -0.185397 
0.000000 0.000000 
0.023931 -0.185397 
0.000000 -0.187468 
-0.020390 -0.172686 
0.000000 -0.185803 
-0.020275 -0.210821 
0.020390 -0.172686 
0.020275 -0.210821 
0.016587 -0.227422 
-0.006855 -0.194728 
-0.054306 -0.121212 
-0.021838 -0.119901 
0.000000 0.000000 
0.000000 -0.117670 
0.000000 0.000000 
0.021838 -0.119901 
0.054306 -0.121212 
0.006855 -0.194728 
-0.016587 -0.227422 
-0.011445 -0.234073 
-0.027655 -0.197251 
-0.028352 -0.231731 
0.000000 -0.154042 
-0.016967 -0.165949 
-0.018218 -0.120167 
-0.005048 -0.200689 
-0.012273 -0.192982 
0.000000 -0.196562 
0.018218 -0.120167 
0.016967 -0.165949 
0.028352 -0.231731 
0.027655 -0.197251 
0.011445 -0.234073 
0.012273 -0.192982 
0.005048 -0.200689 
0.023808 -0.245056 
0.021359 -0.227781 
-0.014461 -0.196461 
0.004446 -0.216870 
-0.002174 -0.208069 
0.007080 -0.210237 
-0.002328 -0.189743 
-0.043048 -0.157068 
-0.030100 -0.165204 
-0.029285 -0.065077 
-0.037457 -0.121781 
-0.049636 -0.075499 
-0.017706 -0.164373 
-0.007863 -0.161552 
0.000000 0.000000 
-0.015817 -0.063528 
0.000000 -0.063121 
-0.006946 -0.063224 
0.000000 0.000000 
-0.009791 -0.118307 
0.000000 -0.160243 
0.000000 0.000000 
0.006946 -0.063224 
0.029285 -0.065077 
0.015817 -0.063528 
0.000000 0.000000 
0.009791 -0.118307 
0.007863 -0.161552 
0.049636 -0.075499 
0.037457 -0.121781 
0.014461 -0.196461 
0.030100 -0.165204 
0.043048 -0.157068 
0.017706 -0.164373 
0.002328 -0.189743 
0.002174 -0.208069 
-0.004446 -0.216870 
-0.021359 -0.227781 
-0.023808 -0.245056 
-0.007080 -0.210237 
-0.013194 -0.246560 
-0.024279 -0.232923 
-0.021916 -0.245108 
-0.026617 -0.185796 
-0.026802 -0.211225 
-0.013967 -0.206378 
-0.026989 -0.219220 
-0.029286 -0.215902 
-0.025103 -0.205712 
0.000000 -0.129993 
-0.009589 -0.133919 
-0.010295 -0.105180 
-0.007882 -0.174979 
-0.008927 -0.157090 
0.000000 -0.172595 
-0.021905 -0.143360 
-0.017801 -0.145310 
-0.023614 -0.163102 
-0.000800 -0.195194 
-0.002729 -0.197637 
0.000000 -0.194388 
-0.017041 -0.201102 
-0.008818 -0.199229 
-0.012068 -0.205307 
0.000000 -0.193754 
-0.004649 -0.195174 
-0.006417 -0.187655 
-0.023391 -0.179799 
-0.015091 -0.181885 
-0.021011 -0.192571 
0.010295 -0.105180 
0.009589 -0.133919 
0.023614 -0.163102 
0.017801 -0.145310 
0.021905 -0.143360 
0.008927 -0.157090 
0.007882 -0.174979 
0.021916 -0.245108 
0.024279 -0.232923 
0.013194 -0.246560 
0.025103 -0.205712 
0.029286 -0.215902 
0.026989 -0.219220 
0.013967 -0.206378 
0.026802 -0.211225 
0.026617 -0.185796 
0.002729 -0.197637 
0.000800 -0.195194 
0.006417 -0.187655 
0.004649 -0.195174 
0.012068 -0.205307 
0.008818 -0.199229 
0.017041 -0.201102 
0.023391 -0.179799 
0.021011 -0.192571 
0.015091 -0.181885 
0.020304 -0.251566 
0.026258 -0.241434 
0.019557 -0.230798 
0.025051 -0.236641 
0.022304 -0.236546 
0.026753 -0.230348 
0.021703 -0.220416 
-0.019119 -0.193244 
-0.008879 -0.205197 
-0.013075 -0.197320 
-0.002116 -0.207172 
-0.005121 -0.207945 
-0.010298 -0.196521 
0.008027 -0.217992 
0.001500 -0.215290 
0.011292 -0.223749 
0.001248 -0.197476 
-0.001009 -0.188037 
0.014042 -0.212372 
0.006592 -0.205185 
-0.004217 -0.192180 
0.001039 -0.200781 
-0.000049 -0.204357 
0.013557 -0.223407 
0.006361 -0.214627 
0.014537 -0.218985 
-0.034128 -0.172079 
-0.028596 -0.179211 
-0.042838 -0.144003 
-0.036722 -0.162878 
-0.050042 -0.140181 
-0.022977 -0.182266 
-0.017649 -0.182605 
-0.023934 -0.034915 
-0.038945 -0.068334 
-0.035827 -0.046452 
-0.029212 -0.120862 
-0.035897 -0.095080 
-0.027420 -0.093760 
-0.054735 -0.099856 
-0.045411 -0.097276 
-0.046120 -0.122281 
-0.005442 -0.177688 
-0.002581 -0.176406 
-0.012888 -0.181379 
-0.008827 -0.179508 
-0.014751 -0.142666 
-0.012451 -0.162929 
-0.020849 -0.143817 
-0.035188 -0.145104 
-0.027716 -0.144784 
-0.023644 -0.165370 
0.000000 0.000000 
-0.016777 -0.032683 
-0.008798 -0.032323 
-0.012189 -0.032319 
0.000000 0.000000 
-0.021740 -0.063937 
-0.020239 -0.092959 
0.000000 -0.032460 
-0.001855 -0.032455 
0.000000 0.000000 
-0.004350 -0.091754 
-0.003358 -0.063149 
0.000000 -0.091663 
0.000000 0.000000 
-0.003841 -0.032430 
-0.006099 -0.032384 
-0.003793 -0.160589 
0.000000 -0.175950 
-0.015410 -0.119022 
-0.009376 -0.141635 
0.000000 -0.140680 
-0.004544 -0.140932 
-0.004747 -0.117837 
-0.011006 -0.063340 
-0.008983 -0.092007 
-0.014184 -0.092407 
0.000000 0.000000 
0.001855 -0.032455 
0.006099 -0.032384 
0.003841 -0.032430 
0.000000 0.000000 
0.003358 -0.063149 
0.004350 -0.091754 
0.023934 -0.034915 
0.016777 -0.032683 
0.000000 0.000000 
0.020239 -0.092959 
0.021740 -0.063937 
0.027420 -0.093760 
0.000000 0.000000 
0.012189 -0.032319 
0.008798 -0.032323 
0.003793 -0.160589 
0.002581 -0.176406 
0.004747 -0.117837 
0.004544 -0.140932 
0.014751 -0.142666 
0.009376 -0.141635 
0.015410 -0.119022 
0.011006 -0.063340 
0.014184 -0.092407 
0.008983 -0.092007 
0.035827 -0.046452 
0.038945 -0.068334 
0.046120 -0.122281 
0.045411 -0.097276 
0.054735 -0.099856 
0.035897 -0.095080 
0.029212 -0.120862 
0.019119 -0.193244 
0.028596 -0.179211 
0.034128 -0.172079 
0.017649 -0.182605 
0.022977 -0.182266 
0.010298 -0.196521 
0.050042 -0.140181 
0.036722 -0.162878 
0.042838 -0.144003 
0.005442 -0.177688 
0.001009 -0.188037 
0.020849 -0.143817 
0.012451 -0.162929 
0.004217 -0.192180 
0.008827 -0.179508 
0.012888 -0.181379 
0.035188 -0.145104 
0.023644 -0.165370 
0.027716 -0.144784 
0.013075 -0.197320 
0.008879 -0.205197 
-0.011292 -0.223749 
-0.001500 -0.215290 
-0.008027 -0.217992 
0.005121 -0.207945 
0.002116 -0.207172 
-0.026258 -0.241434 
-0.020304 -0.251566 
-0.021703 -0.220416 
-0.026753 -0.230348 
-0.022304 -0.236546 
-0.025051 -0.236641 
-0.019557 -0.230798 
-0.001248 -0.197476 
0.000049 -0.204357 
-0.001039 -0.200781 
-0.006592 -0.205185 
-0.014042 -0.212372 
-0.013557 -0.223407 
-0.014537 -0.218985 
-0.006361 -0.214627 
-0.013643 -0.250434 
-0.017801 -0.246257 
-0.017471 -0.250025 
-0.019175 -0.233691 
-0.018276 -0.241112 
-0.012357 -0.241399 
-0.025957 -0.238794 
-0.022949 -0.240077 
-0.027179 -0.232280 
-0.024181 -0.179262 
-0.023620 -0.193640 
-0.017692 -0.189045 
-0.028635 -0.202773 
-0.027079 -0.198391 
-0.027694 -0.191860 
-0.011190 -0.223277 
-0.022483 -0.208683 
-0.020746 -0.222963 
-0.024035 -0.214541 
-0.026333 -0.212583 
-0.022913 -0.208701 
-0.029075 -0.224450 
-0.028596 -0.217785 
-0.028607 -0.224992 
-0.026731 -0.201884 
-0.027983 -0.209933 
-0.028824 -0.206643 
-0.025739 -0.223194 
-0.028817 -0.213676 
-0.028252 -0.223783 
0.000000 -0.115787 
-0.005062 -0.116918 
-0.005300 -0.101294 
-0.004717 -0.143590 
-0.004885 -0.130981 
0.000000 -0.142722 
-0.014687 -0.111530 
-0.009888 -0.120283 
-0.014256 -0.125790 
-0.003637 -0.180392 
-0.003984 -0.173195 
0.000000 -0.179862 
-0.013108 -0.160832 
-0.008460 -0.166689 
-0.012451 -0.169997 
0.000000 -0.163992 
-0.004279 -0.164671 
-0.004521 -0.154809 
-0.021816 -0.157387 
-0.022906 -0.153531 
-0.023989 -0.165822 
-0.017974 -0.133295 
-0.020889 -0.142613 
-0.020675 -0.130864 
-0.020925 -0.163421 
-0.021049 -0.153492 
-0.017501 -0.156204 
-0.009291 -0.146174 
-0.013592 -0.150411 
-0.013943 -0.138734 
0.000041 -0.191671 
-0.000423 -0.194591 
0.000000 -0.191500 
-0.003964 -0.198941 
-0.001757 -0.197018 
-0.002516 -0.198147 
0.000000 -0.196085 
-0.000903 -0.196321 
-0.001391 -0.196833 
-0.018872 -0.205857 
-0.014646 -0.203747 
-0.016162 -0.207829 
-0.010604 -0.196709 
-0.012778 -0.199989 
-0.014823 -0.196755 
-0.008287 -0.203005 
-0.010583 -0.202070 
-0.006954 -0.200551 
0.000000 -0.190430 
-0.002814 -0.190839 
-0.003244 -0.186270 
-0.001877 -0.196104 
-0.002355 -0.194112 
0.000000 -0.195792 
-0.009449 -0.189915 
-0.005561 -0.192054 
-0.008179 -0.194032 
-0.005408 -0.198531 
-0.006822 -0.196900 
-0.003698 -0.197029 
-0.025467 -0.173942 
-0.020419 -0.172322 
-0.023795 -0.171903 
-0.026064 -0.181461 
-0.025824 -0.188191 
-0.007197 -0.181966 
-0.013782 -0.188041 
-0.010603 -0.184540 
-0.011611 -0.177901 
-0.016162 -0.174517 
-0.021285 -0.202892 
-0.024865 -0.194036 
-0.023315 -0.198946 
-0.019186 -0.197375 
-0.016665 -0.192365 
-0.019516 -0.180135 
-0.018248 -0.186823 
-0.022439 -0.186704 
0.005300 -0.101294 
0.005062 -0.116918 
0.014256 -0.125790 
0.009888 -0.120283 
0.014687 -0.111530 
0.004885 -0.130981 
0.004717 -0.143590 
0.023989 -0.165822 
0.022906 -0.153531 
0.021816 -0.157387 
0.017501 -0.156204 
0.021049 -0.153492 
0.020925 -0.163421 
0.020675 -0.130864 
0.020889 -0.142613 
0.017974 -0.133295 
0.003984 -0.173195 
0.003637 -0.180392 
0.004521 -0.154809 
0.004279 -0.164671 
0.012451 -0.169997 
0.008460 -0.166689 
0.013108 -0.160832 
0.013943 -0.138734 
0.013592 -0.150411 
0.009291 -0.146174 
0.017471 -0.250025 
0.017801 -0.246257 
0.013643 -0.250434 
0.027179 -0.232280 
0.022949 -0.240077 
0.025957 -0.238794 
0.012357 -0.241399 
0.018276 -0.241112 
0.019175 -0.233691 
0.022913 -0.208701 
0.026333 -0.212583 
0.024035 -0.214541 
0.028824 -0.206643 
0.027983 -0.209933 
0.026731 -0.201884 
0.028607 -0.224992 
0.028596 -0.217785 
0.029075 -0.224450 
0.017692 -0.189045 
0.023620 -0.193640 
0.024181 -0.179262 
0.020746 -0.222963 
0.022483 -0.208683 
0.011190 -0.223277 
0.027694 -0.191860 
0.027079 -0.198391 
0.028635 -0.202773 
0.028252 -0.223783 
0.028817 -0.213676 
0.025739 -0.223194 
0.000423 -0.194591 
-0.000041 -0.191671 
0.001391 -0.196833 
0.000903 -0.196321 
0.002516 -0.198147 
0.001757 -0.197018 
0.003964 -0.198941 
0.003244 -0.186270 
0.002814 -0.190839 
0.008179 -0.194032 
0.005561 -0.192054 
0.009449 -0.189915 
0.002355 -0.194112 
0.001877 -0.196104 
0.016162 -0.207829 
0.014646 -0.203747 
0.018872 -0.205857 
0.006954 -0.200551 
0.010583 -0.202070 
0.008287 -0.203005 
0.014823 -0.196755 
0.012778 -0.199989 
0.010604 -0.196709 
0.003698 -0.197029 
0.006822 -0.196900 
0.005408 -0.198531 
0.025467 -0.173942 
0.025824 -0.188191 
0.026064 -0.181461 
0.023795 -0.171903 
0.020419 -0.172322 
0.021285 -0.202892 
0.016665 -0.192365 
0.019186 -0.197375 
0.023315 -0.198946 
0.024865 -0.194036 
0.007197 -0.181966 
0.016162 -0.174517 
0.011611 -0.177901 
0.010603 -0.184540 
0.013782 -0.188041 
0.022439 -0.186704 
0.018248 -0.186823 
0.019516 -0.180135 
0.017102 -0.253319 
0.021101 -0.248683 
0.025119 -0.243923 
0.023768 -0.246584 
0.022660 -0.248703 
0.024811 -0.243439 
0.027352 -0.237412 
0.018209 -0.230047 
0.021459 -0.233869 
0.019886 -0.232024 
0.023743 -0.232249 
0.022740 -0.233859 
0.020617 -0.229959 
0.023663 -0.240932 
0.023820 -0.237481 
0.025100 -0.240853 
0.024643 -0.220120 
0.021221 -0.215761 
0.028127 -0.231134 
0.027104 -0.225257 
0.021737 -0.224513 
0.024759 -0.225127 
0.024436 -0.229260 
0.026288 -0.239163 
0.026039 -0.234211 
0.027311 -0.235908 
-0.021532 -0.189998 
-0.016290 -0.196203 
-0.018550 -0.191529 
-0.011897 -0.201511 
-0.014056 -0.199466 
-0.016747 -0.195336 
-0.007587 -0.202820 
-0.010947 -0.202002 
-0.005579 -0.207424 
-0.004789 -0.201296 
-0.006278 -0.202251 
-0.008478 -0.195782 
-0.000326 -0.212717 
-0.003509 -0.207902 
0.001023 -0.212363 
-0.012300 -0.196800 
-0.007974 -0.202720 
-0.009857 -0.202533 
0.012581 -0.222750 
0.009764 -0.221768 
0.014256 -0.226018 
-0.000271 -0.212503 
0.004880 -0.217273 
0.003067 -0.213111 
0.007944 -0.220678 
0.006522 -0.219710 
0.003086 -0.216669 
-0.006922 -0.207110 
-0.001900 -0.212154 
-0.003666 -0.210462 
-0.000127 -0.192191 
-0.000485 -0.187588 
0.003135 -0.199658 
0.001088 -0.196172 
-0.001612 -0.188769 
-0.000295 -0.193037 
-0.000583 -0.194163 
0.017289 -0.212051 
0.013232 -0.208797 
0.006981 -0.207710 
0.010150 -0.208759 
0.010615 -0.211770 
0.009365 -0.205785 
0.005937 -0.202804 
-0.005436 -0.193489 
-0.002476 -0.198536 
-0.003521 -0.200010 
-0.001025 -0.195509 
-0.001649 -0.196998 
-0.003187 -0.190903 
0.003504 -0.207766 
0.000614 -0.202593 
0.003784 -0.205654 
0.003575 -0.201478 
0.003801 -0.203514 
0.001241 -0.199040 
0.015685 -0.227436 
0.009107 -0.220425 
0.012569 -0.224210 
0.016839 -0.227292 
0.017684 -0.225847 
-0.000959 -0.205935 
0.006874 -0.212602 
0.002951 -0.209702 
0.002121 -0.211294 
0.005546 -0.216118 
0.018003 -0.216203 
0.018182 -0.223350 
0.018297 -0.220051 
0.014480 -0.215838 
0.010743 -0.214643 
0.009977 -0.219184 
0.010528 -0.217184 
0.014223 -0.221586 
-0.029154 -0.178940 
-0.026593 -0.183355 
-0.035877 -0.168637 
-0.031398 -0.176245 
-0.038785 -0.164796 
-0.023990 -0.186501 
-0.021395 -0.188560 
-0.048846 -0.132636 
-0.046537 -0.142538 
-0.052575 -0.130972 
-0.033418 -0.164386 
-0.040077 -0.153775 
-0.036523 -0.154959 
-0.046831 -0.148871 
-0.043535 -0.151814 
-0.039951 -0.160503 
-0.014109 -0.189974 
-0.011963 -0.189392 
-0.018857 -0.189712 
-0.016416 -0.190131 
-0.023750 -0.174488 
-0.020256 -0.182698 
-0.026750 -0.174104 
-0.032866 -0.171346 
-0.029806 -0.173110 
-0.025773 -0.181159 
-0.016318 -0.019381 
-0.029392 -0.038637 
-0.023308 -0.028327 
-0.033846 -0.066307 
-0.032718 -0.052165 
-0.027834 -0.050119 
-0.044139 -0.061769 
-0.038366 -0.055900 
-0.044374 -0.071423 
-0.025405 -0.120377 
-0.028771 -0.107690 
-0.024939 -0.107208 
-0.037229 -0.108858 
-0.032877 -0.108237 
-0.033243 -0.121340 
-0.028988 -0.079672 
-0.031496 -0.094331 
-0.033300 -0.080465 
-0.055086 -0.110859 
-0.050857 -0.110756 
-0.050337 -0.122062 
-0.048164 -0.085582 
-0.050214 -0.098635 
-0.053021 -0.088115 
-0.041784 -0.122130 
-0.046355 -0.110224 
-0.041760 -0.109541 
-0.038016 -0.081648 
-0.040574 -0.096059 
-0.043045 -0.083346 
-0.001834 -0.182764 
-0.000900 -0.182374 
-0.003958 -0.184242 
-0.002842 -0.183399 
-0.004944 -0.169478 
-0.003959 -0.176957 
-0.006753 -0.170113 
-0.009996 -0.188515 
-0.008216 -0.187464 
-0.013043 -0.172538 
-0.010768 -0.180476 
-0.015477 -0.173328 
-0.006624 -0.186344 
-0.005210 -0.185244 
-0.018368 -0.131745 
-0.017703 -0.143243 
-0.021642 -0.132263 
-0.010080 -0.162207 
-0.013787 -0.153242 
-0.011188 -0.152612 
-0.019517 -0.154529 
-0.016560 -0.153896 
-0.014990 -0.163671 
-0.007057 -0.178556 
-0.010783 -0.171695 
-0.008692 -0.170867 
-0.044895 -0.133521 
-0.036732 -0.133857 
-0.040823 -0.133867 
-0.039028 -0.144797 
-0.032943 -0.155545 
-0.025132 -0.132770 
-0.022655 -0.155085 
-0.024191 -0.144347 
-0.028830 -0.133235 
-0.032711 -0.133617 
-0.015186 -0.182124 
-0.026825 -0.165487 
-0.020850 -0.174405 
-0.018084 -0.173982 
-0.020596 -0.164966 
-0.031396 -0.145063 
-0.025959 -0.155497 
-0.029403 -0.155683 
0.000000 0.000000 
-0.012539 -0.017152 
-0.008663 -0.016251 
-0.010283 -0.016477 
0.000000 0.000000 
-0.019878 -0.033344 
-0.023758 -0.049065 
-0.004552 -0.016273 
-0.005372 -0.016231 
0.000000 0.000000 
-0.014851 -0.048156 
-0.010385 -0.032305 
-0.012594 -0.048101 
0.000000 0.000000 
-0.006301 -0.016198 
-0.007378 -0.016191 
-0.023673 -0.093316 
-0.021384 -0.106780 
-0.025272 -0.064357 
-0.025088 -0.079142 
-0.018381 -0.078512 
-0.021567 -0.078777 
-0.018612 -0.063686 
-0.014281 -0.032413 
-0.017403 -0.048279 
-0.020333 -0.048537 
0.000000 -0.016441 
-0.000475 -0.016439 
0.000000 0.000000 
-0.001319 -0.048035 
-0.000919 -0.032460 
0.000000 -0.048032 
0.000000 0.000000 
-0.000959 -0.016433 
-0.001460 -0.016421 
-0.002294 -0.105046 
-0.002157 -0.091687 
0.000000 -0.105012 
-0.005109 -0.063181 
-0.003925 -0.077738 
-0.005969 -0.077805 
0.000000 -0.077681 
-0.001946 -0.077697 
-0.001665 -0.063129 
0.000000 0.000000 
-0.003155 -0.016349 
-0.003819 -0.016313 
-0.001986 -0.016403 
-0.002548 -0.016379 
0.000000 0.000000 
-0.007065 -0.048058 
-0.004927 -0.032410 
-0.005510 -0.048051 
-0.002662 -0.048040 
-0.004051 -0.048045 
-0.002823 -0.032445 
-0.001273 -0.176065 
0.000000 -0.182246 
-0.005777 -0.161002 
-0.003238 -0.169000 
0.000000 -0.168602 
-0.001601 -0.168703 
-0.001879 -0.160332 
-0.018511 -0.119446 
-0.015304 -0.131244 
-0.009731 -0.130372 
-0.012432 -0.130779 
-0.012513 -0.118639 
-0.011982 -0.142121 
-0.008746 -0.152045 
0.000000 -0.129579 
-0.002341 -0.129632 
-0.002355 -0.117713 
-0.002098 -0.150996 
-0.002254 -0.140745 
0.000000 -0.150920 
-0.007214 -0.118037 
-0.004719 -0.129787 
-0.007170 -0.130037 
-0.006437 -0.151572 
-0.006907 -0.141233 
-0.004232 -0.151216 
-0.007381 -0.032353 
-0.008901 -0.063276 
-0.008742 -0.048065 
-0.010573 -0.048076 
-0.013298 -0.063420 
-0.004625 -0.105140 
-0.009544 -0.105499 
-0.007030 -0.105292 
-0.006614 -0.091861 
-0.008113 -0.077895 
-0.018093 -0.106397 
-0.015484 -0.078309 
-0.017087 -0.092661 
-0.015043 -0.106055 
-0.012204 -0.105755 
-0.010389 -0.078008 
-0.011495 -0.092189 
-0.012833 -0.078144 
0.000000 0.000000 
0.000475 -0.016439 
0.001460 -0.016421 
0.000959 -0.016433 
0.000000 0.000000 
0.000919 -0.032460 
0.001319 -0.048035 
0.003819 -0.016313 
0.003155 -0.016349 
0.000000 0.000000 
0.005510 -0.048051 
0.004927 -0.032410 
0.007065 -0.048058 
0.000000 0.000000 
0.002548 -0.016379 
0.001986 -0.016403 
0.002157 -0.091687 
0.002294 -0.105046 
0.001665 -0.063129 
0.001946 -0.077697 
0.005969 -0.077805 
0.003925 -0.077738 
0.005109 -0.063181 
0.002823 -0.032445 
0.004051 -0.048045 
0.002662 -0.048040 
0.016318 -0.019381 
0.012539 -0.017152 
0.000000 0.000000 
0.023758 -0.049065 
0.019878 -0.033344 
0.027834 -0.050119 
0.000000 0.000000 
0.010283 -0.016477 
0.008663 -0.016251 
0.021384 -0.106780 
0.023673 -0.093316 
0.024939 -0.107208 
0.018612 -0.063686 
0.021567 -0.078777 
0.018381 -0.078512 
0.028988 -0.079672 
0.025088 -0.079142 
0.025272 -0.064357 
0.000000 0.000000 
0.005372 -0.016231 
0.004552 -0.016273 
0.007378 -0.016191 
0.006301 -0.016198 
0.000000 0.000000 
0.012594 -0.048101 
0.010385 -0.032305 
0.014851 -0.048156 
0.020333 -0.048537 
0.017403 -0.048279 
0.014281 -0.032413 
0.001273 -0.176065 
0.000900 -0.182374 
0.001879 -0.160332 
0.001601 -0.168703 
0.004944 -0.169478 
0.003238 -0.169000 
0.005777 -0.161002 
0.002355 -0.117713 
0.002341 -0.129632 
0.007170 -0.130037 
0.004719 -0.129787 
0.007214 -0.118037 
0.002254 -0.140745 
0.002098 -0.150996 
0.018368 -0.131745 
0.015304 -0.131244 
0.018511 -0.119446 
0.008746 -0.152045 
0.011982 -0.142121 
0.011188 -0.152612 
0.012513 -0.118639 
0.012432 -0.130779 
0.009731 -0.130372 
0.004232 -0.151216 
0.006907 -0.141233 
0.006437 -0.151572 
0.007381 -0.032353 
0.013298 -0.063420 
0.010573 -0.048076 
0.008742 -0.048065 
0.008901 -0.063276 
0.018093 -0.106397 
0.012204 -0.105755 
0.015043 -0.106055 
0.017087 -0.092661 
0.015484 -0.078309 
0.004625 -0.105140 
0.008113 -0.077895 
0.006614 -0.091861 
0.007030 -0.105292 
0.009544 -0.105499 
0.012833 -0.078144 
0.011495 -0.092189 
0.010389 -0.078008 
0.023308 -0.028327 
0.029392 -0.038637 
0.044374 -0.071423 
0.038366 -0.055900 
0.044139 -0.061769 
0.032718 -0.052165 
0.033846 -0.066307 
0.050337 -0.122062 
0.050857 -0.110756 
0.055086 -0.110859 
0.041760 -0.109541 
0.046355 -0.110224 
0.041784 -0.122130 
0.053021 -0.088115 
0.050214 -0.098635 
0.048164 -0.085582 
0.028771 -0.107690 
0.025405 -0.120377 
0.033300 -0.080465 
0.031496 -0.094331 
0.033243 -0.121340 
0.032877 -0.108237 
0.037229 -0.108858 
0.043045 -0.083346 
0.040574 -0.096059 
0.038016 -0.081648 
0.021532 -0.189998 
0.026593 -0.183355 
0.029154 -0.178940 
0.021395 -0.188560 
0.023990 -0.186501 
0.016747 -0.195336 
0.038785 -0.164796 
0.031398 -0.176245 
0.035877 -0.168637 
0.011963 -0.189392 
0.014109 -0.189974 
0.008478 -0.195782 
0.026750 -0.174104 
0.020256 -0.182698 
0.023750 -0.174488 
0.012300 -0.196800 
0.016416 -0.190131 
0.018857 -0.189712 
0.052575 -0.130972 
0.046537 -0.142538 
0.048846 -0.132636 
0.039951 -0.160503 
0.043535 -0.151814 
0.046831 -0.148871 
0.036523 -0.154959 
0.040077 -0.153775 
0.033418 -0.164386 
0.025773 -0.181159 
0.029806 -0.173110 
0.032866 -0.171346 
0.001834 -0.182764 
0.000485 -0.187588 
0.006753 -0.170113 
0.003959 -0.176957 
0.001612 -0.188769 
0.002842 -0.183399 
0.003958 -0.184242 
0.021642 -0.132263 
0.017703 -0.143243 
0.014990 -0.163671 
0.016560 -0.153896 
0.019517 -0.154529 
0.013787 -0.153242 
0.010080 -0.162207 
0.005436 -0.193489 
0.008216 -0.187464 
0.009996 -0.188515 
0.005210 -0.185244 
0.006624 -0.186344 
0.003187 -0.190903 
0.015477 -0.173328 
0.010768 -0.180476 
0.013043 -0.172538 