# vtk DataFile Version 2.0
Unstructured Grid Example
ASCII
DATASET UNSTRUCTURED_GRID

POINTS 4225 float
-0.013514 -0.253938 0.000000 
1.013514 -0.253938 0.000000 
1.000000 1.000000 0.000000 
0.000000 1.000000 0.000000 
0.500000 -0.099946 0.000000 
0.976085 0.314664 0.000000 
0.500000 1.000000 0.000000 
0.023915 0.314664 0.000000 
0.500000 0.312497 0.000000 
0.229691 -0.172619 0.000000 
0.500000 0.064301 0.000000 
0.229745 0.039245 0.000000 
0.770309 -0.172619 0.000000 
0.770255 0.039245 0.000000 
1.016513 0.022564 0.000000 
0.743157 0.305353 0.000000 
0.945790 0.628790 0.000000 
0.728221 0.630159 0.000000 
0.750000 1.000000 0.000000 
0.500000 0.632391 0.000000 
0.250000 1.000000 0.000000 
0.271779 0.630159 0.000000 
0.054210 0.628790 0.000000 
0.256843 0.305353 0.000000 
-0.016513 0.022564 0.000000 
0.113476 -0.233910 0.000000 
0.222384 -0.072203 0.000000 
0.096730 -0.106732 0.000000 
0.500000 -0.028938 0.000000 
0.358051 -0.040859 0.000000 
0.356895 -0.120103 0.000000 
0.369941 0.174397 0.000000 
0.362729 0.057111 0.000000 
0.500000 0.178514 0.000000 
0.643105 -0.120103 0.000000 
0.641949 -0.040859 0.000000 
0.903270 -0.106732 0.000000 
0.777616 -0.072203 0.000000 
0.886524 -0.233910 0.000000 
0.637271 0.057111 0.000000 
0.630059 0.174397 0.000000 
1.023773 -0.119971 0.000000 
0.896302 0.022243 0.000000 
0.860544 0.303597 0.000000 
0.879430 0.158177 0.000000 
0.997793 0.166916 0.000000 
0.757081 0.164841 0.000000 
0.622686 0.310336 0.000000 
0.957001 0.467938 0.000000 
0.844940 0.459856 0.000000 
0.845859 0.809987 0.000000 
0.837629 0.628283 0.000000 
0.950555 0.799540 0.000000 
0.732324 0.460701 0.000000 
0.617147 0.463515 0.000000 
0.875000 1.000000 0.000000 
0.734247 0.811504 0.000000 
0.500000 0.811914 0.000000 
0.618078 0.811800 0.000000 
0.625000 1.000000 0.000000 
0.615234 0.631744 0.000000 
0.500000 0.464819 0.000000 
0.375000 1.000000 0.000000 
0.381922 0.811800 0.000000 
0.154141 0.809987 0.000000 
0.265753 0.811504 0.000000 
0.125000 1.000000 0.000000 
0.384766 0.631744 0.000000 
0.382853 0.463515 0.000000 
0.049445 0.799540 0.000000 
0.162371 0.628283 0.000000 
0.139456 0.303597 0.000000 
0.155060 0.459856 0.000000 
0.042999 0.467938 0.000000 
0.267676 0.460701 0.000000 
0.377314 0.310336 0.000000 
0.002207 0.166916 0.000000 
0.120570 0.158177 0.000000 
0.103698 0.022243 0.000000 
-0.023773 -0.119971 0.000000 
0.242919 0.164841 0.000000 
0.049405 -0.246484 0.000000 
0.100777 -0.170376 0.000000 
0.040574 -0.182518 0.000000 
0.223424 -0.123252 0.000000 
0.160760 -0.148757 0.000000 
0.173407 -0.206433 0.000000 
0.160562 -0.031691 0.000000 
0.158277 -0.090895 0.000000 
0.224927 -0.018154 0.000000 
0.500000 -0.067407 0.000000 
0.427935 -0.071334 0.000000 
0.427287 -0.105130 0.000000 
0.429621 0.012621 0.000000 
0.428582 -0.031993 0.000000 
0.500000 0.015013 0.000000 
0.290707 -0.143286 0.000000 
0.357240 -0.082727 0.000000 
0.288931 -0.100529 0.000000 
0.436686 0.242374 0.000000 
0.434762 0.177443 0.000000 
0.500000 0.243159 0.000000 
0.295468 0.048981 0.000000 
0.366177 0.113361 0.000000 
0.300432 0.107278 0.000000 
0.500000 0.118839 0.000000 
0.432846 0.117418 0.000000 
0.431082 0.062443 0.000000 
0.289136 -0.054724 0.000000 
0.359917 0.005708 0.000000 
0.291506 -0.004992 0.000000 
0.572713 -0.105130 0.000000 
0.572065 -0.071334 0.000000 
0.711069 -0.100529 0.000000 
0.642760 -0.082727 0.000000 
0.709293 -0.143286 0.000000 
0.571418 -0.031993 0.000000 
0.570379 0.012621 0.000000 
0.959426 -0.182518 0.000000 
0.899223 -0.170376 0.000000 
0.950595 -0.246484 0.000000 
0.775073 -0.018154 0.000000 
0.841723 -0.090895 0.000000 
0.839438 -0.031691 0.000000 
0.826593 -0.206433 0.000000 
0.839240 -0.148757 0.000000 
0.776576 -0.123252 0.000000 
0.565238 0.177443 0.000000 
0.563314 0.242374 0.000000 
0.568918 0.062443 0.000000 
0.567154 0.117418 0.000000 
0.699568 0.107278 0.000000 
0.633823 0.113361 0.000000 
0.704532 0.048981 0.000000 
0.710864 -0.054724 0.000000 
0.708494 -0.004992 0.000000 
0.640083 0.005708 0.000000 
1.020322 -0.188975 0.000000 
0.963706 -0.116392 0.000000 
0.956987 0.019216 0.000000 
0.962472 -0.049122 0.000000 
1.022229 -0.049021 0.000000 
0.901679 -0.042840 0.000000 
0.834166 0.029629 0.000000 
0.918385 0.306799 0.000000 
0.928617 0.232339 0.000000 
0.986914 0.240187 0.000000 
0.810388 0.230397 0.000000 
0.869879 0.229609 0.000000 
0.802210 0.303552 0.000000 
1.007971 0.094485 0.000000 
0.938976 0.159735 0.000000 
0.948744 0.088768 0.000000 
0.626262 0.240106 0.000000 
0.561500 0.312024 0.000000 
0.764033 0.100201 0.000000 
0.694099 0.169900 0.000000 
0.683297 0.307903 0.000000 
0.688551 0.236804 0.000000 
0.749960 0.233222 0.000000 
0.888521 0.089130 0.000000 
0.818854 0.160437 0.000000 
0.827016 0.093571 0.000000 
0.965899 0.390439 0.000000 
0.908925 0.383331 0.000000 
0.894726 0.543540 0.000000 
0.900821 0.462163 0.000000 
0.950028 0.547320 0.000000 
0.852044 0.380293 0.000000 
0.794873 0.379967 0.000000 
0.913805 0.902670 0.000000 
0.898737 0.806752 0.000000 
0.964480 0.891260 0.000000 
0.783363 0.629203 0.000000 
0.839219 0.717488 0.000000 
0.785174 0.718799 0.000000 
0.945396 0.712653 0.000000 
0.892216 0.715290 0.000000 
0.891471 0.627769 0.000000 
0.619564 0.384885 0.000000 
0.559916 0.386152 0.000000 
0.737130 0.381199 0.000000 
0.678687 0.383070 0.000000 
0.672781 0.544898 0.000000 
0.675070 0.462143 0.000000 
0.729195 0.543751 0.000000 
0.839873 0.542457 0.000000 
0.784839 0.542784 0.000000 
0.788892 0.459700 0.000000 
0.937500 1.000000 0.000000 
0.858343 0.904849 0.000000 
0.741241 0.905189 0.000000 
0.800377 0.905198 0.000000 
0.812500 1.000000 0.000000 
0.790858 0.811107 0.000000 
0.729830 0.719590 0.000000 
0.500000 0.905056 0.000000 
0.560652 0.905057 0.000000 
0.562500 1.000000 0.000000 
0.558163 0.720786 0.000000 
0.559154 0.811876 0.000000 
0.500000 0.720887 0.000000 
0.687500 1.000000 0.000000 
0.621173 0.905079 0.000000 
0.681424 0.905127 0.000000 
0.558709 0.464471 0.000000 
0.500000 0.386593 0.000000 
0.672132 0.631033 0.000000 
0.615643 0.545925 0.000000 
0.500000 0.546886 0.000000 
0.557964 0.546627 0.000000 
0.557764 0.632215 0.000000 
0.676534 0.811686 0.000000 
0.616045 0.720531 0.000000 
0.673362 0.720135 0.000000 
0.437500 1.000000 0.000000 
0.439348 0.905057 0.000000 
0.318576 0.905127 0.000000 
0.378827 0.905079 0.000000 
0.312500 1.000000 0.000000 
0.440846 0.811876 0.000000 
0.441837 0.720786 0.000000 
0.086195 0.902670 0.000000 
0.141657 0.904849 0.000000 
0.062500 1.000000 0.000000 
0.270170 0.719590 0.000000 
0.209142 0.811107 0.000000 
0.214826 0.718799 0.000000 
0.187500 1.000000 0.000000 
0.199623 0.905198 0.000000 
0.258759 0.905189 0.000000 
0.441291 0.464471 0.000000 
0.440084 0.386152 0.000000 
0.442236 0.632215 0.000000 
0.442036 0.546627 0.000000 
0.327219 0.544898 0.000000 
0.384357 0.545925 0.000000 
0.327868 0.631033 0.000000 
0.323466 0.811686 0.000000 
0.326638 0.720135 0.000000 
0.383955 0.720531 0.000000 
0.035520 0.891260 0.000000 
0.101263 0.806752 0.000000 
0.108529 0.627769 0.000000 
0.107784 0.715290 0.000000 
0.054604 0.712653 0.000000 
0.160781 0.717488 0.000000 
0.216637 0.629203 0.000000 
0.081615 0.306799 0.000000 
0.091075 0.383331 0.000000 
0.034101 0.390439 0.000000 
0.205127 0.379967 0.000000 
0.147956 0.380293 0.000000 
0.197790 0.303552 0.000000 
0.049972 0.547320 0.000000 
0.099179 0.462163 0.000000 
0.105274 0.543540 0.000000 
0.380436 0.384885 0.000000 
0.438500 0.312024 0.000000 
0.270805 0.543751 0.000000 
0.324930 0.462143 0.000000 
0.316703 0.307903 0.000000 
0.321313 0.383070 0.000000 
0.262870 0.381199 0.000000 
0.160127 0.542457 0.000000 
0.211108 0.459700 0.000000 
0.215161 0.542784 0.000000 
0.013086 0.240187 0.000000 
0.071383 0.232339 0.000000 
0.051256 0.088768 0.000000 
0.061024 0.159735 0.000000 
-0.007971 0.094485 0.000000 
0.130121 0.229609 0.000000 
0.189612 0.230397 0.000000 
0.036294 -0.116392 0.000000 
-0.020322 -0.188975 0.000000 
0.165834 0.029629 0.000000 
0.098321 -0.042840 0.000000 
-0.022229 -0.049021 0.000000 
0.037528 -0.049122 0.000000 
0.043013 0.019216 0.000000 
0.373738 0.240106 0.000000 
0.250040 0.233222 0.000000 
0.311449 0.236804 0.000000 
0.305901 0.169900 0.000000 
0.235967 0.100201 0.000000 
0.111479 0.089130 0.000000 
0.172984 0.093571 0.000000 
0.181146 0.160437 0.000000 
0.017738 -0.250395 0.000000 
0.044694 -0.214906 0.000000 
0.013789 -0.218709 0.000000 
0.105802 -0.202314 0.000000 
0.075446 -0.209729 0.000000 
0.081436 -0.241284 0.000000 
0.067841 -0.144996 0.000000 
0.070812 -0.177485 0.000000 
0.097900 -0.138521 0.000000 
0.225860 -0.147958 0.000000 
0.195151 -0.162376 0.000000 
0.201092 -0.189002 0.000000 
0.190164 -0.109002 0.000000 
0.191713 -0.135878 0.000000 
0.222346 -0.098065 0.000000 
0.144722 -0.223154 0.000000 
0.165044 -0.177507 0.000000 
0.135558 -0.191739 0.000000 
0.194749 0.004259 0.000000 
0.192458 -0.025039 0.000000 
0.227113 0.010112 0.000000 
0.127254 -0.099459 0.000000 
0.158961 -0.061516 0.000000 
0.127714 -0.068738 0.000000 
0.223304 -0.045581 0.000000 
0.190812 -0.053645 0.000000 
0.189975 -0.081614 0.000000 
0.130605 -0.160737 0.000000 
0.158750 -0.119934 0.000000 
0.128086 -0.130059 0.000000 
0.500000 -0.084467 0.000000 
0.463711 -0.085598 0.000000 
0.463500 -0.101251 0.000000 
0.464041 -0.049745 0.000000 
0.463877 -0.068395 0.000000 
0.500000 -0.048874 0.000000 
0.391665 -0.111473 0.000000 
0.427656 -0.088962 0.000000 
0.392052 -0.094467 0.000000 
0.465113 0.038461 0.000000 
0.464767 0.014408 0.000000 
0.500000 0.038995 0.000000 
0.393155 -0.035738 0.000000 
0.429045 -0.010339 0.000000 
0.393808 -0.013651 0.000000 
0.500000 -0.007635 0.000000 
0.464474 -0.008318 0.000000 
0.464233 -0.029709 0.000000 
0.259535 -0.157313 0.000000 
0.289661 -0.122207 0.000000 
0.257318 -0.134504 0.000000 
0.357093 -0.101970 0.000000 
0.322930 -0.111287 0.000000 
0.323191 -0.130793 0.000000 
0.322856 -0.069589 0.000000 
0.322746 -0.090913 0.000000 
0.357526 -0.062367 0.000000 
0.428223 -0.052331 0.000000 
0.392679 -0.056571 0.000000 
0.392341 -0.076151 0.000000 
[...]
POINT_DATA 4225

SCALARS u_h float 2
LOOKUP_TABLE default
-0.013514 -0.253938 
0.013514 -0.253938 
0.000000 0.000000 
0.000000 0.000000 
-0.000000 -0.099946 
-0.023915 -0.185336 
0.000000 0.000000 
0.023915 -0.185336 
-0.000000 -0.187503 
-0.020309 -0.172619 
-0.000000 -0.185699 
-0.020255 -0.210755 
0.020309 -0.172619 
0.020255 -0.210755 
0.016513 -0.227436 
-0.006843 -0.194647 
-0.054210 -0.121210 
-0.021779 -0.119841 
0.000000 0.000000 
-0.000000 -0.117609 
0.000000 0.000000 
0.021779 -0.119841 
0.054210 -0.121210 
0.006843 -0.194647 
-0.016513 -0.227436 
-0.011524 -0.233910 
-0.027616 -0.197203 
-0.028270 -0.231732 
-0.000000 -0.153938 
-0.016949 -0.165859 
-0.018105 -0.120103 
-0.005059 -0.200603 
-0.012271 -0.192889 
-0.000000 -0.196486 
0.018105 -0.120103 
0.016949 -0.165859 
0.028270 -0.231732 
0.027616 -0.197203 
0.011524 -0.233910 
0.012271 -0.192889 
0.005059 -0.200603 
0.023773 -0.244971 
0.021302 -0.227757 
-0.014456 -0.196403 
0.004430 -0.216823 
-0.002207 -0.208084 
0.007081 -0.210159 
-0.002314 -0.189664 
-0.042999 -0.157062 
-0.030060 -0.165144 
-0.029141 -0.065013 
-0.037371 -0.121717 
-0.049445 -0.075460 
-0.017676 -0.164299 
-0.007853 -0.161485 
0.000000 0.000000 
-0.015753 -0.063496 
-0.000000 -0.063086 
-0.006922 -0.063200 
0.000000 0.000000 
-0.009766 -0.118256 
-0.000000 -0.160181 
0.000000 0.000000 
0.006922 -0.063200 
0.029141 -0.065013 
0.015753 -0.063496 
0.000000 0.000000 
0.009766 -0.118256 
0.007853 -0.161485 
0.049445 -0.075460 
0.037371 -0.121717 
0.014456 -0.196403 
0.030060 -0.165144 
0.042999 -0.157062 
0.017676 -0.164299 
0.002314 -0.189664 
0.002207 -0.208084 
-0.004430 -0.216823 
-0.021302 -0.227757 
-0.023773 -0.244971 
-0.007081 -0.210159 
-0.013095 -0.246484 
-0.024223 -0.232876 
-0.021926 -0.245018 
-0.026576 -0.185752 
-0.026740 -0.211257 
-0.014093 -0.206433 
-0.026938 -0.219191 
-0.029223 -0.215895 
-0.025073 -0.205654 
-0.000000 -0.129907 
-0.009565 -0.133834 
-0.010213 -0.105130 
-0.007879 -0.174879 
-0.008918 -0.156993 
-0.000000 -0.172487 
-0.021793 -0.143286 
-0.017760 -0.145227 
-0.023569 -0.163029 
-0.000814 -0.195126 
-0.002738 -0.197557 
-0.000000 -0.194341 
-0.017032 -0.201019 
-0.008823 -0.199139 
-0.012068 -0.205222 
-0.000000 -0.193661 
-0.004654 -0.195082 
-0.006418 -0.187557 
-0.023364 -0.179724 
-0.015083 -0.181792 
-0.020994 -0.192492 
0.010213 -0.105130 
0.009565 -0.133834 
0.023569 -0.163029 
0.017760 -0.145227 
0.021793 -0.143286 
0.008918 -0.156993 
0.007879 -0.174879 
0.021926 -0.245018 
0.024223 -0.232876 
0.013095 -0.246484 
0.025073 -0.205654 
0.029223 -0.215895 
0.026938 -0.219191 
0.014093 -0.206433 
0.026740 -0.211257 
0.026576 -0.185752 
0.002738 -0.197557 
0.000814 -0.195126 
0.006418 -0.187557 
0.004654 -0.195082 
0.012068 -0.205222 
0.008823 -0.199139 
0.017032 -0.201019 
0.023364 -0.179724 
0.020994 -0.192492 
0.015083 -0.181792 
0.020322 -0.251475 
0.026206 -0.241392 
0.019487 -0.230784 
0.024972 -0.236622 
0.022229 -0.236521 
0.026679 -0.230340 
0.021666 -0.220371 
-0.019115 -0.193201 
-0.008883 -0.205161 
-0.013086 -0.197313 
-0.002112 -0.207103 
-0.005121 -0.207891 
-0.010290 -0.196448 
0.007971 -0.218015 
0.001476 -0.215265 
0.011244 -0.223732 
0.001262 -0.197394 
-0.001000 -0.187976 
0.014033 -0.212299 
0.006599 -0.205100 
-0.004203 -0.192097 
0.001051 -0.200696 
-0.000040 -0.204278 
0.013521 -0.223370 
0.006354 -0.214563 
0.014516 -0.218929 
-0.034101 -0.172061 
-0.028575 -0.179169 
-0.042774 -0.143960 
-0.036679 -0.162837 
-0.049972 -0.140180 
-0.022956 -0.182207 
-0.017627 -0.182533 
-0.023695 -0.034830 
-0.038763 -0.068248 
-0.035520 -0.046240 
-0.029137 -0.120797 
-0.035781 -0.095012 
-0.027326 -0.093701 
-0.054604 -0.099847 
-0.045284 -0.097210 
-0.046029 -0.122231 
-0.005436 -0.177615 
-0.002584 -0.176348 
-0.012870 -0.181301 
-0.008813 -0.179430 
-0.014719 -0.142602 
-0.012430 -0.162857 
-0.020805 -0.143749 
-0.035127 -0.145043 
-0.027661 -0.144716 
-0.023608 -0.165300 
0.000000 0.000000 
-0.016657 -0.032651 
-0.008759 -0.032311 
-0.012123 -0.032302 
0.000000 0.000000 
-0.021642 -0.063893 
-0.020170 -0.092910 
-0.000000 -0.032444 
-0.001848 -0.032443 
0.000000 0.000000 
-0.004337 -0.091714 
-0.003346 -0.063124 
-0.000000 -0.091613 
0.000000 0.000000 
-0.003827 -0.032421 
-0.006076 -0.032373 
-0.003791 -0.160529 
-0.000000 -0.175907 
-0.015368 -0.118967 
-0.009357 -0.141575 
-0.000000 -0.140614 
-0.004536 -0.140873 
-0.004736 -0.117785 
-0.010966 -0.063314 
-0.008955 -0.091969 
-0.014138 -0.092365 
0.000000 0.000000 
0.001848 -0.032443 
0.006076 -0.032373 
0.003827 -0.032421 
0.000000 0.000000 
0.003346 -0.063124 
0.004337 -0.091714 
0.023695 -0.034830 
0.016657 -0.032651 
0.000000 0.000000 
0.020170 -0.092910 
0.021642 -0.063893 
0.027326 -0.093701 
0.000000 0.000000 
0.012123 -0.032302 
0.008759 -0.032311 
0.003791 -0.160529 
0.002584 -0.176348 
0.004736 -0.117785 
0.004536 -0.140873 
0.014719 -0.142602 
0.009357 -0.141575 
0.015368 -0.118967 
0.010966 -0.063314 
0.014138 -0.092365 
0.008955 -0.091969 
0.035520 -0.046240 
0.038763 -0.068248 
0.046029 -0.122231 
0.045284 -0.097210 
0.054604 -0.099847 
0.035781 -0.095012 
0.029137 -0.120797 
0.019115 -0.193201 
0.028575 -0.179169 
0.034101 -0.172061 
0.017627 -0.182533 
0.022956 -0.182207 
0.010290 -0.196448 
0.049972 -0.140180 
0.036679 -0.162837 
0.042774 -0.143960 
0.005436 -0.177615 
0.001000 -0.187976 
0.020805 -0.143749 
0.012430 -0.162857 
0.004203 -0.192097 
0.008813 -0.179430 
0.012870 -0.181301 
0.035127 -0.145043 
0.023608 -0.165300 
0.027661 -0.144716 
0.013086 -0.197313 
0.008883 -0.205161 
-0.011244 -0.223732 
-0.001476 -0.215265 
-0.007971 -0.218015 
0.005121 -0.207891 
0.002112 -0.207103 
-0.026206 -0.241392 
-0.020322 -0.251475 
-0.021666 -0.220371 
-0.026679 -0.230340 
-0.022229 -0.236521 
-0.024972 -0.236622 
-0.019487 -0.230784 
-0.001262 -0.197394 
0.000040 -0.204278 
-0.001051 -0.200696 
-0.006599 -0.205100 
-0.014033 -0.212299 
-0.013521 -0.223370 
-0.014516 -0.218929 
-0.006354 -0.214563 
-0.013512 -0.250395 
-0.017806 -0.246156 
-0.017461 -0.249959 
-0.019198 -0.233564 
-0.018304 -0.240979 
-0.012314 -0.241284 
-0.025909 -0.238746 
-0.022938 -0.239985 
-0.027100 -0.232271 
-0.024140 -0.179208 
-0.023599 -0.193626 
-0.017658 -0.189002 
-0.028586 -0.202752 
-0.027037 -0.198378 
-0.027654 -0.191815 
-0.011528 -0.223154 
-0.022456 -0.208757 
-0.020692 -0.222989 
-0.024001 -0.214491 
-0.026292 -0.212539 
-0.022887 -0.208638 
-0.028996 -0.224459 
-0.028539 -0.217766 
-0.028536 -0.224988 
-0.026696 -0.201831 
-0.027938 -0.209895 
-0.028775 -0.206614 
-0.025645 -0.223237 
-0.028750 -0.213684 
-0.028164 -0.223809 
-0.000000 -0.115717 
-0.005039 -0.116848 
-0.005250 -0.101251 
-0.004709 -0.143495 
-0.004873 -0.130895 
-0.000000 -0.142624 
-0.014585 -0.111473 
-0.009844 -0.120212 
-0.014198 -0.125717 
-0.003637 -0.180289 
-0.003983 -0.173092 
-0.000000 -0.179755 
-0.013095 -0.160738 
-0.008455 -0.166589 
-0.012442 -0.169901 
-0.000000 -0.163885 
-0.004276 -0.164568 
-0.004517 -0.154709 
-0.021715 -0.157313 
-0.022839 -0.153457 
-0.023932 -0.165754 
-0.017907 -0.133220 
-0.020820 -0.142537 
-0.020559 -0.130793 
-0.020894 -0.163339 
-0.021004 -0.153413 
-0.017474 -0.156117 
-0.009277 -0.146081 
-0.013571 -0.150321 
-0.013909 -0.138651 
0.000028 -0.191627 
-0.000433 -0.194535 
-0.000000 -0.191481 
-0.003975 -0.198857 
-0.001769 -0.196944 
-0.002529 -0.198068 
-0.000000 -0.196022 
-0.000911 -0.196253 
-0.001396 -0.196756 
-0.018858 -0.205782 
-0.014642 -0.203662 
-0.016153 -0.207751 
-0.010606 -0.196618 
-0.012777 -0.199900 
-0.014819 -0.196666 
-0.008294 -0.202918 
-0.010586 -0.201982 
-0.006962 -0.200463 
-0.000000 -0.190330 
-0.002816 -0.190743 
-0.003245 -0.186170 
-0.001882 -0.196019 
-0.002358 -0.194021 
-0.000000 -0.195706 
-0.009449 -0.189820 
-0.005564 -0.191958 
-0.008182 -0.193939 
-0.005416 -0.198444 
-0.006828 -0.196809 
-0.003706 -0.196943 
-0.025424 -0.173879 
-0.020396 -0.172238 
-0.023761 -0.171829 
-0.026027 -0.181399 
-0.025792 -0.188127 
-0.007196 -0.181866 
-0.013777 -0.187948 
-0.010600 -0.184443 
-0.011606 -0.177804 
-0.016150 -0.174425 
-0.021267 -0.202819 
-0.024838 -0.193969 
-0.023292 -0.198876 
-0.019173 -0.197293 
-0.016657 -0.192278 
-0.019499 -0.180049 
-0.018236 -0.186736 
-0.022418 -0.186627 
0.005250 -0.101251 
0.005039 -0.116848 
0.014198 -0.125717 
0.009844 -0.120212 
0.014585 -0.111473 
0.004873 -0.130895 
0.004709 -0.143495 
0.023932 -0.165754 
0.022839 -0.153457 
0.021715 -0.157313 
0.017474 -0.156117 
0.021004 -0.153413 
0.020894 -0.163339 
0.020559 -0.130793 
0.020820 -0.142537 
0.017907 -0.133220 
0.003983 -0.173092 
0.003637 -0.180289 
0.004517 -0.154709 
0.004276 -0.164568 
0.012442 -0.169901 
0.008455 -0.166589 
0.013095 -0.160738 
0.013909 -0.138651 
0.013571 -0.150321 
0.009277 -0.146081 
0.017461 -0.249959 
0.017806 -0.246156 
0.013512 -0.250395 
0.027100 -0.232271 
0.022938 -0.239985 
0.025909 -0.238746 
0.012314 -0.241284 
0.018304 -0.240979 
0.019198 -0.233564 
0.022887 -0.208638 
0.026292 -0.212539 
0.024001 -0.214491 
0.028775 -0.206614 
0.027938 -0.209895 
0.026696 -0.201831 
0.028536 -0.224988 
0.028539 -0.217766 
0.028996 -0.224459 
0.017658 -0.189002 
0.023599 -0.193626 
0.024140 -0.179208 
0.020692 -0.222989 
0.022456 -0.208757 
0.011528 -0.223154 
0.027654 -0.191815 
0.027037 -0.198378 
0.028586 -0.202752 
0.028164 -0.223809 
0.028750 -0.213684 
0.025645 -0.223237 
0.000433 -0.194535 
-0.000028 -0.191627 
0.001396 -0.196756 
0.000911 -0.196253 
0.002529 -0.198068 
0.001769 -0.196944 
0.003975 -0.198857 
0.003245 -0.186170 
0.002816 -0.190743 
0.008182 -0.193939 
0.005564 -0.191958 
0.009449 -0.189820 
0.002358 -0.194021 
0.001882 -0.196019 
0.016153 -0.207751 
0.014642 -0.203662 
0.018858 -0.205782 
0.006962 -0.200463 
0.010586 -0.201982 
0.008294 -0.202918 
0.014819 -0.196666 
0.012777 -0.199900 
0.010606 -0.196618 
0.003706 -0.196943 
0.006828 -0.196809 
0.005416 -0.198444 
0.025424 -0.173879 
0.025792 -0.188127 
0.026027 -0.181399 
0.023761 -0.171829 
0.020396 -0.172238 
0.021267 -0.202819 
0.016657 -0.192278 
0.019173 -0.197293 
0.023292 -0.198876 
0.024838 -0.193969 
0.007196 -0.181866 
0.016150 -0.174425 
0.011606 -0.177804 
0.010600 -0.184443 
0.013777 -0.187948 
0.022418 -0.186627 
0.018236 -0.186736 
0.019499 -0.180049 
0.017082 -0.253297 
0.021119 -0.248608 
0.025078 -0.243866 
0.023762 -0.246514 
0.022658 -0.248598 
0.024790 -0.243374 
0.027283 -0.237389 
0.018136 -0.230041 
0.021380 -0.233855 
0.019808 -0.232023 
0.023669 -0.232235 
0.022663 -0.233843 
0.020552 -0.229940 
0.023602 -0.240877 
0.023743 -0.237454 
0.025034 -0.240812 
0.024598 -0.220083 
0.021193 -0.215704 
0.028048 -0.231132 
0.027040 -0.225242 
0.021689 -0.224481 
0.024703 -0.225103 
0.024370 -0.229244 
0.026216 -0.239136 
0.025961 -0.234200 
0.027233 -0.235895 
-0.021525 -0.189960 
-0.016286 -0.196170 
-0.018550 -0.191501 
-0.011894 -0.201463 
-0.014053 -0.199427 
-0.016743 -0.195285 
-0.007609 -0.202825 
-0.010953 -0.201977 
-0.005596 -0.207408 
-0.004780 -0.201220 
-0.006271 -0.202180 
-0.008468 -0.195705 
-0.000333 -0.212667 
-0.003508 -0.207841 
0.001019 -0.212304 
-0.012294 -0.196734 
-0.007969 -0.202656 
-0.009853 -0.202477 
0.012515 -0.222772 
0.009712 -0.221767 
0.014192 -0.226016 
-0.000300 -0.212495 
0.004840 -0.217270 
0.003022 -0.213133 
0.007913 -0.220646 
0.006486 -0.219689 
0.003066 -0.216632 
-0.006924 -0.207065 
-0.001911 -0.212113 
-0.003679 -0.210432 
-0.000113 -0.192128 
-0.000479 -0.187549 
0.003148 -0.199574 
0.001103 -0.196095 
-0.001600 -0.188697 
-0.000281 -0.192963 
-0.000569 -0.194083 
0.017274 -0.211981 
0.013228 -0.208718 
0.006986 -0.207628 
0.010150 -0.208677 
0.010611 -0.211694 
0.009369 -0.205700 
0.005946 -0.202718 
-0.005422 -0.193406 
-0.002464 -0.198452 
-0.003510 -0.199930 
-0.001011 -0.195426 
-0.001635 -0.196914 
-0.003173 -0.190821 
0.003510 -0.207688 
0.000625 -0.202510 
0.003792 -0.205571 
0.003587 -0.201392 
0.003811 -0.203429 
0.001255 -0.198956 
0.015626 -0.227421 
0.009081 -0.220383 
0.012527 -0.224182 
0.016785 -0.227269 
0.017637 -0.225816 
-0.000953 -0.205860 
0.006872 -0.212530 
0.002953 -0.209628 
0.002120 -0.211227 
0.005535 -0.216062 
0.017981 -0.216142 
0.018143 -0.223309 
0.018267 -0.220001 
0.014464 -0.215773 
0.010734 -0.214575 
0.009957 -0.219133 
0.010514 -0.217124 
0.014194 -0.221539 
-0.029138 -0.178908 
-0.026580 -0.183320 
-0.035843 -0.168608 
-0.031376 -0.176213 
-0.038747 -0.164786 
-0.023978 -0.186459 
-0.021383 -0.188509 
-0.048768 -0.132608 
-0.046470 -0.142512 
-0.052493 -0.130971 
-0.033376 -0.164334 
-0.040024 -0.153734 
-0.036471 -0.154906 
-0.046772 -0.148868 
-0.043480 -0.151789 
-0.039906 -0.160477 
-0.014095 -0.189902 
-0.011948 -0.189315 
-0.018844 -0.189653 
-0.016402 -0.190064 
-0.023721 -0.174421 
-0.020235 -0.182631 
-0.026720 -0.174044 
-0.032834 -0.171305 
-0.029775 -0.173058 
-0.025751 -0.181108 
-0.015990 -0.019234 
-0.029092 -0.038496 
-0.022987 -0.027729 
-0.033680 -0.066231 
-0.032501 -0.052073 
-0.027652 -0.050048 
-0.043898 -0.061684 
-0.038127 -0.055781 
-0.044185 -0.071334 
-0.025337 -0.120314 
-0.028686 -0.107627 
-0.024863 -0.107149 
-0.037129 -0.108792 
-0.032783 -0.108172 
-0.033162 -0.121275 
-0.028872 -0.079612 
-0.031390 -0.094267 
-0.033168 -0.080397 
-0.054975 -0.110855 
-0.050749 -0.110717 
-0.050245 -0.122030 
-0.048011 -0.085515 
-0.050087 -0.098585 
-0.052865 -0.088096 
-0.041695 -0.122070 
-0.046249 -0.110167 
-0.041655 -0.109477 
-0.037871 -0.081574 
-0.040451 -0.095989 
-0.042893 -0.083270 
-0.001835 -0.182706 
-0.000907 -0.182334 
-0.003949 -0.184166 
-0.002838 -0.183330 
-0.004942 -0.169414 
-0.003958 -0.176890 
-0.006746 -0.170043 
-0.009981 -0.188435 
-0.008202 -0.187383 
-0.013022 -0.172462 
-0.010752 -0.180397 
-0.015454 -0.173252 
-0.006611 -0.186263 
-0.005199 -0.185165 
-0.018324 -0.131683 
-0.017665 -0.143176 
-0.021590 -0.132198 
-0.010064 -0.162137 
-0.013761 -0.153173 
-0.011168 -0.152546 
-0.019480 -0.154458 
-0.016529 -0.153826 
-0.014965 -0.163597 
-0.007047 -0.178480 
-0.010767 -0.171619 
-0.008680 -0.170794 
-0.044819 -0.133475 
-0.036659 -0.133794 
-0.040748 -0.133811 
-0.038965 -0.144743 
-0.032893 -0.155484 
-0.025073 -0.132704 
-0.022613 -0.155014 
-0.024141 -0.144279 
-0.028765 -0.133169 
-0.032642 -0.133552 
-0.015165 -0.182049 
-0.026787 -0.165421 
-0.020822 -0.174334 
-0.018058 -0.173907 
-0.020562 -0.164894 
-0.031338 -0.144998 
-0.025914 -0.155428 
-0.029355 -0.155618 
0.000000 0.000000 
-0.012370 -0.017112 
-0.008595 -0.016241 
-0.010181 -0.016460 
0.000000 0.000000 
-0.019708 -0.033293 
-0.023614 -0.049013 
-0.004532 -0.016268 
-0.005345 -0.016226 
0.000000 0.000000 
-0.014783 -0.048131 
-0.010335 -0.032290 
-0.012541 -0.048079 
0.000000 0.000000 
-0.006266 -0.016192 
-0.007329 -0.016184 
-0.023592 -0.093262 
-0.021319 -0.106725 
-0.025152 -0.064304 
-0.024988 -0.079089 
-0.018312 -0.078471 
-0.021483 -0.078730 
-0.018532 -0.063649 
-0.014193 -0.032391 
-0.017316 -0.048247 
-0.020221 -0.048497 
-0.000000 -0.016433 
-0.000473 -0.016433 
0.000000 0.000000 
-0.001314 -0.048014 
-0.000915 -0.032446 
-0.000000 -0.048007 
0.000000 0.000000 
-0.000955 -0.016427 
-0.001454 -0.016416 
-0.002288 -0.104996 
-0.002151 -0.091644 
-0.000000 -0.104956 
-0.005091 -0.063157 
-0.003912 -0.077705 
-0.005950 -0.077774 
-0.000000 -0.077639 
-0.001940 -0.077660 
-0.001659 -0.063100 
0.000000 0.000000 
-0.003143 -0.016345 
-0.003803 -0.016309 
-0.001979 -0.016399 
-0.002539 -0.016375 
0.000000 0.000000 
-0.007039 -0.048041 
-0.004908 -0.032400 
-0.005490 -0.048035 
-0.002652 -0.048021 
-0.004036 -0.048028 
-0.002813 -0.032435 
-0.001278 -0.176018 
-0.000000 -0.182228 
-0.005771 -0.160939 
-0.003239 -0.168941 
-0.000000 -0.168547 
-0.001604 -0.168649 
-0.001878 -0.160272 
-0.018461 -0.119388 
-0.015267 -0.131184 
-0.009708 -0.130316 
-0.012403 -0.130722 
-0.012479 -0.118586 
-0.011957 -0.142058 
-0.008731 -0.151981 
-0.000000 -0.129514 
-0.002336 -0.129574 
-0.002349 -0.117658 
-0.002096 -0.150934 
-0.002250 -0.140684 
-0.000000 -0.150854 
-0.007196 -0.117987 
-0.004709 -0.129731 
-0.007154 -0.129981 
-0.006428 -0.151510 
-0.006894 -0.141174 
-0.004227 -0.151156 
-0.007351 -0.032342 
-0.008869 -0.063252 
-0.008709 -0.048047 
-0.010531 -0.048057 
-0.013247 -0.063392 
-0.004612 -0.105094 
-0.009516 -0.105454 
-0.007010 -0.105248 
-0.006593 -0.091823 
-0.008085 -0.077864 
-0.018038 -0.106345 
-0.015428 -0.078272 
-0.017030 -0.092616 
-0.014998 -0.106007 
-0.012168 -0.105708 
-0.010353 -0.077976 
-0.011458 -0.092150 
-0.012788 -0.078110 
0.000000 0.000000 
0.000473 -0.016433 
0.001454 -0.016416 
0.000955 -0.016427 
0.000000 0.000000 
0.000915 -0.032446 
0.001314 -0.048014 
0.003803 -0.016309 
0.003143 -0.016345 
0.000000 0.000000 
0.005490 -0.048035 
0.004908 -0.032400 
0.007039 -0.048041 
0.000000 0.000000 
0.002539 -0.016375 
0.001979 -0.016399 
0.002151 -0.091644 
0.002288 -0.104996 
0.001659 -0.063100 
0.001940 -0.077660 
0.005950 -0.077774 
0.003912 -0.077705 
0.005091 -0.063157 
0.002813 -0.032435 
0.004036 -0.048028 
0.002652 -0.048021 
0.015990 -0.019234 
0.012370 -0.017112 
0.000000 0.000000 
0.023614 -0.049013 
0.019708 -0.033293 
0.027652 -0.050048 
0.000000 0.000000 
0.010181 -0.016460 
0.008595 -0.016241 
0.021319 -0.106725 
0.023592 -0.093262 
0.024863 -0.107149 
0.018532 -0.063649 
0.021483 -0.078730 
0.018312 -0.078471 
0.028872 -0.079612 
0.024988 -0.079089 
0.025152 -0.064304 
0.000000 0.000000 
0.005345 -0.016226 
0.004532 -0.016268 
0.007329 -0.016184 
0.006266 -0.016192 
0.000000 0.000000 
0.012541 -0.048079 
0.010335 -0.032290 
0.014783 -0.048131 
0.020221 -0.048497 
0.017316 -0.048247 
0.014193 -0.032391 
0.001278 -0.176018 
0.000907 -0.182334 
0.001878 -0.160272 
0.001604 -0.168649 
0.004942 -0.169414 
0.003239 -0.168941 
0.005771 -0.160939 
0.002349 -0.117658 
0.002336 -0.129574 
0.007154 -0.129981 
0.004709 -0.129731 
0.007196 -0.117987 
0.002250 -0.140684 
0.002096 -0.150934 
0.018324 -0.131683 
0.015267 -0.131184 
0.018461 -0.119388 
0.008731 -0.151981 
0.011957 -0.142058 
0.011168 -0.152546 
0.012479 -0.118586 
0.012403 -0.130722 
0.009708 -0.130316 
0.004227 -0.151156 
0.006894 -0.141174 
0.006428 -0.151510 
0.007351 -0.032342 
0.013247 -0.063392 
0.010531 -0.048057 
0.008709 -0.048047 
0.008869 -0.063252 
0.018038 -0.106345 
0.012168 -0.105708 
0.014998 -0.106007 
0.017030 -0.092616 
0.015428 -0.078272 
0.004612 -0.105094 
0.008085 -0.077864 
0.006593 -0.091823 
0.007010 -0.105248 
0.009516 -0.105454 
0.012788 -0.078110 
0.011458 -0.092150 
0.010353 -0.077976 
0.022987 -0.027729 
0.029092 -0.038496 
0.044185 -0.071334 
0.038127 -0.055781 
0.043898 -0.061684 
0.032501 -0.052073 
0.033680 -0.066231 
0.050245 -0.122030 
0.050749 -0.110717 
0.054975 -0.110855 
0.041655 -0.109477 
0.046249 -0.110167 
0.041695 -0.122070 
0.052865 -0.088096 
0.050087 -0.098585 
0.048011 -0.085515 
0.028686 -0.107627 
0.025337 -0.120314 
0.033168 -0.080397 
0.031390 -0.094267 
0.033162 -0.121275 
0.032783 -0.108172 
0.037129 -0.108792 
0.042893 -0.083270 
0.040451 -0.095989 
0.037871 -0.081574 
0.021525 -0.189960 
0.026580 -0.183320 
0.029138 -0.178908 
0.021383 -0.188509 
0.023978 -0.186459 
0.016743 -0.195285 
0.038747 -0.164786 
0.031376 -0.176213 
0.035843 -0.168608 
0.011948 -0.189315 
0.014095 -0.189902 
0.008468 -0.195705 
0.026720 -0.174044 
0.020235 -0.182631 
0.023721 -0.174421 
0.012294 -0.196734 
0.016402 -0.190064 
0.018844 -0.189653 
0.052493 -0.130971 
0.046470 -0.142512 
0.048768 -0.132608 
0.039906 -0.160477 
0.043480 -0.151789 
0.046772 -0.148868 
0.036471 -0.154906 
0.040024 -0.153734 
0.033376 -0.164334 
0.025751 -0.181108 
0.029775 -0.173058 
0.032834 -0.171305 
0.001835 -0.182706 
0.000479 -0.187549 
0.006746 -0.170043 
0.003958 -0.176890 
0.001600 -0.188697 
0.002838 -0.183330 
0.003949 -0.184166 
0.021590 -0.132198 
0.017665 -0.143176 
0.014965 -0.163597 
0.016529 -0.153826 
0.019480 -0.154458 
0.013761 -0.153173 
0.010064 -0.162137 
0.005422 -0.193406 
0.008202 -0.187383 
0.009981 -0.188435 
0.005199 -0.185165 
0.006611 -0.186263 
0.003173 -0.190821 
0.015454 -0.173252 