# vtk DataFile Version 2.0
Unstructured Grid Example
ASCII
DATASET UNSTRUCTURED_GRID

POINTS 81 float
-0.016953 -0.245317 0.000000 
1.016953 -0.245317 0.000000 
1.000000 1.000000 0.000000 
0.000000 1.000000 0.000000 
0.500000 -0.096808 0.000000 
0.975902 0.316573 0.000000 
0.500000 1.000000 0.000000 
0.024098 0.316573 0.000000 
0.500000 0.312426 0.000000 
0.229260 -0.170198 0.000000 
0.500000 0.069727 0.000000 
0.230962 0.042577 0.000000 
0.770740 -0.170198 0.000000 
0.769038 0.042577 0.000000 
1.013523 0.024382 0.000000 
0.743226 0.309452 0.000000 
0.949621 0.629087 0.000000 
0.729999 0.632640 0.000000 
0.750000 1.000000 0.000000 
0.500000 0.635160 0.000000 
0.250000 1.000000 0.000000 
0.270001 0.632640 0.000000 
0.050379 0.629087 0.000000 
0.256774 0.309452 0.000000 
-0.013523 0.024382 0.000000 
0.107603 -0.228685 0.000000 
0.224055 -0.069829 0.000000 
0.098849 -0.104773 0.000000 
0.500000 -0.022843 0.000000 
0.358508 -0.036373 0.000000 
0.360883 -0.116118 0.000000 
0.369297 0.178689 0.000000 
0.362622 0.061840 0.000000 
0.500000 0.181869 0.000000 
0.639117 -0.116118 0.000000 
0.641492 -0.036373 0.000000 
0.901151 -0.104773 0.000000 
0.775945 -0.069829 0.000000 
0.892397 -0.228685 0.000000 
0.637378 0.061840 0.000000 
0.630703 0.178689 0.000000 
1.023163 -0.113741 0.000000 
0.893463 0.024054 0.000000 
0.860007 0.306775 0.000000 
0.877935 0.160679 0.000000 
0.995641 0.167621 0.000000 
0.756830 0.168768 0.000000 
0.623137 0.313982 0.000000 
0.959192 0.468181 0.000000 
0.846345 0.462509 0.000000 
0.849901 0.811895 0.000000 
0.840614 0.630351 0.000000 
0.955261 0.802471 0.000000 
0.733047 0.464089 0.000000 
0.617046 0.466494 0.000000 
0.875000 1.000000 0.000000 
0.735881 0.812731 0.000000 
0.500000 0.813659 0.000000 
0.618612 0.813002 0.000000 
0.625000 1.000000 0.000000 
0.615776 0.634080 0.000000 
0.500000 0.467213 0.000000 
0.375000 1.000000 0.000000 
0.381388 0.813002 0.000000 
0.150099 0.811895 0.000000 
0.264119 0.812731 0.000000 
0.125000 1.000000 0.000000 
0.384224 0.634080 0.000000 
0.382954 0.466494 0.000000 
0.044739 0.802471 0.000000 
0.159386 0.630351 0.000000 
0.139993 0.306775 0.000000 
0.153655 0.462509 0.000000 
0.040808 0.468181 0.000000 
0.266953 0.464089 0.000000 
0.376863 0.313982 0.000000 
0.004359 0.167621 0.000000 
0.122065 0.160679 0.000000 
0.106537 0.024054 0.000000 
-0.023163 -0.113741 0.000000 
0.243170 0.168768 0.000000 

CELLS 128 512
3  0 25 27 
3  9 26 25 
3  11 27 26 
3  25 26 27 
3  4 28 30 
3  10 29 28 
3  9 30 29 
3  28 29 30 
3  8 31 33 
3  11 32 31 
3  10 33 32 
3  31 32 33 
3  9 29 26 
3  10 32 29 
3  11 26 32 
3  29 32 26 
3  4 34 28 
3  12 35 34 
3  10 28 35 
3  34 35 28 
3  1 36 38 
3  13 37 36 
3  12 38 37 
3  36 37 38 
3  8 33 40 
3  10 39 33 
3  13 40 39 
3  33 39 40 
3  12 37 35 
3  13 39 37 
3  10 35 39 
3  37 39 35 
3  1 41 36 
3  14 42 41 
3  13 36 42 
3  41 42 36 
3  5 43 45 
3  15 44 43 
3  14 45 44 
3  43 44 45 
3  8 40 47 
3  13 46 40 
3  15 47 46 
3  40 46 47 
3  14 44 42 
3  15 46 44 
3  13 42 46 
3  44 46 42 
3  5 48 43 
3  16 49 48 
3  15 43 49 
3  48 49 43 
3  2 50 52 
3  17 51 50 
3  16 52 51 
3  50 51 52 
3  8 47 54 
3  15 53 47 
3  17 54 53 
3  47 53 54 
3  16 51 49 
3  17 53 51 
3  15 49 53 
3  51 53 49 
3  2 55 50 
3  18 56 55 
3  17 50 56 
3  55 56 50 
3  6 57 59 
3  19 58 57 
3  18 59 58 
3  57 58 59 
3  8 54 61 
3  17 60 54 
3  19 61 60 
3  54 60 61 
3  18 58 56 
3  19 60 58 
3  17 56 60 
3  58 60 56 
3  6 62 57 
3  20 63 62 
3  19 57 63 
3  62 63 57 
3  3 64 66 
3  21 65 64 
3  20 66 65 
3  64 65 66 
3  8 61 68 
3  19 67 61 
3  21 68 67 
3  61 67 68 
3  20 65 63 
3  21 67 65 
3  19 63 67 
3  65 67 63 
3  3 69 64 
3  22 70 69 
3  21 64 70 
3  69 70 64 
3  7 71 73 
3  23 72 71 
3  22 73 72 
3  71 72 73 
3  8 68 75 
3  21 74 68 
3  23 75 74 
3  68 74 75 
3  22 72 70 
3  23 74 72 
3  21 70 74 
3  72 74 70 
3  7 76 71 
3  24 77 76 
3  23 71 77 
3  76 77 71 
3  0 27 79 
3  11 78 27 
3  24 79 78 
3  27 78 79 
3  8 75 31 
3  23 80 75 
3  11 31 80 
3  75 80 31 
3  24 78 77 
3  11 80 78 
3  23 77 80 
3  78 80 77 

CELL_TYPES 128
5
5
5
5
5
5
5
5
5
5
5
5
5
5
5
5
5
5
5
5
5
5
5
5
5
5
5
5
5
5
5
5
5
5
5
5
5
5
5
5
5
5
5
5
5
5
5
5
5
5
5
5
5
5
5
5
5
5
5
5
5
5
5
5
5
5
5
5
5
5
5
5
5
5
5
5
5
5
5
5
5
5
5
5
5
5
5
5
5
5
5
5
5
5
5
5
5
5
5
5
5
5
5
5
5
5
5
5
5
5
5
5
5
5
5
5
5
5
5
5
5
5
5
5
5
5
5
5

POINT_DATA 81

SCALARS u_h float 2
LOOKUP_TABLE default
-0.016953 -0.245317 
0.016953 -0.245317 
0.000000 0.000000 
0.000000 0.000000 
0.000000 -0.096808 
-0.024098 -0.183427 
0.000000 0.000000 
0.024098 -0.183427 
0.000000 -0.187574 
-0.020740 -0.170198 
0.000000 -0.180273 
-0.019038 -0.207423 
0.020740 -0.170198 
0.019038 -0.207423 
0.013523 -0.225618 
-0.006774 -0.190548 
-0.050379 -0.120913 
-0.020001 -0.117360 
0.000000 0.000000 
0.000000 -0.114840 
0.000000 0.000000 
0.020001 -0.117360 
0.050379 -0.120913 
0.006774 -0.190548 
-0.013523 -0.225618 
-0.017397 -0.228685 
-0.025945 -0.194829 
-0.026151 -0.229773 
0.000000 -0.147843 
-0.016492 -0.161373 
-0.014117 -0.116118 
-0.005703 -0.196311 
-0.012378 -0.188160 
0.000000 -0.193131 
0.014117 -0.116118 
0.016492 -0.161373 
0.026151 -0.229773 
0.025945 -0.194829 
0.017397 -0.228685 
0.012378 -0.188160 
0.005703 -0.196311 
0.023163 -0.238741 
0.018463 -0.225946 
-0.014993 -0.193225 
0.002935 -0.214321 
-0.004359 -0.207379 
0.006830 -0.206232 
-0.001863 -0.186018 
-0.040808 -0.156819 
-0.028655 -0.162491 
-0.025099 -0.063105 
-0.034386 -0.119649 
-0.044739 -0.072529 
-0.016953 -0.160911 
-0.007954 -0.158506 
0.000000 0.000000 
-0.014119 -0.062269 
0.000000 -0.061341 
-0.006388 -0.061998 
0.000000 0.000000 
-0.009224 -0.115920 
0.000000 -0.157787 
0.000000 0.000000 
0.006388 -0.061998 
0.025099 -0.063105 
0.014119 -0.062269 
0.000000 0.000000 
0.009224 -0.115920 
0.007954 -0.158506 
0.044739 -0.072529 
0.034386 -0.119649 
0.014993 -0.193225 
0.028655 -0.162491 
0.040808 -0.156819 
0.016953 -0.160911 
0.001863 -0.186018 
0.004359 -0.207379 
-0.002935 -0.214321 
-0.018463 -0.225946 
-0.023163 -0.238741 
-0.006830 -0.206232 

CELL_DATA 128

SCALARS epsilon float 4
LOOKUP_TABLE default
0.008295 0.009551 0.000000 0.031969
-0.001132 -0.021351 0.000000 0.270964
-0.013695 -0.072943 0.000000 0.182501
0.023567 0.048897 0.000000 0.105987
0.106628 -0.424435 0.000000 0.129195
0.123349 -0.280628 0.000000 0.072088
0.064091 -0.195691 0.000000 0.331478
0.126496 -0.393366 0.000000 0.077901
0.044586 0.043739 0.000000 0.012157
0.044981 -0.063222 0.000000 0.107471
0.094163 -0.106037 0.000000 0.034878
0.044695 -0.068376 0.000000 0.038991
0.086655 -0.156400 0.000000 0.147209
0.092504 -0.235088 0.000000 0.053672
0.044582 -0.101188 0.000000 0.111373
0.063119 -0.193991 0.000000 0.183745
0.106628 -0.424435 0.000000 -0.129195
0.064091 -0.195691 0.000000 -0.331478
0.123349 -0.280628 0.000000 -0.072088
0.126496 -0.393366 0.000000 -0.077901
0.008295 0.009551 0.000000 -0.031969
-0.013695 -0.072943 0.000000 -0.182501
-0.001132 -0.021351 0.000000 -0.270964
0.023567 0.048897 0.000000 -0.105987
0.044586 0.043739 0.000000 -0.012157
0.094163 -0.106037 0.000000 -0.034878
0.044981 -0.063222 0.000000 -0.107471
0.044695 -0.068376 0.000000 -0.038991
0.086655 -0.156400 0.000000 -0.147209
0.044582 -0.101188 0.000000 -0.111373
0.092504 -0.235088 0.000000 -0.053672
0.063119 -0.193991 0.000000 -0.183745
-0.019568 0.057105 0.000000 -0.008686
-0.037473 0.099717 0.000000 -0.038595
-0.011698 0.031849 0.000000 -0.102760
-0.026698 0.028319 0.000000 -0.066260
-0.054409 0.187025 0.000000 -0.049951
-0.062026 0.152259 0.000000 -0.084321
-0.044081 0.143955 0.000000 -0.050444
-0.044497 0.163134 0.000000 -0.050740
-0.012697 0.079750 0.000000 -0.024789
0.006002 0.004922 0.000000 -0.087704
-0.038606 0.114655 0.000000 -0.072046
0.006114 0.077260 0.000000 -0.066501
-0.032995 0.089024 0.000000 -0.062997
-0.033068 0.113081 0.000000 -0.084241
-0.014247 0.006165 0.000000 -0.122424
-0.032266 0.083038 0.000000 -0.093274
-0.059319 0.202266 0.000000 -0.037516
-0.096787 0.251641 0.000000 -0.022818
-0.065475 0.215054 0.000000 -0.064804
-0.092865 0.221851 0.000000 -0.040077
-0.114909 0.453392 0.000000 0.158477
-0.118882 0.361021 0.000000 0.031690
-0.134887 0.318376 0.000000 0.020281
-0.162803 0.365962 0.000000 0.014606
-0.013687 0.197206 0.000000 -0.018821
-0.040184 0.208091 0.000000 -0.055478
-0.074754 0.291536 0.000000 -0.019357
-0.074467 0.196007 0.000000 -0.033244
-0.135571 0.287499 0.000000 -0.028264
-0.121748 0.291536 0.000000 -0.019534
-0.096220 0.209199 0.000000 -0.048337
-0.097715 0.287441 0.000000 -0.028304
0.008902 0.391749 0.000000 0.089097
0.002842 0.387792 0.000000 0.050231
-0.090785 0.352927 0.000000 0.021079
-0.080016 0.392629 0.000000 0.095427
0.000000 0.383368 0.000000 -0.000000
-0.052407 0.344641 0.000000 -0.001834
0.000583 0.386502 0.000000 0.022744
-0.051570 0.386677 0.000000 0.022215
-0.065643 0.210970 0.000000 -0.002311
-0.089964 0.286354 0.000000 -0.009460
-0.076495 0.288435 0.000000 -0.003194
-0.065657 0.286366 0.000000 -0.007210
-0.060348 0.387948 0.000000 0.052817
-0.076202 0.346941 0.000000 0.008135
-0.088857 0.353108 0.000000 0.019373
-0.063571 0.346820 0.000000 0.010237
0.000000 0.383368 0.000000 -0.000000
0.000583 0.386502 0.000000 -0.022744
-0.052407 0.344641 0.000000 0.001834
-0.051570 0.386677 0.000000 -0.022215
0.008902 0.391749 0.000000 -0.089097
-0.090785 0.352927 0.000000 -0.021079
0.002842 0.387792 0.000000 -0.050231
-0.080016 0.392629 0.000000 -0.095427
-0.065643 0.210970 0.000000 0.002311
-0.076495 0.288435 0.000000 0.003194
-0.089964 0.286354 0.000000 0.009460
-0.065657 0.286366 0.000000 0.007210
-0.060348 0.387948 0.000000 -0.052817
-0.088857 0.353108 0.000000 -0.019373
-0.076202 0.346941 0.000000 -0.008135
-0.063571 0.346820 0.000000 -0.010237
-0.114909 0.453392 0.000000 -0.158477
-0.134887 0.318376 0.000000 -0.020281
-0.118882 0.361021 0.000000 -0.031690
-0.162803 0.365962 0.000000 -0.014606
-0.059319 0.202266 0.000000 0.037516
-0.065475 0.215054 0.000000 0.064804
-0.096787 0.251641 0.000000 0.022818
-0.092865 0.221851 0.000000 0.040077
-0.013687 0.197206 0.000000 0.018821
-0.074754 0.291536 0.000000 0.019357
-0.040184 0.208091 0.000000 0.055478
-0.074467 0.196007 0.000000 0.033244
-0.135571 0.287499 0.000000 0.028264
-0.096220 0.209199 0.000000 0.048337
-0.121748 0.291536 0.000000 0.019534
-0.097715 0.287441 0.000000 0.028304
-0.054409 0.187025 0.000000 0.049951
-0.044081 0.143955 0.000000 0.050444
-0.062026 0.152259 0.000000 0.084321
-0.044497 0.163134 0.000000 0.050740
-0.019568 0.057105 0.000000 0.008686
-0.011698 0.031849 0.000000 0.102760
-0.037473 0.099717 0.000000 0.038595
-0.026698 0.028319 0.000000 0.066260
-0.012697 0.079750 0.000000 0.024789
-0.038606 0.114655 0.000000 0.072046
0.006002 0.004922 0.000000 0.087704
0.006114 0.077260 0.000000 0.066501
-0.032995 0.089024 0.000000 0.062997
-0.014247 0.006165 0.000000 0.122424
-0.033068 0.113081 0.000000 0.084241
-0.032266 0.083038 0.000000 0.093274

SCALARS sigma float 4
LOOKUP_TABLE default
0.159890 0.075189 0.064582 0.518302
-2.216871 -5.704119 -2.176096 4.364023
-1.730619 -3.627594 -1.472036 3.101117
0.660468 0.492685 0.316800 1.696820
-4.220943 -17.201176 -5.885197 1.923589
-0.426217 -8.083150 -2.337738 1.058826
-3.854239 -13.863916 -4.867625 4.988201
-2.487177 -13.673808 -4.439831 1.010552
1.577569 1.559977 0.861963 0.191044
0.336261 -1.654048 -0.362029 1.742755
1.232158 -2.125920 -0.245539 0.524713
0.404263 -1.458076 -0.289509 0.662373
-0.126787 -5.238647 -1.474020 2.118539
-0.437202 -6.402118 -1.878934 0.913819
-0.113256 -2.804333 -0.801535 1.828962
-1.263825 -6.948961 -2.256260 2.946933
-4.220943 -17.201176 -5.885197 -1.923589
-3.854239 -13.863916 -4.867625 -4.988201
-0.426217 -8.083150 -2.337738 -1.058826
-2.487177 -13.673808 -4.439831 -1.010552
0.159890 0.075189 0.064582 -0.518302
-1.730619 -3.627594 -1.472036 -3.101117
-2.216871 -5.704119 -2.176096 -4.364023
0.660468 0.492685 0.316800 -1.696820
1.577569 1.559977 0.861963 -0.191044
1.232158 -2.125920 -0.245539 -0.524713
0.336261 -1.654048 -0.362029 -1.742755
0.404263 -1.458076 -0.289509 -0.662373
-0.126787 -5.238647 -1.474020 -2.118539
-0.113256 -2.804333 -0.801535 -1.828962
-0.437202 -6.402118 -1.878934 -0.913819
-1.263825 -6.948961 -2.256260 -2.946933
-0.020392 1.196719 0.323167 -0.175443
-0.129245 2.103351 0.542337 -0.575419
-0.149500 0.418390 0.073871 -1.691124
-0.511393 0.381323 -0.035733 -1.090889
-0.057724 3.824398 1.034801 -0.583729
-0.517753 3.014483 0.685915 -1.241338
-0.094064 2.987845 0.794995 -0.660273
0.070821 3.431007 0.962041 -0.650101
0.386960 1.881783 0.623281 -0.369459
0.053590 0.061864 0.031718 -1.436031
-0.097971 2.410254 0.635243 -1.104239
0.840268 1.946431 0.765577 -1.055020
-0.224020 1.845681 0.445511 -0.949492
0.030942 2.402047 0.668404 -1.313514
-0.559807 -0.326041 -0.243365 -2.035506
-0.276527 1.661111 0.380380 -1.474214
0.019883 4.148174 1.145071 -0.399561
-0.501335 4.908364 1.210722 -0.219440
0.042448 4.441939 1.231975 -0.922732
-0.706072 4.274655 0.980380 -0.464027
-0.501890 8.396811 2.168934 1.704778
-0.279769 6.953276 1.833381 0.356851
-1.068522 5.911465 1.330479 0.237174
-1.632701 6.495262 1.335868 -0.007316
1.422237 4.627145 1.661918 -0.247349
0.748327 4.571664 1.461536 -0.813922
0.522274 6.034194 1.801228 -0.286031
-0.274575 3.959698 1.012397 -0.492677
-1.335626 5.259257 1.077921 -0.392067
-0.863283 5.509377 1.276399 -0.293514
-0.844454 3.997048 0.866097 -0.688579
-0.191686 5.691219 1.510861 -0.394254
3.354768 8.856587 3.354768 1.094130
3.325101 8.778266 3.325101 0.618226
0.525349 7.119966 2.100361 0.251840
0.847236 7.921451 2.408980 1.158407
3.291859 8.690507 3.291859 -0.000000
1.575355 7.373986 2.458610 -0.031797
3.315419 8.752707 3.315419 0.280123
1.900120 8.219468 2.780106 0.264808
0.130480 4.400916 1.244889 -0.040658
0.046672 5.762094 1.595815 -0.145142
0.453910 5.954213 1.760473 -0.056911
0.745541 6.027644 1.860765 -0.103932
1.590805 8.123968 2.668894 0.646209
0.915724 7.163881 2.219672 0.086877
0.582842 7.144446 2.122881 0.221264
1.274651 7.298083 2.355147 0.125270
3.291859 8.690507 3.291859 -0.000000
3.315419 8.752707 3.315419 -0.280123
1.575355 7.373986 2.458610 0.031797
1.900120 8.219468 2.780106 -0.264808
3.354768 8.856587 3.354768 -1.094130
0.525349 7.119966 2.100361 -0.251840
3.325101 8.778266 3.325101 -0.618226
0.847236 7.921451 2.408980 -1.158407
0.130480 4.400916 1.244889 0.040658
0.453910 5.954213 1.760473 0.056911
0.046672 5.762094 1.595815 0.145142
0.745541 6.027644 1.860765 0.103932
1.590805 8.123968 2.668894 -0.646209
0.582842 7.144446 2.122881 -0.221264
0.915724 7.163881 2.219672 -0.086877
1.274651 7.298083 2.355147 -0.125270
-0.501890 8.396811 2.168934 -1.704778
-1.068522 5.911465 1.330479 -0.237174
-0.279769 6.953276 1.833381 -0.356851
-1.632701 6.495262 1.335868 0.007316
0.019883 4.148174 1.145071 0.399561
0.042448 4.441939 1.231975 0.922732
-0.501335 4.908364 1.210722 0.219440
-0.706072 4.274655 0.980380 0.464027
1.422237 4.627145 1.661918 0.247349
0.522274 6.034194 1.801228 0.286031
0.748327 4.571664 1.461536 0.813922
-0.274575 3.959698 1.012397 0.492677
-1.335626 5.259257 1.077921 0.392067
-0.844454 3.997048 0.866097 0.688579
-0.863283 5.509377 1.276399 0.293514
-0.191686 5.691219 1.510861 0.394254
-0.057724 3.824398 1.034801 0.583729
-0.094064 2.987845 0.794995 0.660273
-0.517753 3.014483 0.685915 1.241338
0.070821 3.431007 0.962041 0.650101
-0.020392 1.196719 0.323167 0.175443
-0.149500 0.418390 0.073871 1.691124
-0.129245 2.103351 0.542337 0.575419
-0.511393 0.381323 -0.035733 1.090889
0.386960 1.881783 0.623281 0.369459
-0.097971 2.410254 0.635243 1.104239
0.053590 0.061864 0.031718 1.436031
0.840268 1.946431 0.765577 1.055020
-0.224020 1.845681 0.445511 0.949492
-0.559807 -0.326041 -0.243365 2.035506
0.030942 2.402047 0.668404 1.313514
-0.276527 1.661111 0.380380 1.474214

