# vtk DataFile Version 2.0
Unstructured Grid Example
ASCII
DATASET UNSTRUCTURED_GRID

POINTS 1089 float
-0.013460 -0.253568 0.000000 
1.013460 -0.253568 0.000000 
1.000000 1.000000 0.000000 
0.000000 1.000000 0.000000 
0.500000 -0.099784 0.000000 
0.976112 0.314891 0.000000 
0.500000 1.000000 0.000000 
0.023888 0.314891 0.000000 
0.500000 0.312395 0.000000 
0.229803 -0.172455 0.000000 
0.500000 0.064649 0.000000 
0.229810 0.039490 0.000000 
0.770197 -0.172455 0.000000 
0.770190 0.039490 0.000000 
1.016281 0.022705 0.000000 
0.743173 0.305649 0.000000 
0.946101 0.628777 0.000000 
0.728385 0.630356 0.000000 
0.750000 1.000000 0.000000 
0.500000 0.632606 0.000000 
0.250000 1.000000 0.000000 
0.271615 0.630356 0.000000 
0.053899 0.628777 0.000000 
0.256827 0.305649 0.000000 
-0.016281 0.022705 0.000000 
0.112742 -0.233171 0.000000 
0.222456 -0.072055 0.000000 
0.096913 -0.106571 0.000000 
0.500000 -0.028566 0.000000 
0.358071 -0.040557 0.000000 
0.357267 -0.119864 0.000000 
0.369905 0.174684 0.000000 
0.362720 0.057419 0.000000 
0.500000 0.178749 0.000000 
0.642733 -0.119864 0.000000 
0.641929 -0.040557 0.000000 
0.903087 -0.106571 0.000000 
0.777544 -0.072055 0.000000 
0.887258 -0.233171 0.000000 
0.637280 0.057419 0.000000 
0.630095 0.174684 0.000000 
1.023793 -0.119377 0.000000 
0.896101 0.022415 0.000000 
0.860528 0.303843 0.000000 
0.879349 0.158401 0.000000 
0.997662 0.166965 0.000000 
0.757070 0.165129 0.000000 
0.622719 0.310599 0.000000 
0.957157 0.467970 0.000000 
0.845051 0.460075 0.000000 
0.846260 0.810155 0.000000 
0.837886 0.628483 0.000000 
0.951117 0.799739 0.000000 
0.732395 0.460957 0.000000 
0.617160 0.463737 0.000000 
0.875000 1.000000 0.000000 
0.734419 0.811603 0.000000 
0.500000 0.812040 0.000000 
0.618142 0.811883 0.000000 
0.625000 1.000000 0.000000 
0.615299 0.631915 0.000000 
0.500000 0.465018 0.000000 
0.375000 1.000000 0.000000 
0.381858 0.811883 0.000000 
0.153740 0.810155 0.000000 
0.265581 0.811603 0.000000 
0.125000 1.000000 0.000000 
0.384701 0.631915 0.000000 
0.382840 0.463737 0.000000 
0.048883 0.799739 0.000000 
0.162114 0.628483 0.000000 
0.139472 0.303843 0.000000 
0.154949 0.460075 0.000000 
0.042843 0.467970 0.000000 
0.267605 0.460957 0.000000 
0.377281 0.310599 0.000000 
0.002338 0.166965 0.000000 
0.120651 0.158401 0.000000 
0.103899 0.022415 0.000000 
-0.023793 -0.119377 0.000000 
0.242930 0.165129 0.000000 
0.049307 -0.245895 0.000000 
0.100739 -0.170005 0.000000 
0.040326 -0.181941 0.000000 
0.223454 -0.123163 0.000000 
0.160892 -0.148854 0.000000 
0.172633 -0.206812 0.000000 
0.160722 -0.031554 0.000000 
0.158447 -0.090843 0.000000 
0.225006 -0.017950 0.000000 
0.500000 -0.067081 0.000000 
0.427998 -0.071028 0.000000 
0.427564 -0.104938 0.000000 
0.429614 0.012962 0.000000 
0.428590 -0.031654 0.000000 
0.500000 0.015386 0.000000 
0.291038 -0.143035 0.000000 
0.357334 -0.082440 0.000000 
0.289007 -0.100295 0.000000 
0.436637 0.242587 0.000000 
0.434728 0.177703 0.000000 
0.500000 0.243278 0.000000 
0.295484 0.049263 0.000000 
0.366155 0.113662 0.000000 
0.300432 0.107571 0.000000 
0.500000 0.119142 0.000000 
0.432824 0.117717 0.000000 
0.431068 0.062769 0.000000 
0.289170 -0.054485 0.000000 
0.359918 0.006016 0.000000 
0.291532 -0.004730 0.000000 
0.572436 -0.104938 0.000000 
0.572002 -0.071028 0.000000 
0.710993 -0.100295 0.000000 
0.642666 -0.082440 0.000000 
0.708962 -0.143035 0.000000 
0.571410 -0.031654 0.000000 
0.570386 0.012962 0.000000 
0.959674 -0.181941 0.000000 
0.899261 -0.170005 0.000000 
0.950693 -0.245895 0.000000 
0.774994 -0.017950 0.000000 
0.841553 -0.090843 0.000000 
0.839278 -0.031554 0.000000 
0.827367 -0.206812 0.000000 
0.839108 -0.148854 0.000000 
0.776546 -0.123163 0.000000 
0.565272 0.177703 0.000000 
0.563363 0.242587 0.000000 
0.568932 0.062769 0.000000 
0.567176 0.117717 0.000000 
0.699568 0.107571 0.000000 
0.633845 0.113662 0.000000 
0.704516 0.049263 0.000000 
0.710830 -0.054485 0.000000 
0.708468 -0.004730 0.000000 
0.640082 0.006016 0.000000 
1.020607 -0.188289 0.000000 
0.963650 -0.116012 0.000000 
0.956752 0.019412 0.000000 
0.962252 -0.048866 0.000000 
1.022045 -0.048689 0.000000 
0.901455 -0.042698 0.000000 
0.834033 0.029824 0.000000 
0.918373 0.307000 0.000000 
0.928576 0.232528 0.000000 
0.986852 0.240295 0.000000 
0.810377 0.230671 0.000000 
0.869849 0.229847 0.000000 
0.802208 0.303831 0.000000 
1.007775 0.094539 0.000000 
0.938868 0.159907 0.000000 
0.948564 0.088939 0.000000 
0.626305 0.240380 0.000000 
0.561525 0.312208 0.000000 
0.763994 0.100473 0.000000 
0.694117 0.170198 0.000000 
0.683326 0.308196 0.000000 
0.688580 0.237101 0.000000 
0.749970 0.233517 0.000000 
0.888377 0.089332 0.000000 
0.818808 0.160699 0.000000 
0.826925 0.093807 0.000000 
0.965981 0.390534 0.000000 
0.908980 0.383508 0.000000 
0.894926 0.543686 0.000000 
0.900948 0.462318 0.000000 
0.950256 0.547318 0.000000 
0.852091 0.380526 0.000000 
0.794915 0.380234 0.000000 
0.914393 0.902902 0.000000 
0.899258 0.806970 0.000000 
0.965096 0.892102 0.000000 
0.783579 0.629409 0.000000 
0.839561 0.717680 0.000000 
0.785443 0.718976 0.000000 
0.945816 0.712675 0.000000 
0.892607 0.715476 0.000000 
0.891755 0.627925 0.000000 
0.619565 0.385127 0.000000 
0.559891 0.386332 0.000000 
0.737166 0.381480 0.000000 
0.678709 0.383344 0.000000 
0.672859 0.545115 0.000000 
0.675113 0.462389 0.000000 
0.729313 0.543980 0.000000 
0.840053 0.542664 0.000000 
0.784992 0.543012 0.000000 
0.788985 0.459948 0.000000 
0.937500 1.000000 0.000000 
0.858640 0.904929 0.000000 
0.741340 0.905228 0.000000 
0.800543 0.905246 0.000000 
0.812500 1.000000 0.000000 
0.791127 0.811232 0.000000 
0.730021 0.719745 0.000000 
0.500000 0.905120 0.000000 
0.560671 0.905101 0.000000 
0.562500 1.000000 0.000000 
0.558198 0.720926 0.000000 
0.559185 0.811969 0.000000 
0.500000 0.721065 0.000000 
0.687500 1.000000 0.000000 
0.621210 0.905117 0.000000 
0.681485 0.905163 0.000000 
0.558702 0.464667 0.000000 
0.500000 0.386704 0.000000 
0.672243 0.631215 0.000000 
0.615683 0.546126 0.000000 
0.500000 0.547111 0.000000 
0.557977 0.546823 0.000000 
0.557793 0.632391 0.000000 
0.676642 0.811772 0.000000 
0.616119 0.720661 0.000000 
0.673488 0.720273 0.000000 
0.437500 1.000000 0.000000 
0.439329 0.905101 0.000000 
0.318515 0.905163 0.000000 
0.378790 0.905117 0.000000 
0.312500 1.000000 0.000000 
0.440815 0.811969 0.000000 
0.441802 0.720926 0.000000 
0.085607 0.902902 0.000000 
0.141360 0.904929 0.000000 
0.062500 1.000000 0.000000 
0.269979 0.719745 0.000000 
0.208873 0.811232 0.000000 
0.214557 0.718976 0.000000 
0.187500 1.000000 0.000000 
0.199457 0.905246 0.000000 
0.258660 0.905228 0.000000 
0.441298 0.464667 0.000000 
0.440109 0.386332 0.000000 
0.442207 0.632391 0.000000 
0.442023 0.546823 0.000000 
0.327141 0.545115 0.000000 
0.384317 0.546126 0.000000 
0.327757 0.631215 0.000000 
0.323358 0.811772 0.000000 
0.326512 0.720273 0.000000 
0.383881 0.720661 0.000000 
0.034904 0.892102 0.000000 
0.100742 0.806970 0.000000 
0.108245 0.627925 0.000000 
0.107393 0.715476 0.000000 
0.054184 0.712675 0.000000 
0.160439 0.717680 0.000000 
0.216421 0.629409 0.000000 
0.081627 0.307000 0.000000 
0.091020 0.383508 0.000000 
0.034019 0.390534 0.000000 
0.205085 0.380234 0.000000 
0.147909 0.380526 0.000000 
0.197792 0.303831 0.000000 
0.049744 0.547318 0.000000 
0.099052 0.462318 0.000000 
0.105074 0.543686 0.000000 
0.380435 0.385127 0.000000 
0.438475 0.312208 0.000000 
0.270687 0.543980 0.000000 
0.324887 0.462389 0.000000 
0.316674 0.308196 0.000000 
0.321291 0.383344 0.000000 
0.262834 0.381480 0.000000 
0.159947 0.542664 0.000000 
0.211015 0.459948 0.000000 
0.215008 0.543012 0.000000 
0.013148 0.240295 0.000000 
0.071424 0.232528 0.000000 
0.051436 0.088939 0.000000 
0.061132 0.159907 0.000000 
-0.007775 0.094539 0.000000 
0.130151 0.229847 0.000000 
0.189623 0.230671 0.000000 
0.036350 -0.116012 0.000000 
-0.020607 -0.188289 0.000000 
0.165967 0.029824 0.000000 
0.098545 -0.042698 0.000000 
-0.022045 -0.048689 0.000000 
0.037748 -0.048866 0.000000 
0.043248 0.019412 0.000000 
0.373695 0.240380 0.000000 
0.250030 0.233517 0.000000 
0.311420 0.237101 0.000000 
0.305883 0.170198 0.000000 
0.236006 0.100473 0.000000 
0.111623 0.089332 0.000000 
0.173075 0.093807 0.000000 
0.181192 0.160699 0.000000 
0.017753 -0.249886 0.000000 
0.044373 -0.214266 0.000000 
0.013510 -0.218126 0.000000 
0.105467 -0.201720 0.000000 
0.075084 -0.209053 0.000000 
0.081100 -0.240599 0.000000 
0.067842 -0.144613 0.000000 
0.070641 -0.176954 0.000000 
0.098011 -0.138293 0.000000 
0.225873 -0.147859 0.000000 
0.195081 -0.162458 0.000000 
0.200926 -0.188993 0.000000 
0.190260 -0.108951 0.000000 
0.191759 -0.135893 0.000000 
0.222403 -0.097950 0.000000 
0.143559 -0.222620 0.000000 
0.165027 -0.177734 0.000000 
0.135390 -0.191517 0.000000 
0.194858 0.004457 0.000000 
0.192574 -0.024868 0.000000 
0.227187 0.010338 0.000000 
0.127459 -0.099400 0.000000 
0.159128 -0.061417 0.000000 
0.127921 -0.068650 0.000000 
0.223383 -0.045403 0.000000 
0.190931 -0.053506 0.000000 
0.190089 -0.081513 0.000000 
0.130714 -0.160663 0.000000 
0.158914 -0.119944 0.000000 
0.128272 -0.130014 0.000000 
0.500000 -0.084198 0.000000 
0.463787 -0.085335 0.000000 
0.463665 -0.101080 0.000000 
0.464054 -0.049404 0.000000 
0.463911 -0.068081 0.000000 
0.500000 -0.048518 0.000000 
0.392008 -0.111256 0.000000 
0.427792 -0.088698 0.000000 
0.392227 -0.094199 0.000000 
0.465106 0.038808 0.000000 
0.464762 0.014763 0.000000 
0.500000 0.039358 0.000000 
0.393169 -0.035415 0.000000 
0.429044 -0.009997 0.000000 
0.393810 -0.013325 0.000000 
0.500000 -0.007259 0.000000 
0.464472 -0.007961 0.000000 
0.464237 -0.029354 0.000000 
0.259789 -0.157085 0.000000 
0.289812 -0.121964 0.000000 
0.257412 -0.134308 0.000000 
0.357285 -0.101700 0.000000 
0.323114 -0.111024 0.000000 
0.323559 -0.130542 0.000000 
0.322903 -0.069319 0.000000 
0.322836 -0.090645 0.000000 
0.357570 -0.062070 0.000000 
0.428249 -0.052002 0.000000 
0.392716 -0.056256 0.000000 
0.392425 -0.075852 0.000000 
[...]
POINT_DATA 1089

SCALARS u_h float 2
LOOKUP_TABLE default
-0.013460 -0.253568 
0.013460 -0.253568 
0.000000 0.000000 
0.000000 0.000000 
0.000000 -0.099784 
-0.023888 -0.185109 
0.000000 0.000000 
0.023888 -0.185109 
0.000000 -0.187605 
-0.020197 -0.172455 
0.000000 -0.185351 
-0.020190 -0.210510 
0.020197 -0.172455 
0.020190 -0.210510 
0.016281 -0.227295 
-0.006827 -0.194351 
-0.053899 -0.121223 
-0.021615 -0.119644 
0.000000 0.000000 
0.000000 -0.117394 
0.000000 0.000000 
0.021615 -0.119644 
0.053899 -0.121223 
0.006827 -0.194351 
-0.016281 -0.227295 
-0.012258 -0.233171 
-0.027544 -0.197055 
-0.028087 -0.231571 
0.000000 -0.153566 
-0.016929 -0.165557 
-0.017733 -0.119864 
-0.005095 -0.200316 
-0.012280 -0.192581 
0.000000 -0.196251 
0.017733 -0.119864 
0.016929 -0.165557 
0.028087 -0.231571 
0.027544 -0.197055 
0.012258 -0.233171 
0.012280 -0.192581 
0.005095 -0.200316 
0.023793 -0.244377 
0.021101 -0.227585 
-0.014472 -0.196157 
0.004349 -0.216599 
-0.002338 -0.208035 
0.007070 -0.209871 
-0.002281 -0.189401 
-0.042843 -0.157030 
-0.029949 -0.164925 
-0.028740 -0.064845 
-0.037114 -0.121517 
-0.048883 -0.075261 
-0.017605 -0.164043 
-0.007840 -0.161263 
0.000000 0.000000 
-0.015581 -0.063397 
0.000000 -0.062960 
-0.006858 -0.063117 
0.000000 0.000000 
-0.009701 -0.118085 
0.000000 -0.159982 
0.000000 0.000000 
0.006858 -0.063117 
0.028740 -0.064845 
0.015581 -0.063397 
0.000000 0.000000 
0.009701 -0.118085 
0.007840 -0.161263 
0.048883 -0.075261 
0.037114 -0.121517 
0.014472 -0.196157 
0.029949 -0.164925 
0.042843 -0.157030 
0.017605 -0.164043 
0.002281 -0.189401 
0.002338 -0.208035 
-0.004349 -0.216599 
-0.021101 -0.227585 
-0.023793 -0.244377 
-0.007070 -0.209871 
-0.013193 -0.245895 
-0.024261 -0.232505 
-0.022174 -0.244441 
-0.026546 -0.185663 
-0.026608 -0.211354 
-0.014867 -0.206812 
-0.026778 -0.219054 
-0.029053 -0.215843 
-0.024994 -0.205450 
0.000000 -0.129581 
-0.009502 -0.133528 
-0.009936 -0.104938 
-0.007886 -0.174538 
-0.008910 -0.156654 
0.000000 -0.172114 
-0.021462 -0.143035 
-0.017666 -0.144940 
-0.023493 -0.162795 
-0.000863 -0.194913 
-0.002772 -0.197297 
0.000000 -0.194222 
-0.017016 -0.200737 
-0.008845 -0.198838 
-0.012068 -0.204929 
0.000000 -0.193358 
-0.004676 -0.194783 
-0.006432 -0.187231 
-0.023330 -0.179485 
-0.015082 -0.181484 
-0.020968 -0.192230 
0.009936 -0.104938 
0.009502 -0.133528 
0.023493 -0.162795 
0.017666 -0.144940 
0.021462 -0.143035 
0.008910 -0.156654 
0.007886 -0.174538 
0.022174 -0.244441 
0.024261 -0.232505 
0.013193 -0.245895 
0.024994 -0.205450 
0.029053 -0.215843 
0.026778 -0.219054 
0.014867 -0.206812 
0.026608 -0.211354 
0.026546 -0.185663 
0.002772 -0.197297 
0.000863 -0.194913 
0.006432 -0.187231 
0.004676 -0.194783 
0.012068 -0.204929 
0.008845 -0.198838 
0.017016 -0.200737 
0.023330 -0.179485 
0.020968 -0.192230 
0.015082 -0.181484 
0.020607 -0.250789 
0.026150 -0.241012 
0.019252 -0.230588 
0.024752 -0.236366 
0.022045 -0.236189 
0.026455 -0.230198 
0.021533 -0.220176 
-0.019127 -0.193000 
-0.008924 -0.204972 
-0.013148 -0.197205 
-0.002123 -0.206829 
-0.005151 -0.207653 
-0.010292 -0.196169 
0.007775 -0.217961 
0.001368 -0.215093 
0.011064 -0.223561 
0.001305 -0.197120 
-0.000975 -0.187792 
0.013994 -0.212027 
0.006617 -0.204802 
-0.004174 -0.191804 
0.001080 -0.200399 
-0.000030 -0.203983 
0.013377 -0.223168 
0.006308 -0.214301 
0.014425 -0.218693 
-0.034019 -0.171966 
-0.028520 -0.178992 
-0.042574 -0.143814 
-0.036552 -0.162682 
-0.049744 -0.140182 
-0.022909 -0.181974 
-0.017585 -0.182266 
-0.023107 -0.034598 
-0.038242 -0.068030 
-0.034904 -0.045398 
-0.028921 -0.120591 
-0.035439 -0.094820 
-0.027057 -0.093524 
-0.054184 -0.099825 
-0.044893 -0.097024 
-0.045745 -0.122075 
-0.005435 -0.177373 
-0.002609 -0.176168 
-0.012834 -0.181020 
-0.008791 -0.179156 
-0.014641 -0.142385 
-0.012387 -0.162611 
-0.020687 -0.143520 
-0.034947 -0.144836 
-0.027508 -0.144488 
-0.023515 -0.165052 
0.000000 0.000000 
-0.016360 -0.032571 
-0.008660 -0.032272 
-0.011957 -0.032254 
0.000000 0.000000 
-0.021373 -0.063768 
-0.019979 -0.092755 
0.000000 -0.032380 
-0.001829 -0.032399 
0.000000 0.000000 
-0.004302 -0.091574 
-0.003315 -0.063031 
0.000000 -0.091435 
0.000000 0.000000 
-0.003790 -0.032383 
-0.006015 -0.032337 
-0.003798 -0.160333 
0.000000 -0.175796 
-0.015257 -0.118785 
-0.009317 -0.141374 
0.000000 -0.140389 
-0.004523 -0.140677 
-0.004707 -0.117609 
-0.010858 -0.063228 
-0.008881 -0.091839 
-0.014012 -0.092227 
0.000000 0.000000 
0.001829 -0.032399 
0.006015 -0.032337 
0.003790 -0.032383 
0.000000 0.000000 
0.003315 -0.063031 
0.004302 -0.091574 
0.023107 -0.034598 
0.016360 -0.032571 
0.000000 0.000000 
0.019979 -0.092755 
0.021373 -0.063768 
0.027057 -0.093524 
0.000000 0.000000 
0.011957 -0.032254 
0.008660 -0.032272 
0.003798 -0.160333 
0.002609 -0.176168 
0.004707 -0.117609 
0.004523 -0.140677 
0.014641 -0.142385 
0.009317 -0.141374 
0.015257 -0.118785 
0.010858 -0.063228 
0.014012 -0.092227 
0.008881 -0.091839 
0.034904 -0.045398 
0.038242 -0.068030 
0.045745 -0.122075 
0.044893 -0.097024 
0.054184 -0.099825 
0.035439 -0.094820 
0.028921 -0.120591 
0.019127 -0.193000 
0.028520 -0.178992 
0.034019 -0.171966 
0.017585 -0.182266 
0.022909 -0.181974 
0.010292 -0.196169 
0.049744 -0.140182 
0.036552 -0.162682 
0.042574 -0.143814 
0.005435 -0.177373 
0.000975 -0.187792 
0.020687 -0.143520 
0.012387 -0.162611 
0.004174 -0.191804 
0.008791 -0.179156 
0.012834 -0.181020 
0.034947 -0.144836 
0.023515 -0.165052 
0.027508 -0.144488 
0.013148 -0.197205 
0.008924 -0.204972 
-0.011064 -0.223561 
-0.001368 -0.215093 
-0.007775 -0.217961 
0.005151 -0.207653 
0.002123 -0.206829 
-0.026150 -0.241012 
-0.020607 -0.250789 
-0.021533 -0.220176 
-0.026455 -0.230198 
-0.022045 -0.236189 
-0.024752 -0.236366 
-0.019252 -0.230588 
-0.001305 -0.197120 
0.000030 -0.203983 
-0.001080 -0.200399 
-0.006617 -0.204802 
-0.013994 -0.212027 
-0.013377 -0.223168 
-0.014425 -0.218693 
-0.006308 -0.214301 
-0.013497 -0.249886 
-0.018127 -0.245516 
-0.017740 -0.249376 
-0.019533 -0.232970 
-0.018666 -0.240303 
-0.012650 -0.240599 
-0.025908 -0.238363 
-0.023109 -0.239454 
-0.026989 -0.232043 
-0.024127 -0.179109 
-0.023669 -0.193708 
-0.017824 -0.188993 
-0.028490 -0.202701 
-0.026991 -0.198393 
-0.027597 -0.191700 
-0.012691 -0.222620 
-0.022473 -0.208984 
-0.020860 -0.222767 
-0.023892 -0.214293 
-0.026176 -0.212368 
-0.022813 -0.208412 
-0.028791 -0.224400 
-0.028372 -0.217667 
-0.028329 -0.224900 
-0.026617 -0.201653 
-0.027819 -0.209756 
-0.028661 -0.206513 
-0.025536 -0.223163 
-0.028586 -0.213694 
-0.027978 -0.223764 
0.000000 -0.115448 
-0.004963 -0.116585 
-0.005085 -0.101080 
-0.004696 -0.143154 
-0.004839 -0.130581 
0.000000 -0.142268 
-0.014242 -0.111256 
-0.009708 -0.119948 
-0.014023 -0.125449 
-0.003644 -0.179942 
-0.003988 -0.172737 
0.000000 -0.179392 
-0.013081 -0.160415 
-0.008456 -0.166247 
-0.012440 -0.169575 
0.000000 -0.163509 
-0.004278 -0.164211 
-0.004513 -0.154354 
-0.021461 -0.157085 
-0.022688 -0.153214 
-0.023838 -0.165558 
-0.017715 -0.132950 
-0.020636 -0.142274 
-0.020191 -0.130542 
-0.020847 -0.163069 
-0.020914 -0.153145 
-0.017430 -0.155820 
-0.009251 -0.145752 
-0.013534 -0.150006 
-0.013825 -0.138352 
-0.000017 -0.191504 
-0.000470 -0.194367 
0.000000 -0.191455 
-0.004013 -0.198582 
-0.001811 -0.196708 
-0.002574 -0.197806 
0.000000 -0.195836 
-0.000939 -0.196044 
-0.001418 -0.196511 
-0.018820 -0.205517 
-0.014633 -0.203374 
-0.016125 -0.207475 
-0.010621 -0.196312 
-0.012783 -0.199602 
-0.014818 -0.196370 
-0.008315 -0.202620 
-0.010599 -0.201683 
-0.006991 -0.200169 
0.000000 -0.190002 
-0.002827 -0.190423 
-0.003254 -0.185834 
-0.001899 -0.195744 
-0.002372 -0.193721 
0.000000 -0.195434 
-0.009463 -0.189502 
-0.005582 -0.191644 
-0.008201 -0.193629 
-0.005448 -0.198155 
-0.006853 -0.196509 
-0.003733 -0.196662 
-0.025372 -0.173703 
-0.020370 -0.171963 
-0.023715 -0.171597 
-0.025982 -0.181219 
-0.025744 -0.187932 
-0.007206 -0.181531 
-0.013782 -0.187639 
-0.010610 -0.184120 
-0.011611 -0.177478 
-0.016142 -0.174119 
-0.021222 -0.202568 
-0.024789 -0.193754 
-0.023244 -0.198642 
-0.019151 -0.197020 
-0.016651 -0.191985 
-0.019483 -0.179768 
-0.018225 -0.186449 
-0.022389 -0.186377 
0.005085 -0.101080 
0.004963 -0.116585 
0.014023 -0.125449 
0.009708 -0.119948 
0.014242 -0.111256 
0.004839 -0.130581 
0.004696 -0.143154 
0.023838 -0.165558 
0.022688 -0.153214 
0.021461 -0.157085 
0.017430 -0.155820 
0.020914 -0.153145 
0.020847 -0.163069 
0.020191 -0.130542 
0.020636 -0.142274 
0.017715 -0.132950 
0.003988 -0.172737 
0.003644 -0.179942 
0.004513 -0.154354 
0.004278 -0.164211 
0.012440 -0.169575 
0.008456 -0.166247 
0.013081 -0.160415 
0.013825 -0.138352 
0.013534 -0.150006 
0.009251 -0.145752 
0.017740 -0.249376 
0.018127 -0.245516 
0.013497 -0.249886 
0.026989 -0.232043 
0.023109 -0.239454 
0.025908 -0.238363 
0.012650 -0.240599 
0.018666 -0.240303 
0.019533 -0.232970 
0.022813 -0.208412 
0.026176 -0.212368 
0.023892 -0.214293 
0.028661 -0.206513 
0.027819 -0.209756 
0.026617 -0.201653 
0.028329 -0.224900 
0.028372 -0.217667 
0.028791 -0.224400 
0.017824 -0.188993 
0.023669 -0.193708 
0.024127 -0.179109 
0.020860 -0.222767 
0.022473 -0.208984 
0.012691 -0.222620 
0.027597 -0.191700 
0.026991 -0.198393 
0.028490 -0.202701 
0.027978 -0.223764 
0.028586 -0.213694 
0.025536 -0.223163 
0.000470 -0.194367 
0.000017 -0.191504 
0.001418 -0.196511 
0.000939 -0.196044 
0.002574 -0.197806 
0.001811 -0.196708 
0.004013 -0.198582 
0.003254 -0.185834 
0.002827 -0.190423 
0.008201 -0.193629 
0.005582 -0.191644 
0.009463 -0.189502 
0.002372 -0.193721 
0.001899 -0.195744 
0.016125 -0.207475 
0.014633 -0.203374 
0.018820 -0.205517 
0.006991 -0.200169 
0.010599 -0.201683 
0.008315 -0.202620 
0.014818 -0.196370 
0.012783 -0.199602 
0.010621 -0.196312 
0.003733 -0.196662 
0.006853 -0.196509 
0.005448 -0.198155 
0.025372 -0.173703 
0.025744 -0.187932 
0.025982 -0.181219 
0.023715 -0.171597 
0.020370 -0.171963 
0.021222 -0.202568 
0.016651 -0.191985 
0.019151 -0.197020 
0.023244 -0.198642 
0.024789 -0.193754 
0.007206 -0.181531 
0.016142 -0.174119 
0.011611 -0.177478 
0.010610 -0.184120 
0.013782 -0.187639 
0.022389 -0.186377 
0.018225 -0.186449 
0.019483 -0.179768 
0.017328 -0.252744 
0.021401 -0.248018 
0.025067 -0.243394 
0.023906 -0.245969 
0.022828 -0.247912 
0.024881 -0.242901 
0.027162 -0.237109 
0.017899 -0.229850 
0.021144 -0.233612 
0.019585 -0.231800 
0.023433 -0.232051 
0.022422 -0.233623 
0.020329 -0.229758 
0.023498 -0.240415 
0.023538 -0.237144 
0.024902 -0.240423 
0.024450 -0.219915 
0.021096 -0.215484 
0.027833 -0.230993 
0.026840 -0.225122 
0.021520 -0.224304 
0.024515 -0.224953 
0.024151 -0.229088 
0.026056 -0.238828 
0.025732 -0.234005 
0.027040 -0.235673 
-0.021523 -0.189768 
-0.016305 -0.195994 
-0.018577 -0.191337 
-0.011913 -0.201243 
-0.014071 -0.199229 
-0.016760 -0.195062 
-0.007706 -0.202755 
-0.011001 -0.201822 
-0.005678 -0.207271 
-0.004774 -0.200931 
-0.006274 -0.201903 
-0.008461 -0.195414 
-0.000386 -0.212434 
-0.003529 -0.207583 
0.000979 -0.212052 
-0.012304 -0.196469 
-0.007980 -0.202394 
-0.009870 -0.202234 
0.012295 -0.222687 
0.009523 -0.221634 
0.013973 -0.225861 
-0.000417 -0.212369 
0.004685 -0.217146 
0.002857 -0.213089 
0.007783 -0.220451 
0.006342 -0.219521 
0.002971 -0.216430 
-0.006961 -0.206849 
-0.001974 -0.211903 
-0.003751 -0.210253 
-0.000067 -0.191931 
-0.000464 -0.187454 
0.003189 -0.199294 
0.001150 -0.195845 
-0.001569 -0.188464 
-0.000237 -0.192721 
-0.000529 -0.193814 
0.017221 -0.211721 
0.013210 -0.208433 
0.006990 -0.207333 
0.010144 -0.208386 
0.010587 -0.211413 
0.009378 -0.205404 
0.005975 -0.202422 
-0.005399 -0.193109 
-0.002440 -0.198154 
-0.003495 -0.199634 
-0.000975 -0.195140 
-0.001605 -0.196619 
-0.003140 -0.190540 
0.003511 -0.207395 
0.000645 -0.202212 
0.003806 -0.205273 
0.003621 -0.201100 
0.003836 -0.203131 
0.001292 -0.198667 
0.015413 -0.227242 
0.008969 -0.220168 
0.012361 -0.223993 
0.016587 -0.227085 
0.017462 -0.225627 
-0.000953 -0.205573 
0.006844 -0.212254 
0.002941 -0.209346 
0.002094 -0.210958 
0.005471 -0.215818 
0.017899 -0.215902 
0.017998 -0.223110 
0.018154 -0.219783 
0.014401 -0.215518 
0.010689 -0.214308 
0.009866 -0.218900 
0.010446 -0.216873 
0.014075 -0.221321 
-0.029090 -0.178759 
-0.026552 -0.183155 
-0.035741 -0.168489 
-0.031311 -0.176072 
-0.038628 -0.164727 
-0.023957 -0.186269 
-0.021366 -0.188293 
-0.048517 -0.132521 
-0.046259 -0.142426 
-0.052225 -0.130982 
-0.033258 -0.164142 
-0.039861 -0.153585 
-0.036318 -0.154720 
-0.046580 -0.148856 
-0.043305 -0.151698 
-0.039768 -0.160374 
-0.014075 -0.189627 
-0.011926 -0.189030 
-0.018827 -0.189413 
-0.016385 -0.189804 
-0.023648 -0.174177 
-0.020190 -0.182378 
-0.026642 -0.173818 
-0.032744 -0.171140 
-0.029691 -0.172859 
-0.025701 -0.180900 
-0.015290 -0.018755 
-0.028420 -0.038132 
-0.022452 -0.026361 
-0.033213 -0.066039 
-0.031926 -0.051848 
-0.027166 -0.049870 
-0.043277 -0.061254 
-0.037497 -0.055466 
-0.043631 -0.071080 
-0.025146 -0.120111 
-0.028440 -0.107434 
-0.024650 -0.106962 
-0.036829 -0.108595 
-0.032509 -0.107974 
-0.032923 -0.121069 
-0.028542 -0.079441 
-0.031083 -0.094080 
-0.032789 -0.080213 
-0.054613 -0.110860 
-0.050404 -0.110601 
-0.049951 -0.121934 
-0.047535 -0.085321 
-0.049682 -0.098437 
-0.052376 -0.088016 
-0.041422 -0.121884 
-0.045914 -0.109999 
-0.041335 -0.109287 
-0.037449 -0.081379 
-0.040080 -0.095796 
-0.042438 -0.083066 
-0.001851 -0.182527 
-0.000938 -0.182227 
-0.003940 -0.183912 
-0.002839 -0.183105 
-0.004952 -0.169203 
-0.003971 -0.176674 
-0.006743 -0.169811 
-0.009957 -0.188145 
-0.008179 -0.187093 
-0.012981 -0.172195 
-0.010722 -0.180117 
-0.015402 -0.172983 
-0.006590 -0.185978 
-0.005182 -0.184892 
-0.018205 -0.131475 
-0.017566 -0.142952 
-0.021448 -0.131984 
-0.010037 -0.161902 
-0.013701 -0.152941 
-0.011125 -0.152323 
-0.019386 -0.154215 
-0.016452 -0.153587 
-0.014907 -0.163344 
-0.007034 -0.178219 
-0.010737 -0.171359 
-0.008663 -0.170545 
-0.044579 -0.133327 
-0.036442 -0.133592 
-0.040518 -0.133628 
-0.038774 -0.144560 
-0.032749 -0.155273 
-0.024909 -0.132486 
-0.022504 -0.154772 
-0.024005 -0.144049 
-0.028581 -0.132951 
-0.032440 -0.133338 
-0.015126 -0.181772 
-0.026684 -0.165185 
-0.020755 -0.174076 
-0.017998 -0.173641 
-0.020479 -0.164639 
-0.031171 -0.144777 
-0.025792 -0.155190 
-0.029221 -0.155389 
0.000000 0.000000 
-0.012030 -0.016990 
-0.008444 -0.016216 
-0.009969 -0.016414 
0.000000 0.000000 
-0.019292 -0.033167 
-0.023231 -0.048878 
-0.004480 -0.016253 
-0.005278 -0.016211 
0.000000 0.000000 
-0.014602 -0.048055 
-0.010207 -0.032248 
-0.012399 -0.048011 
0.000000 0.000000 
-0.006180 -0.016176 
-0.007217 -0.016165 
-0.023363 -0.093096 
-0.021137 -0.106547 
-0.024820 -0.064160 
-0.024709 -0.078934 
-0.018123 -0.078342 
-0.021252 -0.078590 
-0.018316 -0.063539 
-0.013974 -0.032332 
-0.017085 -0.048160 
-0.019924 -0.048392 
0.000000 -0.016401 
-0.000467 -0.016408 
0.000000 0.000000 
-0.001301 -0.047935 
-0.000905 -0.032395 
0.000000 -0.047911 
0.000000 0.000000 
-0.000944 -0.016406 
-0.001439 -0.016397 
-0.002272 -0.104821 
-0.002134 -0.091489 
0.000000 -0.104757 
-0.005044 -0.063071 
-0.003878 -0.077588 
-0.005898 -0.077664 
0.000000 -0.077485 
-0.001923 -0.077529 
-0.001643 -0.062994 
0.000000 0.000000 
-0.003112 -0.016329 
-0.003763 -0.016293 
-0.001960 -0.016381 
-0.002514 -0.016359 
0.000000 0.000000 
-0.006971 -0.047982 
-0.004861 -0.032364 
-0.005438 -0.047976 
-0.002626 -0.047953 
-0.003998 -0.047966 
-0.002785 -0.032395 
-0.001304 -0.175876 
0.000000 -0.182204 
-0.005771 -0.160731 
-0.003257 -0.168753 
0.000000 -0.168381 
-0.001620 -0.168478 
-0.001886 -0.160082 
-0.018323 -0.119199 
-0.015170 -0.130983 
-0.009654 -0.130128 
-0.012328 -0.130529 
-0.012392 -0.118411 
-0.011898 -0.141850 
-0.008705 -0.151769 
0.000000 -0.129291 
-0.002326 -0.129373 
-0.002336 -0.117468 
-0.002097 -0.150733 
-0.002245 -0.140479 
0.000000 -0.150637 
-0.007150 -0.117816 
-0.004687 -0.129542 
-0.007118 -0.129796 
-0.006415 -0.151307 
-0.006869 -0.140978 
-0.004224 -0.150958 
-0.007273 -0.032305 
-0.008785 -0.063169 
-0.008621 -0.047987 
-0.010419 -0.047994 
-0.013110 -0.063301 
-0.004579 -0.104934 
-0.009444 -0.105302 
-0.006958 -0.105094 
-0.006540 -0.091691 
-0.008014 -0.077757 
-0.017887 -0.106176 
-0.015275 -0.078152 
-0.016873 -0.092470 
-0.014876 -0.105845 
-0.012072 -0.105553 
-0.010259 -0.077868 
-0.011360 -0.092018 
-0.012667 -0.077998 
0.000000 0.000000 
0.000467 -0.016408 
0.001439 -0.016397 
0.000944 -0.016406 
0.000000 0.000000 
0.000905 -0.032395 
0.001301 -0.047935 
0.003763 -0.016293 
0.003112 -0.016329 
0.000000 0.000000 
0.005438 -0.047976 
0.004861 -0.032364 
0.006971 -0.047982 
0.000000 0.000000 
0.002514 -0.016359 
0.001960 -0.016381 
0.002134 -0.091489 
0.002272 -0.104821 
0.001643 -0.062994 
0.001923 -0.077529 
0.005898 -0.077664 
0.003878 -0.077588 
0.005044 -0.063071 
0.002785 -0.032395 
0.003998 -0.047966 
0.002626 -0.047953 
0.015290 -0.018755 
0.012030 -0.016990 
0.000000 0.000000 
0.023231 -0.048878 
0.019292 -0.033167 
0.027166 -0.049870 
0.000000 0.000000 
0.009969 -0.016414 
0.008444 -0.016216 
0.021137 -0.106547 
0.023363 -0.093096 
0.024650 -0.106962 
0.018316 -0.063539 
0.021252 -0.078590 
0.018123 -0.078342 
0.028542 -0.079441 
0.024709 -0.078934 
0.024820 -0.064160 
0.000000 0.000000 
0.005278 -0.016211 
0.004480 -0.016253 
0.007217 -0.016165 
0.006180 -0.016176 
0.000000 0.000000 
0.012399 -0.048011 
0.010207 -0.032248 
0.014602 -0.048055 
0.019924 -0.048392 
0.017085 -0.048160 
0.013974 -0.032332 
0.001304 -0.175876 
0.000938 -0.182227 
0.001886 -0.160082 
0.001620 -0.168478 
0.004952 -0.169203 
0.003257 -0.168753 
0.005771 -0.160731 
0.002336 -0.117468 
0.002326 -0.129373 
0.007118 -0.129796 
0.004687 -0.129542 
0.007150 -0.117816 
0.002245 -0.140479 
0.002097 -0.150733 
0.018205 -0.131475 
0.015170 -0.130983 
0.018323 -0.119199 
0.008705 -0.151769 
0.011898 -0.141850 
0.011125 -0.152323 
0.012392 -0.118411 
0.012328 -0.130529 
0.009654 -0.130128 
0.004224 -0.150958 
0.006869 -0.140978 
0.006415 -0.151307 
0.007273 -0.032305 
0.013110 -0.063301 
0.010419 -0.047994 
0.008621 -0.047987 
0.008785 -0.063169 
0.017887 -0.106176 
0.012072 -0.105553 
0.014876 -0.105845 
0.016873 -0.092470 
0.015275 -0.078152 
0.004579 -0.104934 
0.008014 -0.077757 
0.006540 -0.091691 
0.006958 -0.105094 
0.009444 -0.105302 
0.012667 -0.077998 
0.011360 -0.092018 
0.010259 -0.077868 
0.022452 -0.026361 
0.028420 -0.038132 
0.043631 -0.071080 
0.037497 -0.055466 
0.043277 -0.061254 
0.031926 -0.051848 
0.033213 -0.066039 
0.049951 -0.121934 
0.050404 -0.110601 
0.054613 -0.110860 
0.041335 -0.109287 
0.045914 -0.109999 
0.041422 -0.121884 
0.052376 -0.088016 
0.049682 -0.098437 
0.047535 -0.085321 
0.028440 -0.107434 
0.025146 -0.120111 
0.032789 -0.080213 
0.031083 -0.094080 
0.032923 -0.121069 
0.032509 -0.107974 
0.036829 -0.108595 
0.042438 -0.083066 
0.040080 -0.095796 
0.037449 -0.081379 
0.021523 -0.189768 
0.026552 -0.183155 
0.029090 -0.178759 
0.021366 -0.188293 
0.023957 -0.186269 
0.016760 -0.195062 
0.038628 -0.164727 
0.031311 -0.176072 
0.035741 -0.168489 
0.011926 -0.189030 
0.014075 -0.189627 
0.008461 -0.195414 
0.026642 -0.173818 
0.020190 -0.182378 
0.023648 -0.174177 
0.012304 -0.196469 
0.016385 -0.189804 
0.018827 -0.189413 
0.052225 -0.130982 
0.046259 -0.142426 
0.048517 -0.132521 
0.039768 -0.160374 
0.043305 -0.151698 
0.046580 -0.148856 
0.036318 -0.154720 
0.039861 -0.153585 
0.033258 -0.164142 
0.025701 -0.180900 
0.029691 -0.172859 
0.032744 -0.171140 
0.001851 -0.182527 
0.000464 -0.187454 
0.006743 -0.169811 
0.003971 -0.176674 
0.001569 -0.188464 
0.002839 -0.183105 
0.003940 -0.183912 
0.021448 -0.131984 
0.017566 -0.142952 
0.014907 -0.163344 
0.016452 -0.153587 
0.019386 -0.154215 
0.013701 -0.152941 
0.010037 -0.161902 
0.005399 -0.193109 
0.008179 -0.187093 
0.009957 -0.188145 
0.005182 -0.184892 
0.006590 -0.185978 
0.003140 -0.190540 
0.015402 -0.172983 
0.010722 -0.180117 
0.012981 -0.172195 