# vtk DataFile Version 2.0
Unstructured Grid Example
ASCII
DATASET UNSTRUCTURED_GRID

POINTS 25 float
-0.028093 -0.226973 0.000000 
1.028093 -0.226973 0.000000 
1.000000 1.000000 0.000000 
0.000000 1.000000 0.000000 
0.500000 -0.087180 0.000000 
0.975687 0.323792 0.000000 
0.500000 1.000000 0.000000 
0.024313 0.323792 0.000000 
0.500000 0.315094 0.000000 
0.221155 -0.165335 0.000000 
0.500000 0.077383 0.000000 
0.232884 0.048866 0.000000 
0.778845 -0.165335 0.000000 
0.767116 0.048866 0.000000 
1.012101 0.033704 0.000000 
0.741955 0.316409 0.000000 
0.954611 0.632174 0.000000 
0.731902 0.637095 0.000000 
0.750000 1.000000 0.000000 
0.500000 0.639396 0.000000 
0.250000 1.000000 0.000000 
0.268098 0.637095 0.000000 
0.045389 0.632174 0.000000 
0.258045 0.316409 0.000000 
-0.012101 0.033704 0.000000 

CELLS 32 128
3  0 9 11 
3  4 10 9 
3  8 11 10 
3  9 10 11 
3  4 12 10 
3  1 13 12 
3  8 10 13 
3  12 13 10 
3  1 14 13 
3  5 15 14 
3  8 13 15 
3  14 15 13 
3  5 16 15 
3  2 17 16 
3  8 15 17 
3  16 17 15 
3  2 18 17 
3  6 19 18 
3  8 17 19 
3  18 19 17 
3  6 20 19 
3  3 21 20 
3  8 19 21 
3  20 21 19 
3  3 22 21 
3  7 23 22 
3  8 21 23 
3  22 23 21 
3  7 24 23 
3  0 11 24 
3  8 23 11 
3  24 11 23 

CELL_TYPES 32
5
5
5
5
5
5
5
5
5
5
5
5
5
5
5
5
5
5
5
5
5
5
5
5
5
5
5
5
5
5
5
5

POINT_DATA 25

SCALARS u_h float 2
LOOKUP_TABLE default
-0.028093 -0.226973 
0.028093 -0.226973 
0.000000 0.000000 
0.000000 0.000000 
-0.000000 -0.087180 
-0.024313 -0.176208 
0.000000 0.000000 
0.024313 -0.176208 
-0.000000 -0.184906 
-0.028845 -0.165335 
-0.000000 -0.172617 
-0.017116 -0.201134 
0.028845 -0.165335 
0.017116 -0.201134 
0.012101 -0.216296 
-0.008045 -0.183591 
-0.045389 -0.117826 
-0.018098 -0.112905 
0.000000 0.000000 
-0.000000 -0.110604 
0.000000 0.000000 
0.018098 -0.112905 
0.045389 -0.117826 
0.008045 -0.183591 
-0.012101 -0.216296 

CELL_DATA 32

SCALARS epsilon float 4
LOOKUP_TABLE default
-0.015094 -0.123575 0.000000 0.166577
0.108794 -0.293754 0.000000 0.234924
0.066130 -0.044056 0.000000 0.059736
0.061618 -0.151001 0.000000 0.087627
0.108794 -0.293754 0.000000 -0.234924
-0.015094 -0.123575 0.000000 -0.166577
0.066130 -0.044056 0.000000 -0.059736
0.061618 -0.151001 0.000000 -0.087627
-0.022089 0.039775 0.000000 -0.061657
-0.054296 0.151986 0.000000 -0.063663
-0.027471 0.068243 0.000000 -0.049314
-0.021436 0.063599 0.000000 -0.079481
-0.062371 0.209644 0.000000 -0.031525
-0.102810 0.374190 0.000000 0.084733
-0.032003 0.244884 0.000000 -0.017716
-0.115096 0.244202 0.000000 -0.029033
0.001243 0.359512 0.000000 0.032693
0.000000 0.353757 0.000000 0.000000
-0.074996 0.255390 0.000000 -0.003527
-0.073061 0.359982 0.000000 0.032084
0.000000 0.353757 0.000000 0.000000
0.001243 0.359512 0.000000 -0.032693
-0.074996 0.255390 0.000000 0.003527
-0.073061 0.359982 0.000000 -0.032084
-0.102810 0.374190 0.000000 -0.084733
-0.062371 0.209644 0.000000 0.031525
-0.032003 0.244884 0.000000 0.017716
-0.115096 0.244202 0.000000 0.029033
-0.054296 0.151986 0.000000 0.063663
-0.022089 0.039775 0.000000 0.061657
-0.027471 0.068243 0.000000 0.049314
-0.021436 0.063599 0.000000 0.079481

SCALARS sigma float 4
LOOKUP_TABLE default
-2.274630 -5.003017 -1.999354 2.855748
-2.460911 -12.672000 -4.157393 3.491577
1.174679 -0.723985 0.123817 0.920676
-0.193577 -4.007655 -1.154184 1.450439
-2.460911 -12.672000 -4.157393 -3.491577
-2.274630 -5.003017 -1.999354 -2.855748
1.174679 -0.723985 0.123817 -0.920676
-0.193577 -4.007655 -1.154184 -1.450439
-0.270069 0.741239 0.129442 -1.003846
-0.309974 3.084330 0.762185 -0.874271
-0.203377 1.416478 0.333270 -0.754779
-0.097141 1.322231 0.336563 -1.268528
0.134043 4.371156 1.237692 -0.388625
0.067235 7.310601 2.026878 1.009985
1.332372 5.491859 1.874789 -0.230823
-1.056859 4.571628 0.965596 -0.430085
3.111154 8.213446 3.111154 0.408932
3.067184 8.097366 3.067184 0.000000
0.230840 5.268195 1.510724 -0.062739
1.068340 7.447359 2.339478 0.384591
3.067184 8.097366 3.067184 0.000000
3.111154 8.213446 3.111154 -0.408932
0.230840 5.268195 1.510724 0.062739
1.068340 7.447359 2.339478 -0.384591
0.067235 7.310601 2.026878 -1.009985
0.134043 4.371156 1.237692 0.388625
1.332372 5.491859 1.874789 0.230823
-1.056859 4.571628 0.965596 0.430085
-0.309974 3.084330 0.762185 0.874271
-0.270069 0.741239 0.129442 1.003846
-0.203377 1.416478 0.333270 0.754779
-0.097141 1.322231 0.336563 1.268528

