# vtk DataFile Version 2.0
Unstructured Grid Example
ASCII
DATASET UNSTRUCTURED_GRID

POINTS 9 float
0.017935 -0.268044 0.000000 
0.982065 -0.268044 0.000000 
1.000000 1.000000 0.000000 
0.000000 1.000000 0.000000 
0.500000 -0.061322 0.000000 
0.959140 0.309487 0.000000 
0.500000 1.000000 0.000000 
0.040860 0.309487 0.000000 
0.500000 0.339833 0.000000 

CELLS 8 32
3  0 4 8 
3  4 1 8 
3  1 5 8 
3  5 2 8 
3  2 6 8 
3  6 3 8 
3  3 7 8 
3  7 0 8 

CELL_TYPES 8
5
5
5
5
5
5
5
5

POINT_DATA 9

SCALARS u_h float 2
LOOKUP_TABLE default
0.017935 -0.268044 
-0.017935 -0.268044 
0.000000 0.000000 
0.000000 0.000000 
0.000000 -0.061322 
-0.040860 -0.190513 
0.000000 0.000000 
0.040860 -0.190513 
0.000000 -0.160167 

CELL_DATA 8

SCALARS epsilon float 4
LOOKUP_TABLE default
-0.036512 -0.073206 0.000000 0.257301
-0.036512 -0.073206 0.000000 -0.257301
-0.086699 0.142322 0.000000 -0.050581
-0.079099 0.318701 0.000000 0.019224
0.000000 0.272048 0.000000 -0.000000
0.000000 0.272048 0.000000 -0.000000
-0.079099 0.318701 0.000000 -0.019224
-0.086699 0.142322 0.000000 0.050581

SCALARS sigma float 4
LOOKUP_TABLE default
-3.446193 -6.877019 -2.836047 4.382797
-3.446193 -6.877019 -2.836047 -4.382797
-1.105337 2.565392 0.401114 -0.825836
0.549820 6.510751 1.939717 0.135440
2.426163 6.405070 2.426163 -0.000000
2.426163 6.405070 2.426163 -0.000000
0.549820 6.510751 1.939717 -0.135440
-1.105337 2.565392 0.401114 0.825836

