# vtk DataFile Version 2.0
Unstructured Grid Example
ASCII
DATASET UNSTRUCTURED_GRID

POINTS 1089 float
0.007998 -0.329646 0.000000 
0.992002 -0.329646 0.000000 
1.000000 1.000000 0.000000 
0.000000 1.000000 0.000000 
0.500000 -0.100000 0.000000 
0.956678 0.264926 0.000000 
0.500000 1.000000 0.000000 
0.043322 0.264926 0.000000 
0.500000 0.269358 0.000000 
0.260229 -0.298349 0.000000 
0.500000 0.002061 0.000000 
0.243275 -0.035154 0.000000 
0.739771 -0.298349 0.000000 
0.756725 -0.035154 0.000000 
0.990287 -0.048969 0.000000 
0.733551 0.259819 0.000000 
0.931512 0.602338 0.000000 
0.722176 0.608695 0.000000 
0.750000 1.000000 0.000000 
0.500000 0.612242 0.000000 
0.250000 1.000000 0.000000 
0.277824 0.608695 0.000000 
0.068488 0.602338 0.000000 
0.266449 0.259819 0.000000 
0.009713 -0.048969 0.000000 
0.133652 -0.322102 0.000000 
0.240337 -0.168425 0.000000 
0.123261 -0.190833 0.000000 
0.500000 -0.090711 0.000000 
0.360298 -0.124092 0.000000 
0.368409 -0.231591 0.000000 
0.374587 0.118715 0.000000 
0.366651 -0.011124 0.000000 
0.500000 0.124759 0.000000 
0.631591 -0.231591 0.000000 
0.639702 -0.124092 0.000000 
0.876739 -0.190833 0.000000 
0.759663 -0.168425 0.000000 
0.866348 -0.322102 0.000000 
0.633349 -0.011124 0.000000 
0.625413 0.118715 0.000000 
0.995842 -0.195805 0.000000 
0.874253 -0.050221 0.000000 
0.845755 0.256088 0.000000 
0.861748 0.098329 0.000000 
0.975378 0.105205 0.000000 
0.745847 0.106152 0.000000 
0.618222 0.266665 0.000000 
0.939972 0.429942 0.000000 
0.832393 0.424464 0.000000 
0.840185 0.798842 0.000000 
0.827712 0.604983 0.000000 
0.940819 0.784830 0.000000 
0.724276 0.427393 0.000000 
0.613279 0.431584 0.000000 
0.875000 1.000000 0.000000 
0.731021 0.801339 0.000000 
0.500000 0.802319 0.000000 
0.616599 0.802034 0.000000 
0.625000 1.000000 0.000000 
0.612390 0.611227 0.000000 
0.500000 0.433403 0.000000 
0.375000 1.000000 0.000000 
0.383401 0.802034 0.000000 
0.159815 0.798842 0.000000 
0.268979 0.801339 0.000000 
0.125000 1.000000 0.000000 
0.387610 0.611227 0.000000 
0.386721 0.431584 0.000000 
0.059181 0.784830 0.000000 
0.172288 0.604983 0.000000 
0.154245 0.256088 0.000000 
0.167607 0.424464 0.000000 
0.060028 0.429942 0.000000 
0.275724 0.427393 0.000000 
0.381778 0.266665 0.000000 
0.024622 0.105205 0.000000 
0.138252 0.098329 0.000000 
0.125747 -0.050221 0.000000 
0.004158 -0.195805 0.000000 
0.254153 0.106152 0.000000 
0.070381 -0.326694 0.000000 
0.127204 -0.257988 0.000000 
0.066356 -0.262441 0.000000 
0.245918 -0.233945 0.000000 
0.187267 -0.249183 0.000000 
0.197350 -0.313412 0.000000 
0.181424 -0.114178 0.000000 
0.182080 -0.182409 0.000000 
0.240191 -0.102399 0.000000 
0.500000 -0.117108 0.000000 
0.423845 -0.142435 0.000000 
0.417380 -0.182620 0.000000 
0.429709 -0.054989 0.000000 
0.426942 -0.101772 0.000000 
0.500000 -0.048998 0.000000 
0.319365 -0.273345 0.000000 
0.360504 -0.176746 0.000000 
0.302949 -0.209964 0.000000 
0.438856 0.193600 0.000000 
0.436857 0.123170 0.000000 
0.500000 0.194632 0.000000 
0.303795 -0.023339 0.000000 
0.370625 0.051521 0.000000 
0.308509 0.042874 0.000000 
0.500000 0.060339 0.000000 
0.434659 0.057967 0.000000 
0.432279 -0.001590 0.000000 
0.298985 -0.148366 0.000000 
0.362970 -0.069437 0.000000 
0.300195 -0.086723 0.000000 
0.582620 -0.182620 0.000000 
0.576155 -0.142435 0.000000 
0.697051 -0.209964 0.000000 
0.639496 -0.176746 0.000000 
0.680635 -0.273345 0.000000 
0.573058 -0.101772 0.000000 
0.570291 -0.054989 0.000000 
0.933644 -0.262441 0.000000 
0.872796 -0.257988 0.000000 
0.929619 -0.326694 0.000000 
0.759809 -0.102399 0.000000 
0.817920 -0.182409 0.000000 
0.818576 -0.114178 0.000000 
0.802650 -0.313412 0.000000 
0.812733 -0.249183 0.000000 
0.754082 -0.233945 0.000000 
0.563143 0.123170 0.000000 
0.561144 0.193600 0.000000 
0.567721 -0.001590 0.000000 
0.565341 0.057967 0.000000 
0.691491 0.042874 0.000000 
0.629375 0.051521 0.000000 
0.696205 -0.023339 0.000000 
0.701015 -0.148366 0.000000 
0.699805 -0.086723 0.000000 
0.637030 -0.069437 0.000000 
0.994653 -0.264713 0.000000 
0.936207 -0.194856 0.000000 
0.932442 -0.051869 0.000000 
0.935859 -0.124506 0.000000 
0.994472 -0.123592 0.000000 
0.877137 -0.121484 0.000000 
0.815812 -0.044476 0.000000 
0.901229 0.258206 0.000000 
0.910100 0.177783 0.000000 
0.966117 0.184344 0.000000 
0.797061 0.177549 0.000000 
0.853810 0.175968 0.000000 
0.789956 0.257036 0.000000 
0.983690 0.027408 0.000000 
0.918764 0.099328 0.000000 
0.926482 0.022778 0.000000 
0.621640 0.190464 0.000000 
0.559344 0.268929 0.000000 
0.751774 0.034147 0.000000 
0.686332 0.112544 0.000000 
0.676330 0.263352 0.000000 
0.681160 0.185994 0.000000 
0.739594 0.181291 0.000000 
0.868836 0.022995 0.000000 
0.804203 0.100991 0.000000 
0.810712 0.027100 0.000000 
0.947696 0.346571 0.000000 
0.892963 0.340705 0.000000 
0.881148 0.512842 0.000000 
0.886009 0.425501 0.000000 
0.934256 0.515129 0.000000 
0.838399 0.338857 0.000000 
0.783616 0.339621 0.000000 
0.909982 0.896803 0.000000 
0.891238 0.794403 0.000000 
0.958386 0.883500 0.000000 
0.775478 0.606963 0.000000 
0.831151 0.700273 0.000000 
0.778908 0.702494 0.000000 
0.933042 0.691951 0.000000 
0.882058 0.696679 0.000000 
0.879376 0.603068 0.000000 
0.615334 0.347113 0.000000 
0.557814 0.348815 0.000000 
0.728287 0.341842 0.000000 
0.672206 0.344592 0.000000 
0.667570 0.518240 0.000000 
0.669165 0.429620 0.000000 
0.722059 0.516407 0.000000 
0.828517 0.513102 0.000000 
0.775648 0.514548 0.000000 
0.778616 0.425432 0.000000 
0.937500 1.000000 0.000000 
0.855505 0.899531 0.000000 
0.739640 0.900276 0.000000 
0.798228 0.900135 0.000000 
0.812500 1.000000 0.000000 
0.786544 0.800578 0.000000 
0.725095 0.703879 0.000000 
0.500000 0.900385 0.000000 
0.560299 0.900353 0.000000 
0.562500 1.000000 0.000000 
0.557086 0.705926 0.000000 
0.558432 0.802216 0.000000 
0.500000 0.706124 0.000000 
0.687500 1.000000 0.000000 
0.620444 0.900331 0.000000 
0.680287 0.900311 0.000000 
0.556790 0.432911 0.000000 
0.500000 0.349369 0.000000 
0.667755 0.610128 0.000000 
0.612239 0.519760 0.000000 
0.500000 0.521172 0.000000 
0.556281 0.520773 0.000000 
0.556364 0.611943 0.000000 
0.674234 0.801759 0.000000 
0.613849 0.705496 0.000000 
0.669963 0.704827 0.000000 
0.437500 1.000000 0.000000 
0.439701 0.900353 0.000000 
0.319713 0.900311 0.000000 
0.379556 0.900331 0.000000 
0.312500 1.000000 0.000000 
0.441568 0.802216 0.000000 
0.442914 0.705926 0.000000 
0.090018 0.896803 0.000000 
0.144495 0.899531 0.000000 
0.062500 1.000000 0.000000 
0.274905 0.703879 0.000000 
0.213456 0.800578 0.000000 
0.221092 0.702494 0.000000 
0.187500 1.000000 0.000000 
0.201772 0.900135 0.000000 
0.260360 0.900276 0.000000 
0.443210 0.432911 0.000000 
0.442186 0.348815 0.000000 
0.443636 0.611943 0.000000 
0.443719 0.520773 0.000000 
0.332430 0.518240 0.000000 
0.387761 0.519760 0.000000 
0.332245 0.610128 0.000000 
0.325766 0.801759 0.000000 
0.330037 0.704827 0.000000 
0.386151 0.705496 0.000000 
0.041614 0.883500 0.000000 
0.108762 0.794403 0.000000 
0.120624 0.603068 0.000000 
0.117942 0.696679 0.000000 
0.066958 0.691951 0.000000 
0.168849 0.700273 0.000000 
0.224522 0.606963 0.000000 
0.098771 0.258206 0.000000 
0.107037 0.340705 0.000000 
0.052304 0.346571 0.000000 
0.216384 0.339621 0.000000 
0.161601 0.338857 0.000000 
0.210044 0.257036 0.000000 
0.065744 0.515129 0.000000 
0.113991 0.425501 0.000000 
0.118852 0.512842 0.000000 
0.384666 0.347113 0.000000 
0.440656 0.268929 0.000000 
0.277941 0.516407 0.000000 
0.330835 0.429620 0.000000 
0.323670 0.263352 0.000000 
0.327794 0.344592 0.000000 
0.271713 0.341842 0.000000 
0.171483 0.513102 0.000000 
0.221384 0.425432 0.000000 
0.224352 0.514548 0.000000 
0.033883 0.184344 0.000000 
0.089900 0.177783 0.000000 
0.073518 0.022778 0.000000 
0.081236 0.099328 0.000000 
0.016310 0.027408 0.000000 
0.146190 0.175968 0.000000 
0.202939 0.177549 0.000000 
0.063793 -0.194856 0.000000 
0.005347 -0.264713 0.000000 
0.184188 -0.044476 0.000000 
0.122863 -0.121484 0.000000 
0.005528 -0.123592 0.000000 
0.064141 -0.124506 0.000000 
0.067558 -0.051869 0.000000 
0.378360 0.190464 0.000000 
0.260406 0.181291 0.000000 
0.318840 0.185994 0.000000 
0.313668 0.112544 0.000000 
0.248226 0.034147 0.000000 
0.131164 0.022995 0.000000 
0.189288 0.027100 0.000000 
0.195797 0.100991 0.000000 
0.039098 -0.328164 0.000000 
0.068350 -0.295008 0.000000 
0.037416 -0.296400 0.000000 
0.130266 -0.290503 0.000000 
0.099316 -0.293150 0.000000 
0.101913 -0.324777 0.000000 
0.094859 -0.227319 0.000000 
0.096841 -0.260629 0.000000 
0.124810 -0.224722 0.000000 
0.251759 -0.266449 0.000000 
0.222034 -0.275085 0.000000 
0.229009 -0.306848 0.000000 
0.213278 -0.209477 0.000000 
0.216804 -0.242507 0.000000 
0.242265 -0.201230 0.000000 
0.165506 -0.318401 0.000000 
0.191759 -0.281750 0.000000 
0.161119 -0.286793 0.000000 
0.211835 -0.074726 0.000000 
0.210733 -0.108839 0.000000 
0.241429 -0.068985 0.000000 
0.152761 -0.187250 0.000000 
0.181252 -0.148461 0.000000 
0.151985 -0.153027 0.000000 
0.239748 -0.135510 0.000000 
0.210472 -0.142633 0.000000 
0.211246 -0.176170 0.000000 
0.157373 -0.254256 0.000000 
0.184049 -0.216009 0.000000 
0.154554 -0.221022 0.000000 
0.500000 -0.118437 0.000000 
0.456544 -0.139803 0.000000 
0.448196 -0.151804 0.000000 
0.461510 -0.111975 0.000000 
0.459741 -0.127194 0.000000 
0.500000 -0.106568 0.000000 
0.391902 -0.208098 0.000000 
0.421637 -0.161735 0.000000 
0.391199 -0.182786 0.000000 
0.465286 -0.025653 0.000000 
0.464538 -0.050571 0.000000 
0.500000 -0.024465 0.000000 
0.392837 -0.112219 0.000000 
0.428350 -0.079221 0.000000 
0.394247 -0.087457 0.000000 
0.500000 -0.071238 0.000000 
0.463704 -0.073426 0.000000 
0.462734 -0.093982 0.000000 
0.290591 -0.287425 0.000000 
0.308749 -0.241388 0.000000 
0.280721 -0.255402 0.000000 
0.363008 -0.203402 0.000000 
0.335931 -0.223810 0.000000 
0.345307 -0.254693 0.000000 
0.329439 -0.165250 0.000000 
0.331358 -0.194207 0.000000 
0.359841 -0.150502 0.000000 
0.425472 -0.122733 0.000000 
0.391730 -0.136022 0.000000 
[...]
POINT_DATA 1089

SCALARS u_h float 2
LOOKUP_TABLE default
0.007998 -0.329646 
-0.007998 -0.329646 
0.000000 0.000000 
0.000000 0.000000 
-0.000000 -0.100000 
-0.043322 -0.235074 
0.000000 0.000000 
0.043322 -0.235074 
-0.000000 -0.230642 
0.010229 -0.298349 
0.000000 -0.247939 
-0.006725 -0.285154 
-0.010229 -0.298349 
0.006725 -0.285154 
-0.009713 -0.298969 
-0.016449 -0.240181 
-0.068488 -0.147662 
-0.027824 -0.141305 
0.000000 0.000000 
0.000000 -0.137758 
0.000000 0.000000 
0.027824 -0.141305 
0.068488 -0.147662 
0.016449 -0.240181 
0.009713 -0.298969 
0.008652 -0.322102 
-0.009663 -0.293425 
-0.001739 -0.315833 
0.000000 -0.215711 
-0.014702 -0.249092 
-0.006591 -0.231591 
-0.000413 -0.256285 
-0.008349 -0.261124 
0.000000 -0.250241 
0.006591 -0.231591 
0.014702 -0.249092 
0.001739 -0.315833 
0.009663 -0.293425 
-0.008652 -0.322102 
0.008349 -0.261124 
0.000413 -0.256285 
-0.004158 -0.320805 
-0.000747 -0.300221 
-0.029245 -0.243912 
-0.013252 -0.276671 
-0.024622 -0.269795 
-0.004153 -0.268848 
-0.006778 -0.233335 
-0.060028 -0.195058 
-0.042607 -0.200536 
-0.034815 -0.076158 
-0.047288 -0.145017 
-0.059181 -0.090170 
-0.025724 -0.197607 
-0.011721 -0.193416 
0.000000 0.000000 
-0.018979 -0.073661 
0.000000 -0.072681 
-0.008401 -0.072966 
0.000000 0.000000 
-0.012610 -0.138773 
0.000000 -0.191597 
0.000000 0.000000 
0.008401 -0.072966 
0.034815 -0.076158 
0.018979 -0.073661 
0.000000 0.000000 
0.012610 -0.138773 
0.011721 -0.193416 
0.059181 -0.090170 
0.047288 -0.145017 
0.029245 -0.243912 
0.042607 -0.200536 
0.060028 -0.195058 
0.025724 -0.197607 
0.006778 -0.233335 
0.024622 -0.269795 
0.013252 -0.276671 
0.000747 -0.300221 
0.004158 -0.320805 
0.004153 -0.268848 
0.007881 -0.326694 
0.002204 -0.320488 
0.003856 -0.324941 
-0.004082 -0.296445 
-0.000233 -0.311683 
0.009850 -0.313412 
-0.006076 -0.301678 
-0.005420 -0.307409 
-0.009809 -0.289899 
0.000000 -0.179608 
-0.013655 -0.204935 
-0.020120 -0.182620 
-0.007791 -0.242489 
-0.010558 -0.226772 
0.000000 -0.236498 
0.006865 -0.273345 
-0.014496 -0.239246 
-0.009551 -0.272464 
0.001356 -0.243900 
-0.000643 -0.251830 
-0.000000 -0.242868 
-0.008705 -0.273339 
-0.004375 -0.260979 
-0.003991 -0.269626 
0.000000 -0.252161 
-0.002841 -0.254533 
-0.005221 -0.251590 
-0.013515 -0.273366 
-0.012030 -0.256937 
-0.012305 -0.274223 
0.020120 -0.182620 
0.013655 -0.204935 
0.009551 -0.272464 
0.014496 -0.239246 
-0.006865 -0.273345 
0.010558 -0.226772 
0.007791 -0.242489 
-0.003856 -0.324941 
-0.002204 -0.320488 
-0.007881 -0.326694 
0.009809 -0.289899 
0.005420 -0.307409 
0.006076 -0.301678 
-0.009850 -0.313412 
0.000233 -0.311683 
0.004082 -0.296445 
0.000643 -0.251830 
-0.001356 -0.243900 
0.005221 -0.251590 
0.002841 -0.254533 
0.003991 -0.269626 
0.004375 -0.260979 
0.008705 -0.273339 
0.013515 -0.273366 
0.012305 -0.274223 
0.012030 -0.256937 
-0.005347 -0.327213 
-0.001293 -0.319856 
-0.005058 -0.301869 
-0.001641 -0.312006 
-0.005528 -0.311092 
0.002137 -0.308984 
0.003312 -0.294476 
-0.036271 -0.241794 
-0.027400 -0.259717 
-0.033883 -0.253156 
-0.015439 -0.259951 
-0.021190 -0.261532 
-0.022544 -0.242964 
-0.016310 -0.285092 
-0.018736 -0.275672 
-0.011018 -0.289722 
-0.003360 -0.247036 
-0.003156 -0.231071 
0.001774 -0.278353 
-0.001168 -0.262456 
-0.011170 -0.236648 
-0.006340 -0.251506 
-0.010406 -0.256209 
-0.006164 -0.289505 
-0.008297 -0.274009 
-0.001788 -0.285400 
-0.052304 -0.215929 
-0.044537 -0.221795 
-0.056352 -0.174658 
-0.051491 -0.199499 
-0.065744 -0.172371 
-0.036601 -0.223643 
-0.028884 -0.222879 
-0.027518 -0.040697 
-0.046262 -0.080597 
-0.041614 -0.054000 
-0.037022 -0.143037 
-0.043849 -0.112227 
-0.033592 -0.110006 
-0.066958 -0.120549 
-0.055442 -0.115821 
-0.058124 -0.146932 
-0.009666 -0.215387 
-0.004686 -0.213685 
-0.021713 -0.220658 
-0.015294 -0.217908 
-0.019930 -0.169260 
-0.018335 -0.195380 
-0.027941 -0.171093 
-0.046483 -0.174398 
-0.036852 -0.172952 
-0.033884 -0.199568 
0.000000 0.000000 
-0.019495 -0.037969 
-0.010360 -0.037224 
-0.014272 -0.037365 
0.000000 0.000000 
-0.025956 -0.074422 
-0.024905 -0.108621 
0.000000 -0.037115 
-0.002201 -0.037147 
0.000000 0.000000 
-0.005414 -0.106574 
-0.004068 -0.072784 
0.000000 -0.106376 
0.000000 0.000000 
-0.004556 -0.037169 
-0.007213 -0.037189 
-0.005710 -0.192089 
-0.000000 -0.213131 
-0.019745 -0.139872 
-0.012761 -0.167740 
0.000000 -0.166328 
-0.006219 -0.166727 
-0.006136 -0.138057 
-0.013266 -0.073241 
-0.011151 -0.107004 
-0.017537 -0.107673 
0.000000 0.000000 
0.002201 -0.037147 
0.007213 -0.037189 
0.004556 -0.037169 
0.000000 0.000000 
0.004068 -0.072784 
0.005414 -0.106574 
0.027518 -0.040697 
0.019495 -0.037969 
0.000000 0.000000 
0.024905 -0.108621 
0.025956 -0.074422 
0.033592 -0.110006 
0.000000 0.000000 
0.014272 -0.037365 
0.010360 -0.037224 
0.005710 -0.192089 
0.004686 -0.213685 
0.006136 -0.138057 
0.006219 -0.166727 
0.019930 -0.169260 
0.012761 -0.167740 
0.019745 -0.139872 
0.013266 -0.073241 
0.017537 -0.107673 
0.011151 -0.107004 
0.041614 -0.054000 
0.046262 -0.080597 
0.058124 -0.146932 
0.055442 -0.115821 
0.066958 -0.120549 
0.043849 -0.112227 
0.037022 -0.143037 
0.036271 -0.241794 
0.044537 -0.221795 
0.052304 -0.215929 
0.028884 -0.222879 
0.036601 -0.223643 
0.022544 -0.242964 
0.065744 -0.172371 
0.051491 -0.199499 
0.056352 -0.174658 
0.009666 -0.215387 
0.003156 -0.231071 
0.027941 -0.171093 
0.018335 -0.195380 
0.011170 -0.236648 
0.015294 -0.217908 
0.021713 -0.220658 
0.046483 -0.174398 
0.033884 -0.199568 
0.036852 -0.172952 
0.033883 -0.253156 
0.027400 -0.259717 
0.011018 -0.289722 
0.018736 -0.275672 
0.016310 -0.285092 
0.021190 -0.261532 
0.015439 -0.259951 
0.001293 -0.319856 
0.005347 -0.327213 
-0.003312 -0.294476 
-0.002137 -0.308984 
0.005528 -0.311092 
0.001641 -0.312006 
0.005058 -0.301869 
0.003360 -0.247036 
0.010406 -0.256209 
0.006340 -0.251506 
0.001168 -0.262456 
-0.001774 -0.278353 
0.006164 -0.289505 
0.001788 -0.285400 
0.008297 -0.274009 
0.007848 -0.328164 
0.005850 -0.326258 
0.006166 -0.327650 
0.005266 -0.321753 
0.005566 -0.324400 
0.008163 -0.324777 
0.001109 -0.321069 
0.003091 -0.323129 
-0.000190 -0.318472 
0.001759 -0.297699 
0.003284 -0.306335 
0.010259 -0.306848 
-0.005472 -0.303227 
-0.001946 -0.305007 
-0.007735 -0.294980 
0.009256 -0.318401 
0.004259 -0.313000 
0.004869 -0.318043 
-0.006915 -0.293476 
-0.008017 -0.296339 
-0.008571 -0.287735 
-0.003489 -0.312250 
-0.006248 -0.304711 
-0.004265 -0.309277 
-0.010252 -0.291760 
-0.008278 -0.298883 
-0.007504 -0.301170 
0.001123 -0.316756 
-0.003451 -0.309759 
-0.001696 -0.314772 
-0.000000 -0.149687 
-0.012206 -0.171053 
-0.020554 -0.151804 
-0.007240 -0.205725 
-0.009009 -0.189694 
0.000000 -0.200318 
-0.014348 -0.208098 
-0.015863 -0.192985 
-0.015051 -0.214036 
-0.003464 -0.244403 
-0.004212 -0.238071 
0.000000 -0.243215 
-0.013413 -0.237219 
-0.009150 -0.235471 
-0.012003 -0.243707 
0.000000 -0.227488 
-0.005046 -0.229676 
-0.006016 -0.218982 
0.009341 -0.287425 
-0.003751 -0.272638 
-0.000529 -0.286652 
-0.011992 -0.234652 
-0.007819 -0.255060 
0.001557 -0.254693 
-0.014311 -0.259000 
-0.012392 -0.256707 
-0.015159 -0.244252 
-0.012028 -0.216483 
-0.014520 -0.229772 
-0.015125 -0.221776 
0.001078 -0.237437 
0.000623 -0.243095 
-0.000000 -0.237319 
-0.000677 -0.253758 
0.000383 -0.248496 
0.000820 -0.250102 
-0.000000 -0.247200 
0.000136 -0.247510 
-0.000385 -0.250632 
-0.007954 -0.279455 
-0.006437 -0.271884 
-0.005651 -0.277122 
-0.006375 -0.261614 
-0.006696 -0.266610 
-0.008866 -0.267106 
-0.002120 -0.262718 
-0.004431 -0.265163 
-0.002380 -0.259204 
0.000000 -0.250872 
-0.002126 -0.251608 
-0.002773 -0.248865 
-0.000935 -0.252403 
-0.001515 -0.252755 
0.000000 -0.251921 
-0.007121 -0.255810 
-0.004008 -0.253797 
-0.005462 -0.257231 
-0.002229 -0.256182 
-0.003828 -0.257348 
-0.001719 -0.253859 
-0.006657 -0.285690 
-0.014628 -0.261459 
-0.012462 -0.272791 
-0.010140 -0.284853 
-0.011747 -0.284129 
-0.006481 -0.247843 
-0.010255 -0.259545 
-0.008787 -0.253073 
-0.010431 -0.249026 
-0.013568 -0.253400 
-0.009885 -0.281195 
-0.012011 -0.283384 
-0.011301 -0.282458 
-0.010704 -0.274080 
-0.010871 -0.266718 
-0.013941 -0.263729 
-0.012612 -0.265546 
-0.013331 -0.273922 
0.020554 -0.151804 
0.012206 -0.171053 
0.015051 -0.214036 
0.015863 -0.192985 
0.014348 -0.208098 
0.009009 -0.189694 
0.007240 -0.205725 
0.000529 -0.286652 
0.003751 -0.272638 
-0.009341 -0.287425 
0.015159 -0.244252 
0.012392 -0.256707 
0.014311 -0.259000 
-0.001557 -0.254693 
0.007819 -0.255060 
0.011992 -0.234652 
0.004212 -0.238071 
0.003464 -0.244403 
0.006016 -0.218982 
0.005046 -0.229676 
0.012003 -0.243707 
0.009150 -0.235471 
0.013413 -0.237219 
0.015125 -0.221776 
0.014520 -0.229772 
0.012028 -0.216483 
-0.006166 -0.327650 
-0.005850 -0.326258 
-0.007848 -0.328164 
0.000190 -0.318472 
-0.003091 -0.323129 
-0.001109 -0.321069 
-0.008163 -0.324777 
-0.005566 -0.324400 
-0.005266 -0.321753 
0.008571 -0.287735 
0.008017 -0.296339 
0.006915 -0.293476 
0.007504 -0.301170 
0.008278 -0.298883 
0.010252 -0.291760 
0.004265 -0.309277 
0.006248 -0.304711 
0.003489 -0.312250 
-0.010259 -0.306848 
-0.003284 -0.306335 
-0.001759 -0.297699 
-0.004869 -0.318043 
-0.004259 -0.313000 
-0.009256 -0.318401 
0.007735 -0.294980 
0.001946 -0.305007 
0.005472 -0.303227 
0.001696 -0.314772 
0.003451 -0.309759 
-0.001123 -0.316756 
-0.000623 -0.243095 
-0.001078 -0.237437 
0.000385 -0.250632 
-0.000136 -0.247510 
-0.000820 -0.250102 
-0.000383 -0.248496 
0.000677 -0.253758 
0.002773 -0.248865 
0.002126 -0.251608 
0.005462 -0.257231 
0.004008 -0.253797 
0.007121 -0.255810 
0.001515 -0.252755 
0.000935 -0.252403 
0.005651 -0.277122 
0.006437 -0.271884 
0.007954 -0.279455 
0.002380 -0.259204 
0.004431 -0.265163 
0.002120 -0.262718 
0.008866 -0.267106 
0.006696 -0.266610 
0.006375 -0.261614 
0.001719 -0.253859 
0.003828 -0.257348 
0.002229 -0.256182 
0.006657 -0.285690 
0.011747 -0.284129 
0.010140 -0.284853 
0.012462 -0.272791 
0.014628 -0.261459 
0.009885 -0.281195 
0.010871 -0.266718 
0.010704 -0.274080 
0.011301 -0.282458 
0.012011 -0.283384 
0.006481 -0.247843 
0.013568 -0.253400 
0.010431 -0.249026 
0.008787 -0.253073 
0.010255 -0.259545 
0.013331 -0.273922 
0.012612 -0.265546 
0.013941 -0.263729 
-0.006564 -0.328940 
-0.004574 -0.326203 
-0.002693 -0.320631 
-0.003350 -0.323838 
-0.004486 -0.324478 
-0.002262 -0.322782 
0.000159 -0.318314 
-0.007317 -0.301027 
-0.005071 -0.306793 
-0.007283 -0.305283 
-0.000957 -0.306547 
-0.002989 -0.307202 
-0.002877 -0.301581 
-0.004487 -0.316303 
-0.003528 -0.312027 
-0.002734 -0.316665 
0.005050 -0.298283 
0.005141 -0.290214 
0.002383 -0.312655 
0.004095 -0.305888 
0.001328 -0.297836 
0.003077 -0.302082 
0.001064 -0.304839 
-0.001071 -0.316242 
0.000230 -0.311007 
0.000613 -0.314941 
-0.039813 -0.239132 
-0.035227 -0.248336 
-0.038633 -0.244307 
-0.028515 -0.252514 
-0.031851 -0.251007 
-0.032736 -0.243321 
-0.029182 -0.261646 
-0.030615 -0.257118 
-0.026053 -0.265480 
-0.016162 -0.250410 
-0.019035 -0.251836 
-0.019405 -0.241732 
-0.017162 -0.269401 
-0.018241 -0.261087 
-0.014419 -0.268732 
-0.025836 -0.243740 
-0.022074 -0.252765 
-0.025245 -0.253044 
-0.012750 -0.292222 
-0.013600 -0.288083 
-0.010190 -0.294779 
-0.021631 -0.273427 
-0.017447 -0.280962 
-0.020299 -0.277611 
-0.012076 -0.283686 
-0.014709 -0.282933 
-0.015940 -0.276702 
-0.024252 -0.261131 
-0.020030 -0.269188 
-0.022999 -0.267936 
-0.002280 -0.238077 
-0.001544 -0.230556 
-0.001507 -0.252226 
-0.002253 -0.245241 
-0.004886 -0.232026 
-0.003613 -0.239204 
-0.005125 -0.240731 
0.004420 -0.282057 
0.003086 -0.274102 
-0.002496 -0.265719 
0.000346 -0.270320 
-0.001112 -0.273970 
0.001437 -0.266499 
-0.000197 -0.259247 
-0.013699 -0.238445 
-0.011032 -0.246636 
-0.013486 -0.248629 
-0.006853 -0.242558 
-0.008819 -0.244568 
-0.008865 -0.234908 
-0.007274 -0.262939 
-0.008240 -0.253902 
-0.005377 -0.260256 
-0.002485 -0.254733 
-0.003775 -0.257465 
-0.004715 -0.249169 
-0.007767 -0.296037 
-0.009552 -0.283364 
-0.008541 -0.290155 
-0.005440 -0.296118 
-0.003193 -0.295116 
-0.012816 -0.258275 
-0.006102 -0.271666 
-0.009438 -0.265350 
-0.011833 -0.267332 
-0.010694 -0.275726 
0.002837 -0.286472 
-0.001037 -0.293116 
0.000992 -0.290201 
0.000125 -0.282176 
-0.002886 -0.277259 
-0.007155 -0.282098 
-0.004918 -0.280018 
-0.003902 -0.287883 
-0.047934 -0.225717 
-0.044261 -0.229530 
-0.052354 -0.208894 
-0.048466 -0.219459 
-0.056365 -0.205712 
-0.040525 -0.232069 
-0.036772 -0.233536 
-0.062752 -0.161098 
-0.061155 -0.173948 
-0.067559 -0.160287 
-0.047060 -0.200346 
-0.054240 -0.187415 
-0.049566 -0.187915 
-0.063191 -0.183952 
-0.058806 -0.186170 
-0.055834 -0.197807 
-0.025840 -0.233318 
-0.022435 -0.232229 
-0.033046 -0.234121 
-0.029389 -0.233997 
-0.035658 -0.212260 
-0.032692 -0.223509 
-0.039819 -0.212456 
-0.048223 -0.210948 
-0.044026 -0.212073 
-0.040565 -0.223127 
-0.018098 -0.022109 
-0.033854 -0.045105 
-0.026608 -0.031251 
-0.040198 -0.077873 
-0.038301 -0.061205 
-0.032603 -0.058590 
-0.051964 -0.073118 
-0.044988 -0.065829 
-0.052781 -0.084658 
-0.032279 -0.142135 
-0.035805 -0.126888 
-0.031105 -0.126031 
-0.046183 -0.129052 
-0.040840 -0.127887 
-0.042040 -0.144004 
-0.034964 -0.093339 
-0.038520 -0.110977 
-0.040111 -0.094566 
-0.068359 -0.134443 
-0.063054 -0.133279 
-0.063446 -0.147566 
-0.058056 -0.101997 
-0.061353 -0.118137 
-0.064016 -0.105860 
-0.052689 -0.146025 
-0.057447 -0.131839 
-0.051761 -0.130385 
-0.045765 -0.096324 
-0.049533 -0.113830 
-0.051831 -0.098776 
-0.003990 -0.222928 
-0.002000 -0.222476 
-0.008315 -0.224879 
-0.006079 -0.223750 
-0.007974 -0.204024 
-0.007112 -0.214404 
-0.010809 -0.204887 
-0.019204 -0.230860 
-0.016170 -0.229333 
-0.020341 -0.208346 
-0.018403 -0.219298 
-0.023909 -0.209572 
-0.013344 -0.227759 
-0.010729 -0.226243 
-0.024020 -0.155737 
-0.023822 -0.170153 
-0.028206 -0.156590 
-0.014938 -0.194338 
-0.019335 -0.182752 
-0.015766 -0.181828 
-0.027091 -0.184775 
-0.023107 -0.183750 
-0.021928 -0.196490 
-0.012386 -0.216578 
-0.016973 -0.207108 
-0.013800 -0.205933 
-0.057698 -0.161182 
-0.047336 -0.160125 
-0.052520 -0.160795 
-0.051429 -0.174744 
-0.044865 -0.187859 
-0.032648 -0.157486 
-0.031283 -0.185772 
-0.032288 -0.172042 
-0.037337 -0.158402 
-0.042250 -0.159300 
-0.025214 -0.221888 
-0.038196 -0.200231 
-0.031594 -0.211633 
-0.027666 -0.210700 
-0.029716 -0.198661 
-0.041600 -0.173765 
-0.035668 -0.186675 
-0.040211 -0.187404 
0.000000 0.000000 
-0.014228 -0.019911 
-0.009988 -0.018834 
-0.011788 -0.019142 
0.000000 0.000000 
-0.022979 -0.038822 
-0.027900 -0.057190 
-0.005318 -0.018682 
-0.006259 -0.018670 
0.000000 0.000000 
-0.017595 -0.055739 
-0.012197 -0.037270 
-0.014960 -0.055577 
0.000000 0.000000 
-0.007320 -0.018673 
-0.008541 -0.018712 
-0.029064 -0.109241 
-0.026736 -0.125292 
-0.030101 -0.075095 
-0.030316 -0.092477 
-0.022313 -0.091377 
-0.026119 -0.091851 
-0.022277 -0.073975 
-0.016664 -0.037562 
-0.020561 -0.055995 
-0.023951 -0.056427 
0.000000 -0.018738 
-0.000558 -0.018746 
0.000000 0.000000 
-0.001581 -0.055138 
-0.001090 -0.037133 
0.000000 -0.055108 
0.000000 0.000000 
-0.001128 -0.018748 
-0.001718 -0.018746 
-0.002907 -0.122470 
-0.002686 -0.106446 
0.000000 -0.122387 
-0.006185 -0.072864 
-0.004815 -0.089937 
-0.007316 -0.090066 
0.000000 -0.089788 
-0.002388 -0.089844 
-0.002017 -0.072724 
0.000000 0.000000 
-0.003702 -0.018716 
-0.004472 -0.018699 
-0.002337 -0.018740 
-0.002995 -0.018730 
0.000000 0.000000 
-0.008444 -0.055315 
-0.005836 -0.037179 
-0.006595 -0.055259 
-0.003190 -0.055172 
-0.004853 -0.055212 
-0.003351 -0.037159 
-0.002337 -0.213259 
-0.000000 -0.222397 
-0.008657 -0.192656 
-0.005258 -0.203385 
0.000000 -0.202854 
-0.002616 -0.202993 
-0.002838 -0.191734 
-0.023652 -0.140549 
-0.020079 -0.154949 
-0.012844 -0.153639 
-0.016363 -0.154245 
-0.016076 -0.139278 
-0.016251 -0.168447 
-0.012380 -0.181017 
0.000000 -0.152426 
-0.003107 -0.152534 
-0.003047 -0.137854 
-0.002998 -0.179534 
-0.003090 -0.166448 
0.000000 -0.179404 
-0.009310 -0.138364 
-0.006256 -0.152775 
-0.009488 -0.153146 
-0.009148 -0.180350 
-0.009429 -0.167161 
-0.006034 -0.179851 
-0.008712 -0.037202 
-0.010748 -0.073090 
-0.010431 -0.055382 
-0.012589 -0.055465 
-0.015994 -0.073426 
-0.005856 -0.122635 
-0.012047 -0.123206 
-0.008888 -0.122880 
-0.008222 -0.106759 
-0.009930 -0.090235 
-0.022679 -0.124649 
-0.018840 -0.091002 
-0.021077 -0.108106 
-0.018903 -0.124090 
-0.015372 -0.123609 
-0.012694 -0.090444 
-0.014242 -0.107307 
-0.015650 -0.090697 
0.000000 0.000000 
0.000558 -0.018746 
0.001718 -0.018746 
0.001128 -0.018748 
0.000000 0.000000 
0.001090 -0.037133 
0.001581 -0.055138 
0.004472 -0.018699 
0.003702 -0.018716 
0.000000 0.000000 
0.006595 -0.055259 
0.005836 -0.037179 
0.008444 -0.055315 
0.000000 0.000000 
0.002995 -0.018730 
0.002337 -0.018740 
0.002686 -0.106446 
0.002907 -0.122470 
0.002017 -0.072724 
0.002388 -0.089844 
0.007316 -0.090066 
0.004815 -0.089937 
0.006185 -0.072864 
0.003351 -0.037159 
0.004853 -0.055212 
0.003190 -0.055172 
0.018098 -0.022109 
0.014228 -0.019911 
0.000000 0.000000 
0.027900 -0.057190 
0.022979 -0.038822 
0.032603 -0.058590 
0.000000 0.000000 
0.011788 -0.019142 
0.009988 -0.018834 
0.026736 -0.125292 
0.029064 -0.109241 
0.031105 -0.126031 
0.022277 -0.073975 
0.026119 -0.091851 
0.022313 -0.091377 
0.034964 -0.093339 
0.030316 -0.092477 
0.030101 -0.075095 
0.000000 0.000000 
0.006259 -0.018670 
0.005318 -0.018682 
0.008541 -0.018712 
0.007320 -0.018673 
0.000000 0.000000 
0.014960 -0.055577 
0.012197 -0.037270 
0.017595 -0.055739 
0.023951 -0.056427 
0.020561 -0.055995 
0.016664 -0.037562 
0.002337 -0.213259 
0.002000 -0.222476 
0.002838 -0.191734 
0.002616 -0.202993 
0.007974 -0.204024 
0.005258 -0.203385 
0.008657 -0.192656 
0.003047 -0.137854 
0.003107 -0.152534 
0.009488 -0.153146 
0.006256 -0.152775 
0.009310 -0.138364 
0.003090 -0.166448 
0.002998 -0.179534 
0.024020 -0.155737 
0.020079 -0.154949 
0.023652 -0.140549 
0.012380 -0.181017 
0.016251 -0.168447 
0.015766 -0.181828 
0.016076 -0.139278 
0.016363 -0.154245 
0.012844 -0.153639 
0.006034 -0.179851 
0.009429 -0.167161 
0.009148 -0.180350 
0.008712 -0.037202 
0.015994 -0.073426 
0.012589 -0.055465 
0.010431 -0.055382 
0.010748 -0.073090 
0.022679 -0.124649 
0.015372 -0.123609 
0.018903 -0.124090 
0.021077 -0.108106 
0.018840 -0.091002 
0.005856 -0.122635 
0.009930 -0.090235 
0.008222 -0.106759 
0.008888 -0.122880 
0.012047 -0.123206 
0.015650 -0.090697 
0.014242 -0.107307 
0.012694 -0.090444 
0.026608 -0.031251 
0.033854 -0.045105 
0.052781 -0.084658 
0.044988 -0.065829 
0.051964 -0.073118 
0.038301 -0.061205 
0.040198 -0.077873 
0.063446 -0.147566 
0.063054 -0.133279 
0.068359 -0.134443 
0.051761 -0.130385 
0.057447 -0.131839 
0.052689 -0.146025 
0.064016 -0.105860 
0.061353 -0.118137 
0.058056 -0.101997 
0.035805 -0.126888 
0.032279 -0.142135 
0.040111 -0.094566 
0.038520 -0.110977 
0.042040 -0.144004 
0.040840 -0.127887 
0.046183 -0.129052 
0.051831 -0.098776 
0.049533 -0.113830 
0.045765 -0.096324 
0.039813 -0.239132 
0.044261 -0.229530 
0.047934 -0.225717 
0.036772 -0.233536 
0.040525 -0.232069 
0.032736 -0.243321 
0.056365 -0.205712 
0.048466 -0.219459 
0.052354 -0.208894 
0.022435 -0.232229 
0.025840 -0.233318 
0.019405 -0.241732 
0.039819 -0.212456 
0.032692 -0.223509 
0.035658 -0.212260 
0.025836 -0.243740 
0.029389 -0.233997 
0.033046 -0.234121 
0.067559 -0.160287 
0.061155 -0.173948 
0.062752 -0.161098 
0.055834 -0.197807 
0.058806 -0.186170 
0.063191 -0.183952 
0.049566 -0.187915 
0.054240 -0.187415 
0.047060 -0.200346 
0.040565 -0.223127 
0.044026 -0.212073 
0.048223 -0.210948 
0.003990 -0.222928 
0.001544 -0.230556 
0.010809 -0.204887 
0.007112 -0.214404 
0.004886 -0.232026 
0.006079 -0.223750 
0.008315 -0.224879 
0.028206 -0.156590 
0.023822 -0.170153 
0.021928 -0.196490 
0.023107 -0.183750 
0.027091 -0.184775 
0.019335 -0.182752 
0.014938 -0.194338 
0.013699 -0.238445 
0.016170 -0.229333 
0.019204 -0.230860 
0.010729 -0.226243 
0.013344 -0.227759 
0.008865 -0.234908 