# vtk DataFile Version 2.0
Unstructured Grid Example
ASCII
DATASET UNSTRUCTURED_GRID

POINTS 16641 float
0.005504 -0.329316 0.000000 
0.994496 -0.329316 0.000000 
1.000000 1.000000 0.000000 
0.000000 1.000000 0.000000 
0.500000 -0.100000 0.000000 
0.956026 0.263956 0.000000 
0.500000 1.000000 0.000000 
0.043974 0.263956 0.000000 
0.500000 0.267526 0.000000 
0.258846 -0.300877 0.000000 
0.500000 -0.002509 0.000000 
0.243197 -0.036996 0.000000 
0.741154 -0.300877 0.000000 
0.756803 -0.036996 0.000000 
0.990446 -0.049551 0.000000 
0.732995 0.258195 0.000000 
0.930503 0.601800 0.000000 
0.721547 0.607820 0.000000 
0.750000 1.000000 0.000000 
0.500000 0.611183 0.000000 
0.250000 1.000000 0.000000 
0.278453 0.607820 0.000000 
0.069497 0.601800 0.000000 
0.267005 0.258195 0.000000 
0.009554 -0.049551 0.000000 
0.131618 -0.323403 0.000000 
0.239312 -0.170303 0.000000 
0.122512 -0.192160 0.000000 
0.500000 -0.098386 0.000000 
0.359703 -0.127037 0.000000 
0.366132 -0.233868 0.000000 
0.375018 0.116015 0.000000 
0.366934 -0.014347 0.000000 
0.500000 0.121640 0.000000 
0.633868 -0.233868 0.000000 
0.640297 -0.127037 0.000000 
0.877488 -0.192160 0.000000 
0.760688 -0.170303 0.000000 
0.868382 -0.323403 0.000000 
0.633066 -0.014347 0.000000 
0.624982 0.116015 0.000000 
0.996603 -0.196232 0.000000 
0.874379 -0.051417 0.000000 
0.845167 0.254919 0.000000 
0.861387 0.097126 0.000000 
0.975086 0.104527 0.000000 
0.745419 0.104321 0.000000 
0.617819 0.264586 0.000000 
0.939116 0.429257 0.000000 
0.831636 0.423447 0.000000 
0.839277 0.798321 0.000000 
0.826842 0.604179 0.000000 
0.939591 0.784169 0.000000 
0.723669 0.426116 0.000000 
0.612956 0.430100 0.000000 
0.875000 1.000000 0.000000 
0.730543 0.800919 0.000000 
0.500000 0.801813 0.000000 
0.616383 0.801603 0.000000 
0.625000 1.000000 0.000000 
0.612073 0.610279 0.000000 
0.500000 0.431829 0.000000 
0.375000 1.000000 0.000000 
0.383617 0.801603 0.000000 
0.160723 0.798321 0.000000 
0.269457 0.800919 0.000000 
0.125000 1.000000 0.000000 
0.387927 0.610279 0.000000 
0.387044 0.430100 0.000000 
0.060409 0.784169 0.000000 
0.173158 0.604179 0.000000 
0.154833 0.254919 0.000000 
0.168364 0.423447 0.000000 
0.060884 0.429257 0.000000 
0.276331 0.426116 0.000000 
0.382181 0.264586 0.000000 
0.024914 0.104527 0.000000 
0.138613 0.097126 0.000000 
0.125621 -0.051417 0.000000 
0.003397 -0.196232 0.000000 
0.254581 0.104321 0.000000 
0.068134 -0.327387 0.000000 
0.125989 -0.259374 0.000000 
0.065074 -0.263244 0.000000 
0.244637 -0.236185 0.000000 
0.186115 -0.251085 0.000000 
0.195540 -0.315295 0.000000 
0.180934 -0.115721 0.000000 
0.181236 -0.184107 0.000000 
0.239669 -0.104205 0.000000 
0.500000 -0.129243 0.000000 
0.422766 -0.147052 0.000000 
0.413526 -0.186474 0.000000 
0.430015 -0.059727 0.000000 
0.427046 -0.106876 0.000000 
0.500000 -0.054701 0.000000 
0.318982 -0.276119 0.000000 
0.358827 -0.179093 0.000000 
0.301170 -0.211864 0.000000 
0.439131 0.191047 0.000000 
0.437137 0.120140 0.000000 
0.500000 0.192114 0.000000 
0.303878 -0.025727 0.000000 
0.371016 0.048521 0.000000 
0.308842 0.040501 0.000000 
0.500000 0.056570 0.000000 
0.434951 0.054404 0.000000 
0.432589 -0.005736 0.000000 
0.297924 -0.150374 0.000000 
0.362988 -0.072690 0.000000 
0.299833 -0.088982 0.000000 
0.586474 -0.186474 0.000000 
0.577234 -0.147052 0.000000 
0.698830 -0.211864 0.000000 
0.641173 -0.179093 0.000000 
0.681018 -0.276119 0.000000 
0.572954 -0.106876 0.000000 
0.569985 -0.059727 0.000000 
0.934926 -0.263244 0.000000 
0.874011 -0.259374 0.000000 
0.931866 -0.327387 0.000000 
0.760331 -0.104205 0.000000 
0.818764 -0.184107 0.000000 
0.819066 -0.115721 0.000000 
0.804460 -0.315295 0.000000 
0.813885 -0.251085 0.000000 
0.755363 -0.236185 0.000000 
0.562863 0.120140 0.000000 
0.560869 0.191047 0.000000 
0.567411 -0.005736 0.000000 
0.565049 0.054404 0.000000 
0.691158 0.040501 0.000000 
0.628984 0.048521 0.000000 
0.696122 -0.025727 0.000000 
0.702076 -0.150374 0.000000 
0.700167 -0.088982 0.000000 
0.637012 -0.072690 0.000000 
0.995996 -0.264834 0.000000 
0.936933 -0.195708 0.000000 
0.932569 -0.052763 0.000000 
0.936252 -0.125382 0.000000 
0.994893 -0.124136 0.000000 
0.877557 -0.122723 0.000000 
0.815942 -0.045968 0.000000 
0.900621 0.257209 0.000000 
0.909589 0.176792 0.000000 
0.965639 0.183557 0.000000 
0.796537 0.176101 0.000000 
0.853293 0.174768 0.000000 
0.789380 0.255655 0.000000 
0.983613 0.026792 0.000000 
0.918428 0.098372 0.000000 
0.926365 0.021858 0.000000 
0.621208 0.188081 0.000000 
0.559112 0.266777 0.000000 
0.751539 0.032284 0.000000 
0.685872 0.110289 0.000000 
0.675825 0.261478 0.000000 
0.680652 0.183915 0.000000 
0.739065 0.179545 0.000000 
0.868695 0.021802 0.000000 
0.803814 0.099508 0.000000 
0.810542 0.025611 0.000000 
0.946942 0.345784 0.000000 
0.892254 0.339760 0.000000 
0.880273 0.512039 0.000000 
0.885207 0.424626 0.000000 
0.933320 0.514524 0.000000 
0.837716 0.337754 0.000000 
0.782968 0.338344 0.000000 
0.908850 0.896287 0.000000 
0.890109 0.793764 0.000000 
0.957096 0.882011 0.000000 
0.774714 0.606122 0.000000 
0.830236 0.699592 0.000000 
0.778146 0.701830 0.000000 
0.931944 0.691437 0.000000 
0.881033 0.695983 0.000000 
0.878433 0.602325 0.000000 
0.614997 0.345341 0.000000 
0.557667 0.347002 0.000000 
0.727699 0.340380 0.000000 
0.671719 0.342953 0.000000 
0.667085 0.517087 0.000000 
0.668684 0.428225 0.000000 
0.721435 0.515327 0.000000 
0.827701 0.512187 0.000000 
0.774913 0.513547 0.000000 
0.777919 0.424285 0.000000 
0.937500 1.000000 0.000000 
0.854879 0.899279 0.000000 
0.739372 0.900088 0.000000 
0.797834 0.899938 0.000000 
0.812500 1.000000 0.000000 
0.785878 0.800130 0.000000 
0.724502 0.703223 0.000000 
0.500000 0.900144 0.000000 
0.560237 0.900139 0.000000 
0.562500 1.000000 0.000000 
0.556946 0.705205 0.000000 
0.558323 0.801758 0.000000 
0.500000 0.705341 0.000000 
0.687500 1.000000 0.000000 
0.620325 0.900132 0.000000 
0.680103 0.900121 0.000000 
0.556639 0.431376 0.000000 
0.500000 0.347592 0.000000 
0.667278 0.609218 0.000000 
0.611914 0.518547 0.000000 
0.500000 0.519845 0.000000 
0.556122 0.519508 0.000000 
0.556207 0.610950 0.000000 
0.673899 0.801341 0.000000 
0.613565 0.704811 0.000000 
0.669530 0.704163 0.000000 
0.437500 1.000000 0.000000 
0.439763 0.900139 0.000000 
0.319897 0.900121 0.000000 
0.379675 0.900132 0.000000 
0.312500 1.000000 0.000000 
0.441677 0.801758 0.000000 
0.443054 0.705205 0.000000 
0.091150 0.896287 0.000000 
0.145121 0.899279 0.000000 
0.062500 1.000000 0.000000 
0.275498 0.703223 0.000000 
0.214122 0.800130 0.000000 
0.221854 0.701830 0.000000 
0.187500 1.000000 0.000000 
0.202166 0.899938 0.000000 
0.260628 0.900088 0.000000 
0.443361 0.431376 0.000000 
0.442333 0.347002 0.000000 
0.443793 0.610950 0.000000 
0.443878 0.519508 0.000000 
0.332915 0.517087 0.000000 
0.388086 0.518547 0.000000 
0.332722 0.609218 0.000000 
0.326101 0.801341 0.000000 
0.330470 0.704163 0.000000 
0.386435 0.704811 0.000000 
0.042904 0.882011 0.000000 
0.109891 0.793764 0.000000 
0.121567 0.602325 0.000000 
0.118967 0.695983 0.000000 
0.068056 0.691437 0.000000 
0.169764 0.699592 0.000000 
0.225286 0.606122 0.000000 
0.099379 0.257209 0.000000 
0.107746 0.339760 0.000000 
0.053058 0.345784 0.000000 
0.217032 0.338344 0.000000 
0.162284 0.337754 0.000000 
0.210620 0.255655 0.000000 
0.066680 0.514524 0.000000 
0.114793 0.424626 0.000000 
0.119727 0.512039 0.000000 
0.385003 0.345341 0.000000 
0.440888 0.266777 0.000000 
0.278565 0.515327 0.000000 
0.331316 0.428225 0.000000 
0.324175 0.261478 0.000000 
0.328281 0.342953 0.000000 
0.272301 0.340380 0.000000 
0.172299 0.512187 0.000000 
0.222081 0.424285 0.000000 
0.225087 0.513547 0.000000 
0.034361 0.183557 0.000000 
0.090411 0.176792 0.000000 
0.073635 0.021858 0.000000 
0.081572 0.098372 0.000000 
0.016387 0.026792 0.000000 
0.146707 0.174768 0.000000 
0.203463 0.176101 0.000000 
0.063067 -0.195708 0.000000 
0.004004 -0.264834 0.000000 
0.184058 -0.045968 0.000000 
0.122443 -0.122723 0.000000 
0.005107 -0.124136 0.000000 
0.063748 -0.125382 0.000000 
0.067431 -0.052763 0.000000 
0.378792 0.188081 0.000000 
0.260935 0.179545 0.000000 
0.319348 0.183915 0.000000 
0.314128 0.110289 0.000000 
0.248461 0.032284 0.000000 
0.131305 0.021802 0.000000 
0.189458 0.025611 0.000000 
0.196186 0.099508 0.000000 
0.036729 -0.328467 0.000000 
0.066637 -0.295772 0.000000 
0.035657 -0.296787 0.000000 
0.128695 -0.291867 0.000000 
0.097667 -0.294225 0.000000 
0.099776 -0.325787 0.000000 
0.093905 -0.228428 0.000000 
0.095587 -0.261735 0.000000 
0.123858 -0.226091 0.000000 
0.250530 -0.268923 0.000000 
0.220751 -0.277309 0.000000 
0.227364 -0.309045 0.000000 
0.212200 -0.211434 0.000000 
0.215632 -0.244624 0.000000 
0.241052 -0.203248 0.000000 
0.163576 -0.319988 0.000000 
0.190377 -0.283686 0.000000 
0.159637 -0.288439 0.000000 
0.211526 -0.076379 0.000000 
0.210214 -0.110511 0.000000 
0.241145 -0.070805 0.000000 
0.151976 -0.188782 0.000000 
0.180579 -0.150067 0.000000 
0.151366 -0.154485 0.000000 
0.238970 -0.137327 0.000000 
0.209739 -0.144355 0.000000 
0.210318 -0.177986 0.000000 
0.156197 -0.255908 0.000000 
0.183052 -0.217817 0.000000 
0.153593 -0.222627 0.000000 
0.500000 -0.134184 0.000000 
0.454618 -0.146464 0.000000 
0.442532 -0.157468 0.000000 
0.461688 -0.119186 0.000000 
0.459422 -0.134597 0.000000 
0.500000 -0.115975 0.000000 
0.388933 -0.211067 0.000000 
0.419131 -0.165767 0.000000 
0.388801 -0.185691 0.000000 
0.465504 -0.030566 0.000000 
0.464786 -0.055994 0.000000 
0.500000 -0.029542 0.000000 
0.392589 -0.116062 0.000000 
0.428605 -0.084199 0.000000 
0.394289 -0.091424 0.000000 
0.500000 -0.077763 0.000000 
0.463984 -0.079431 0.000000 
0.463019 -0.100620 0.000000 
0.289643 -0.290241 0.000000 
0.307042 -0.243555 0.000000 
0.279397 -0.257956 0.000000 
0.360858 -0.205552 0.000000 
0.333832 -0.225291 0.000000 
0.343963 -0.256037 0.000000 
0.328075 -0.167313 0.000000 
0.329511 -0.195983 0.000000 
0.358747 -0.153160 0.000000 
0.425202 -0.127746 0.000000 
0.390989 -0.139586 0.000000 
[...]
POINT_DATA 16641

SCALARS u_h float 2
LOOKUP_TABLE default
0.005504 -0.329316 
-0.005504 -0.329316 
0.000000 0.000000 
0.000000 0.000000 
0.000000 -0.100000 
-0.043974 -0.236044 
0.000000 0.000000 
0.043974 -0.236044 
0.000000 -0.232474 
0.008846 -0.300877 
0.000000 -0.252509 
-0.006803 -0.286996 
-0.008846 -0.300877 
0.006803 -0.286996 
-0.009554 -0.299551 
-0.017005 -0.241805 
-0.069497 -0.148200 
-0.028453 -0.142180 
0.000000 0.000000 
0.000000 -0.138817 
0.000000 0.000000 
0.028453 -0.142180 
0.069497 -0.148200 
0.017005 -0.241805 
0.009554 -0.299551 
0.006618 -0.323403 
-0.010688 -0.295303 
-0.002488 -0.317160 
0.000000 -0.223386 
-0.015297 -0.252037 
-0.008868 -0.233868 
0.000018 -0.258985 
-0.008066 -0.264347 
0.000000 -0.253360 
0.008868 -0.233868 
0.015297 -0.252037 
0.002488 -0.317160 
0.010688 -0.295303 
-0.006618 -0.323403 
0.008066 -0.264347 
-0.000018 -0.258985 
-0.003397 -0.321232 
-0.000621 -0.301417 
-0.029833 -0.245081 
-0.013613 -0.277874 
-0.024914 -0.270473 
-0.004581 -0.270679 
-0.007181 -0.235414 
-0.060884 -0.195743 
-0.043364 -0.201553 
-0.035723 -0.076679 
-0.048158 -0.145821 
-0.060409 -0.090831 
-0.026331 -0.198884 
-0.012044 -0.194900 
0.000000 0.000000 
-0.019457 -0.074081 
0.000000 -0.073187 
-0.008617 -0.073397 
0.000000 0.000000 
-0.012927 -0.139721 
0.000000 -0.193171 
0.000000 0.000000 
0.008617 -0.073397 
0.035723 -0.076679 
0.019457 -0.074081 
0.000000 0.000000 
0.012927 -0.139721 
0.012044 -0.194900 
0.060409 -0.090831 
0.048158 -0.145821 
0.029833 -0.245081 
0.043364 -0.201553 
0.060884 -0.195743 
0.026331 -0.198884 
0.007181 -0.235414 
0.024914 -0.270473 
0.013613 -0.277874 
0.000621 -0.301417 
0.003397 -0.321232 
0.004581 -0.270679 
0.005634 -0.327387 
0.000989 -0.321874 
0.002574 -0.325744 
-0.005363 -0.298685 
-0.001385 -0.313585 
0.008040 -0.315295 
-0.006566 -0.303221 
-0.006264 -0.309107 
-0.010331 -0.291705 
0.000000 -0.191743 
-0.014734 -0.209552 
-0.023974 -0.186474 
-0.007485 -0.247227 
-0.010454 -0.231876 
0.000000 -0.242201 
0.006482 -0.276119 
-0.016173 -0.241593 
-0.011330 -0.274364 
0.001631 -0.246453 
-0.000363 -0.254860 
0.000000 -0.245386 
-0.008622 -0.275727 
-0.003984 -0.263979 
-0.003658 -0.271999 
0.000000 -0.255930 
-0.002549 -0.258096 
-0.004911 -0.255736 
-0.014576 -0.275374 
-0.012012 -0.260190 
-0.012667 -0.276482 
0.023974 -0.186474 
0.014734 -0.209552 
0.011330 -0.274364 
0.016173 -0.241593 
-0.006482 -0.276119 
0.010454 -0.231876 
0.007485 -0.247227 
-0.002574 -0.325744 
-0.000989 -0.321874 
-0.005634 -0.327387 
0.010331 -0.291705 
0.006264 -0.309107 
0.006566 -0.303221 
-0.008040 -0.315295 
0.001385 -0.313585 
0.005363 -0.298685 
0.000363 -0.254860 
-0.001631 -0.246453 
0.004911 -0.255736 
0.002549 -0.258096 
0.003658 -0.271999 
0.003984 -0.263979 
0.008622 -0.275727 
0.014576 -0.275374 
0.012667 -0.276482 
0.012012 -0.260190 
-0.004004 -0.327334 
-0.000567 -0.320708 
-0.004931 -0.302763 
-0.001248 -0.312882 
-0.005107 -0.311636 
0.002557 -0.310223 
0.003442 -0.295968 
-0.036879 -0.242791 
-0.027911 -0.260708 
-0.034361 -0.253943 
-0.015963 -0.261399 
-0.021707 -0.262732 
-0.023120 -0.244345 
-0.016387 -0.285708 
-0.019072 -0.276628 
-0.011135 -0.290642 
-0.003792 -0.249419 
-0.003388 -0.233223 
0.001539 -0.280216 
-0.001628 -0.264711 
-0.011675 -0.238522 
-0.006848 -0.253585 
-0.010935 -0.257955 
-0.006305 -0.290698 
-0.008686 -0.275492 
-0.001958 -0.286889 
-0.053058 -0.216716 
-0.045246 -0.222740 
-0.057227 -0.175461 
-0.052293 -0.200374 
-0.066680 -0.172976 
-0.037284 -0.224746 
-0.029532 -0.224156 
-0.028650 -0.041213 
-0.047391 -0.081236 
-0.042904 -0.055489 
-0.037786 -0.143878 
-0.044764 -0.112908 
-0.034354 -0.110670 
-0.068056 -0.121063 
-0.056467 -0.116517 
-0.059067 -0.147675 
-0.010003 -0.217159 
-0.004833 -0.215498 
-0.022301 -0.222120 
-0.015781 -0.219547 
-0.020415 -0.170413 
-0.018816 -0.196775 
-0.028565 -0.172173 
-0.047299 -0.175313 
-0.037587 -0.173953 
-0.034581 -0.200715 
0.000000 0.000000 
-0.020121 -0.038221 
-0.010628 -0.037412 
-0.014666 -0.037562 
0.000000 0.000000 
-0.026622 -0.074870 
-0.025498 -0.109277 
0.000000 -0.037356 
-0.002263 -0.037361 
0.000000 0.000000 
-0.005554 -0.107295 
-0.004177 -0.073242 
0.000000 -0.107159 
0.000000 0.000000 
-0.004675 -0.037368 
-0.007397 -0.037379 
-0.005861 -0.193624 
0.000000 -0.214908 
-0.020222 -0.140782 
-0.013086 -0.168953 
0.000000 -0.167655 
-0.006378 -0.167992 
-0.006293 -0.139050 
-0.013601 -0.073659 
-0.011435 -0.107689 
-0.017970 -0.108337 
0.000000 0.000000 
0.002263 -0.037361 
0.007397 -0.037379 
0.004675 -0.037368 
0.000000 0.000000 
0.004177 -0.073242 
0.005554 -0.107295 
0.028650 -0.041213 
0.020121 -0.038221 
0.000000 0.000000 
0.025498 -0.109277 
0.026622 -0.074870 
0.034354 -0.110670 
0.000000 0.000000 
0.014666 -0.037562 
0.010628 -0.037412 
0.005861 -0.193624 
0.004833 -0.215498 
0.006293 -0.139050 
0.006378 -0.167992 
0.020415 -0.170413 
0.013086 -0.168953 
0.020222 -0.140782 
0.013601 -0.073659 
0.017970 -0.108337 
0.011435 -0.107689 
0.042904 -0.055489 
0.047391 -0.081236 
0.059067 -0.147675 
0.056467 -0.116517 
0.068056 -0.121063 
0.044764 -0.112908 
0.037786 -0.143878 
0.036879 -0.242791 
0.045246 -0.222740 
0.053058 -0.216716 
0.029532 -0.224156 
0.037284 -0.224746 
0.023120 -0.244345 
0.066680 -0.172976 
0.052293 -0.200374 
0.057227 -0.175461 
0.010003 -0.217159 
0.003388 -0.233223 
0.028565 -0.172173 
0.018816 -0.196775 
0.011675 -0.238522 
0.015781 -0.219547 
0.022301 -0.222120 
0.047299 -0.175313 
0.034581 -0.200715 
0.037587 -0.173953 
0.034361 -0.253943 
0.027911 -0.260708 
0.011135 -0.290642 
0.019072 -0.276628 
0.016387 -0.285708 
0.021707 -0.262732 
0.015963 -0.261399 
0.000567 -0.320708 
0.004004 -0.327334 
-0.003442 -0.295968 
-0.002557 -0.310223 
0.005107 -0.311636 
0.001248 -0.312882 
0.004931 -0.302763 
0.003792 -0.249419 
0.010935 -0.257955 
0.006848 -0.253585 
0.001628 -0.264711 
-0.001539 -0.280216 
0.006305 -0.290698 
0.001958 -0.286889 
0.008686 -0.275492 
0.005479 -0.328467 
0.004137 -0.327022 
0.004407 -0.328037 
0.003695 -0.323117 
0.003917 -0.325475 
0.006026 -0.325787 
0.000155 -0.322178 
0.001837 -0.324235 
-0.001142 -0.319841 
0.000530 -0.300173 
0.002001 -0.308559 
0.008614 -0.309045 
-0.006550 -0.305184 
-0.003118 -0.307124 
-0.008948 -0.296998 
0.007326 -0.319988 
0.002877 -0.314936 
0.003387 -0.319689 
-0.007224 -0.295129 
-0.008536 -0.298011 
-0.008855 -0.289555 
-0.004274 -0.313782 
-0.006921 -0.306317 
-0.004884 -0.310735 
-0.011030 -0.293577 
-0.009011 -0.300605 
-0.008432 -0.302986 
-0.000053 -0.318408 
-0.004448 -0.311567 
-0.002657 -0.316377 
0.000000 -0.165434 
-0.014132 -0.177714 
-0.026218 -0.157468 
-0.007062 -0.212936 
-0.009328 -0.197097 
0.000000 -0.209725 
-0.017317 -0.211067 
-0.018369 -0.197017 
-0.017449 -0.216941 
-0.003246 -0.249316 
-0.003964 -0.243494 
0.000000 -0.248292 
-0.013661 -0.241062 
-0.008895 -0.240449 
-0.011961 -0.247674 
0.000000 -0.234013 
-0.004766 -0.235681 
-0.005731 -0.225620 
0.008393 -0.290241 
-0.005458 -0.274805 
-0.001853 -0.289206 
-0.014142 -0.236802 
-0.009918 -0.256541 
0.000213 -0.256037 
-0.015675 -0.261063 
-0.014239 -0.258483 
-0.016253 -0.246910 
-0.012298 -0.221496 
-0.015261 -0.233336 
-0.016616 -0.224961 
0.001240 -0.239741 
0.000780 -0.245655 
0.000000 -0.239516 
-0.000304 -0.256647 
0.000660 -0.251280 
0.001191 -0.252787 
0.000000 -0.250018 
0.000288 -0.250338 
-0.000232 -0.253741 
-0.007964 -0.281535 
-0.006209 -0.274281 
-0.005495 -0.279223 
-0.006026 -0.264740 
-0.006397 -0.269354 
-0.008676 -0.269879 
-0.001695 -0.265308 
-0.004057 -0.267843 
-0.001964 -0.262059 
0.000000 -0.255015 
-0.001950 -0.255685 
-0.002579 -0.253333 
-0.000778 -0.255809 
-0.001351 -0.256481 
0.000000 -0.255353 
-0.006788 -0.259510 
-0.003707 -0.257646 
-0.005107 -0.260743 
-0.001858 -0.259280 
-0.003461 -0.260655 
-0.001434 -0.257148 
-0.008164 -0.287871 
-0.015515 -0.263783 
-0.013926 -0.274691 
-0.011513 -0.286827 
-0.012838 -0.286040 
-0.006166 -0.252292 
-0.010076 -0.262816 
-0.008499 -0.256930 
-0.010228 -0.252983 
-0.013798 -0.256548 
-0.010104 -0.283234 
-0.012783 -0.285315 
-0.011776 -0.284442 
-0.010813 -0.276422 
-0.010837 -0.269473 
-0.014431 -0.266262 
-0.012799 -0.268223 
-0.014012 -0.276062 
0.026218 -0.157468 
0.014132 -0.177714 
0.017449 -0.216941 
0.018369 -0.197017 
0.017317 -0.211067 
0.009328 -0.197097 
0.007062 -0.212936 
0.001853 -0.289206 
0.005458 -0.274805 
-0.008393 -0.290241 
0.016253 -0.246910 
0.014239 -0.258483 
0.015675 -0.261063 
-0.000213 -0.256037 
0.009918 -0.256541 
0.014142 -0.236802 
0.003964 -0.243494 
0.003246 -0.249316 
0.005731 -0.225620 
0.004766 -0.235681 
0.011961 -0.247674 
0.008895 -0.240449 
0.013661 -0.241062 
0.016616 -0.224961 
0.015261 -0.233336 
0.012298 -0.221496 
-0.004407 -0.328037 
-0.004137 -0.327022 
-0.005479 -0.328467 
0.001142 -0.319841 
-0.001837 -0.324235 
-0.000155 -0.322178 
-0.006026 -0.325787 
-0.003917 -0.325475 
-0.003695 -0.323117 
0.008855 -0.289555 
0.008536 -0.298011 
0.007224 -0.295129 
0.008432 -0.302986 
0.009011 -0.300605 
0.011030 -0.293577 
0.004884 -0.310735 
0.006921 -0.306317 
0.004274 -0.313782 
-0.008614 -0.309045 
-0.002001 -0.308559 
-0.000530 -0.300173 
-0.003387 -0.319689 
-0.002877 -0.314936 
-0.007326 -0.319988 
0.008948 -0.296998 
0.003118 -0.307124 
0.006550 -0.305184 
0.002657 -0.316377 
0.004448 -0.311567 
0.000053 -0.318408 
-0.000780 -0.245655 
-0.001240 -0.239741 
0.000232 -0.253741 
-0.000288 -0.250338 
-0.001191 -0.252787 
-0.000660 -0.251280 
0.000304 -0.256647 
0.002579 -0.253333 
0.001950 -0.255685 
0.005107 -0.260743 
0.003707 -0.257646 
0.006788 -0.259510 
0.001351 -0.256481 
0.000778 -0.255809 
0.005495 -0.279223 
0.006209 -0.274281 
0.007964 -0.281535 
0.001964 -0.262059 
0.004057 -0.267843 
0.001695 -0.265308 
0.008676 -0.269879 
0.006397 -0.269354 
0.006026 -0.264740 
0.001434 -0.257148 
0.003461 -0.260655 
0.001858 -0.259280 
0.008164 -0.287871 
0.012838 -0.286040 
0.011513 -0.286827 
0.013926 -0.274691 
0.015515 -0.263783 
0.010104 -0.283234 
0.010837 -0.269473 
0.010813 -0.276422 
0.011776 -0.284442 
0.012783 -0.285315 
0.006166 -0.252292 
0.013798 -0.256548 
0.010228 -0.252983 
0.008499 -0.256930 
0.010076 -0.262816 
0.014012 -0.276062 
0.012799 -0.268223 
0.014431 -0.266262 
-0.004744 -0.328823 
-0.003274 -0.326671 
-0.001957 -0.321243 
-0.002376 -0.324385 
-0.003480 -0.324782 
-0.001301 -0.323613 
0.000890 -0.319410 
-0.007176 -0.301767 
-0.004804 -0.307514 
-0.006998 -0.305850 
-0.000699 -0.307598 
-0.002732 -0.308086 
-0.002754 -0.302628 
-0.003913 -0.316805 
-0.003126 -0.312723 
-0.002181 -0.317327 
0.005356 -0.299790 
0.005257 -0.291866 
0.002960 -0.313934 
0.004548 -0.307288 
0.001459 -0.299179 
0.003367 -0.303444 
0.001334 -0.306051 
-0.000527 -0.317108 
0.000629 -0.312068 
0.001165 -0.316019 
-0.040438 -0.240076 
-0.035802 -0.249261 
-0.039192 -0.245176 
-0.029084 -0.253603 
-0.032424 -0.252007 
-0.033332 -0.244398 
-0.029570 -0.262372 
-0.031116 -0.258012 
-0.026467 -0.266339 
-0.016719 -0.251959 
-0.019596 -0.253255 
-0.019973 -0.243231 
-0.017611 -0.270605 
-0.018762 -0.262405 
-0.014876 -0.270062 
-0.026418 -0.245011 
-0.022637 -0.254063 
-0.025811 -0.254231 
-0.012711 -0.292818 
-0.013699 -0.288860 
-0.010172 -0.295536 
-0.021949 -0.274255 
-0.017659 -0.281762 
-0.020487 -0.278254 
-0.012321 -0.284754 
-0.014940 -0.283870 
-0.016289 -0.277780 
-0.024766 -0.262222 
-0.020470 -0.270275 
-0.023429 -0.268911 
-0.002544 -0.240420 
-0.001667 -0.232640 
-0.001943 -0.254767 
-0.002618 -0.247733 
-0.005212 -0.234166 
-0.003963 -0.241515 
-0.005545 -0.242961 
0.004324 -0.283914 
0.002803 -0.276201 
-0.002943 -0.267754 
-0.000032 -0.272396 
-0.001457 -0.275824 
0.001028 -0.268823 
-0.000653 -0.261729 
-0.014235 -0.240196 
-0.011568 -0.248470 
-0.014036 -0.250318 
-0.007327 -0.244672 
-0.009331 -0.246546 
-0.009328 -0.236895 
-0.007763 -0.264734 
-0.008764 -0.255813 
-0.005872 -0.262236 
-0.002959 -0.257097 
-0.004267 -0.259637 
-0.005194 -0.251409 
-0.007764 -0.296943 
-0.009810 -0.284563 
-0.008671 -0.291212 
-0.005446 -0.297167 
-0.003205 -0.296308 
-0.013344 -0.259866 
-0.006509 -0.273313 
-0.009916 -0.266975 
-0.012300 -0.268802 
-0.011067 -0.277062 
0.002783 -0.288130 
-0.001055 -0.294451 
0.000963 -0.291689 
-0.000071 -0.283838 
-0.003200 -0.278918 
-0.007427 -0.283435 
-0.005208 -0.281507 
-0.004054 -0.289218 
-0.048630 -0.226579 
-0.044932 -0.230439 
-0.053133 -0.209723 
-0.049192 -0.220328 
-0.057173 -0.206443 
-0.041182 -0.233043 
-0.037420 -0.234588 
-0.063689 -0.161790 
-0.062058 -0.174668 
-0.068531 -0.160856 
-0.047840 -0.201295 
-0.055080 -0.188254 
-0.050381 -0.188822 
-0.064090 -0.184595 
-0.059673 -0.186923 
-0.056660 -0.198597 
-0.026457 -0.234651 
-0.023035 -0.233668 
-0.033686 -0.235260 
-0.030019 -0.235229 
-0.036359 -0.213398 
-0.033361 -0.224698 
-0.040541 -0.213518 
-0.048981 -0.211859 
-0.044766 -0.213061 
-0.041261 -0.224150 
-0.019398 -0.022938 
-0.035176 -0.045876 
-0.027736 -0.033721 
-0.041227 -0.078447 
-0.039467 -0.061793 
-0.033607 -0.059076 
-0.053256 -0.074045 
-0.046266 -0.066593 
-0.053979 -0.085382 
-0.032978 -0.142993 
-0.036574 -0.127644 
-0.031800 -0.126793 
-0.047077 -0.129798 
-0.041676 -0.128638 
-0.042860 -0.144828 
-0.035794 -0.093923 
-0.039362 -0.111649 
-0.041036 -0.095176 
-0.069409 -0.134959 
-0.064065 -0.133940 
-0.064417 -0.148237 
-0.059178 -0.102683 
-0.062413 -0.118801 
-0.065174 -0.106409 
-0.053599 -0.146806 
-0.058428 -0.132558 
-0.052704 -0.131123 
-0.046774 -0.096963 
-0.050510 -0.114522 
-0.052907 -0.099449 
-0.004157 -0.224902 
-0.002057 -0.224397 
-0.008676 -0.226804 
-0.006350 -0.225719 
-0.008210 -0.205680 
-0.007356 -0.216211 
-0.011135 -0.206512 
-0.019780 -0.232407 
-0.016711 -0.230988 
-0.020887 -0.209793 
-0.018947 -0.220851 
-0.024507 -0.210943 
-0.013840 -0.229519 
-0.011165 -0.228095 
-0.024579 -0.156743 
-0.024380 -0.171270 
-0.028836 -0.157568 
-0.015344 -0.195782 
-0.019818 -0.184025 
-0.016172 -0.183141 
-0.027707 -0.185954 
-0.023661 -0.184978 
-0.022477 -0.197828 
-0.012804 -0.218292 
-0.017455 -0.208625 
-0.014209 -0.207511 
-0.058607 -0.161953 
-0.048180 -0.160986 
-0.053398 -0.161619 
-0.052277 -0.175609 
-0.045653 -0.188826 
-0.033341 -0.158438 
-0.031954 -0.186900 
-0.032972 -0.173083 
-0.038088 -0.159324 
-0.043051 -0.160192 
-0.025836 -0.223257 
-0.038926 -0.201313 
-0.032268 -0.212848 
-0.028307 -0.211993 
-0.030372 -0.199873 
-0.042379 -0.174723 
-0.036385 -0.187751 
-0.040967 -0.188426 
0.000000 0.000000 
-0.014903 -0.020172 
-0.010312 -0.018935 
-0.012228 -0.019278 
0.000000 0.000000 
-0.023812 -0.039158 
-0.028723 -0.057594 
-0.005456 -0.018768 
-0.006426 -0.018754 
0.000000 0.000000 
-0.018055 -0.056047 
-0.012520 -0.037459 
-0.015344 -0.055878 
0.000000 0.000000 
-0.007524 -0.018758 
-0.008794 -0.018801 
-0.029741 -0.109899 
-0.027355 -0.126060 
-0.030883 -0.075574 
-0.031048 -0.093040 
-0.022861 -0.091917 
-0.026756 -0.092399 
-0.022842 -0.074405 
-0.017153 -0.037776 
-0.021114 -0.056319 
-0.024623 -0.056780 
0.000000 -0.018854 
-0.000575 -0.018854 
0.000000 0.000000 
-0.001625 -0.055487 
-0.001122 -0.037358 
0.000000 -0.055479 
0.000000 0.000000 
-0.001160 -0.018850 
-0.001765 -0.018844 
-0.002982 -0.123356 
-0.002757 -0.107194 
0.000000 -0.123308 
-0.006347 -0.073307 
-0.004941 -0.090524 
-0.007506 -0.090636 
0.000000 -0.090431 
-0.002452 -0.090456 
-0.002072 -0.073202 
0.000000 0.000000 
-0.003797 -0.018805 
-0.004587 -0.018786 
-0.002399 -0.018834 
-0.003072 -0.018821 
0.000000 0.000000 
-0.008660 -0.055620 
-0.005986 -0.037373 
-0.006766 -0.055571 
-0.003277 -0.055504 
-0.004981 -0.055533 
-0.003441 -0.037364 
-0.002395 -0.215057 
0.000000 -0.224230 
-0.008894 -0.194170 
-0.005405 -0.205057 
0.000000 -0.204539 
-0.002681 -0.204670 
-0.002910 -0.193287 
-0.024206 -0.141442 
-0.020562 -0.155981 
-0.013167 -0.154720 
-0.016767 -0.155301 
-0.016473 -0.140207 
-0.016657 -0.169631 
-0.012703 -0.182364 
0.000000 -0.153620 
-0.003186 -0.153693 
-0.003125 -0.138877 
-0.003074 -0.180958 
-0.003168 -0.167741 
0.000000 -0.180858 
-0.009546 -0.139334 
-0.006415 -0.153905 
-0.009729 -0.154250 
-0.009387 -0.181726 
-0.009671 -0.168401 
-0.006189 -0.181251 
-0.008934 -0.037390 
-0.011022 -0.073514 
-0.010696 -0.055683 
-0.012909 -0.055765 
-0.016396 -0.073843 
-0.006006 -0.123492 
-0.012351 -0.124022 
-0.009115 -0.123715 
-0.008433 -0.107460 
-0.010184 -0.090791 
-0.023219 -0.125425 
-0.019308 -0.091540 
-0.021589 -0.108764 
-0.019364 -0.124878 
-0.015754 -0.124410 
-0.013015 -0.090990 
-0.014600 -0.107981 
-0.016042 -0.091237 
0.000000 0.000000 
0.000575 -0.018854 
0.001765 -0.018844 
0.001160 -0.018850 
0.000000 0.000000 
0.001122 -0.037358 
0.001625 -0.055487 
0.004587 -0.018786 
0.003797 -0.018805 
0.000000 0.000000 
0.006766 -0.055571 
0.005986 -0.037373 
0.008660 -0.055620 
0.000000 0.000000 
0.003072 -0.018821 
0.002399 -0.018834 
0.002757 -0.107194 
0.002982 -0.123356 
0.002072 -0.073202 
0.002452 -0.090456 
0.007506 -0.090636 
0.004941 -0.090524 
0.006347 -0.073307 
0.003441 -0.037364 
0.004981 -0.055533 
0.003277 -0.055504 
0.019398 -0.022938 
0.014903 -0.020172 
0.000000 0.000000 
0.028723 -0.057594 
0.023812 -0.039158 
0.033607 -0.059076 
0.000000 0.000000 
0.012228 -0.019278 
0.010312 -0.018935 
0.027355 -0.126060 
0.029741 -0.109899 
0.031800 -0.126793 
0.022842 -0.074405 
0.026756 -0.092399 
0.022861 -0.091917 
0.035794 -0.093923 
0.031048 -0.093040 
0.030883 -0.075574 
0.000000 0.000000 
0.006426 -0.018754 
0.005456 -0.018768 
0.008794 -0.018801 
0.007524 -0.018758 
0.000000 0.000000 
0.015344 -0.055878 
0.012520 -0.037459 
0.018055 -0.056047 
0.024623 -0.056780 
0.021114 -0.056319 
0.017153 -0.037776 
0.002395 -0.215057 
0.002057 -0.224397 
0.002910 -0.193287 
0.002681 -0.204670 
0.008210 -0.205680 
0.005405 -0.205057 
0.008894 -0.194170 
0.003125 -0.138877 
0.003186 -0.153693 
0.009729 -0.154250 
0.006415 -0.153905 
0.009546 -0.139334 
0.003168 -0.167741 
0.003074 -0.180958 
0.024579 -0.156743 
0.020562 -0.155981 
0.024206 -0.141442 
0.012703 -0.182364 
0.016657 -0.169631 
0.016172 -0.183141 
0.016473 -0.140207 
0.016767 -0.155301 
0.013167 -0.154720 
0.006189 -0.181251 
0.009671 -0.168401 
0.009387 -0.181726 
0.008934 -0.037390 
0.016396 -0.073843 
0.012909 -0.055765 
0.010696 -0.055683 
0.011022 -0.073514 
0.023219 -0.125425 
0.015754 -0.124410 
0.019364 -0.124878 
0.021589 -0.108764 
0.019308 -0.091540 
0.006006 -0.123492 
0.010184 -0.090791 
0.008433 -0.107460 
0.009115 -0.123715 
0.012351 -0.124022 
0.016042 -0.091237 
0.014600 -0.107981 
0.013015 -0.090990 
0.027736 -0.033721 
0.035176 -0.045876 
0.053979 -0.085382 
0.046266 -0.066593 
0.053256 -0.074045 
0.039467 -0.061793 
0.041227 -0.078447 
0.064417 -0.148237 
0.064065 -0.133940 
0.069409 -0.134959 
0.052704 -0.131123 
0.058428 -0.132558 
0.053599 -0.146806 
0.065174 -0.106409 
0.062413 -0.118801 
0.059178 -0.102683 
0.036574 -0.127644 
0.032978 -0.142993 
0.041036 -0.095176 
0.039362 -0.111649 
0.042860 -0.144828 
0.041676 -0.128638 
0.047077 -0.129798 
0.052907 -0.099449 
0.050510 -0.114522 
0.046774 -0.096963 
0.040438 -0.240076 
0.044932 -0.230439 
0.048630 -0.226579 
0.037420 -0.234588 
0.041182 -0.233043 
0.033332 -0.244398 
0.057173 -0.206443 
0.049192 -0.220328 
0.053133 -0.209723 
0.023035 -0.233668 
0.026457 -0.234651 
0.019973 -0.243231 
0.040541 -0.213518 
0.033361 -0.224698 
0.036359 -0.213398 
0.026418 -0.245011 
0.030019 -0.235229 
0.033686 -0.235260 
0.068531 -0.160856 
0.062058 -0.174668 
0.063689 -0.161790 
0.056660 -0.198597 
0.059673 -0.186923 
0.064090 -0.184595 
0.050381 -0.188822 
0.055080 -0.188254 
0.047840 -0.201295 
0.041261 -0.224150 
0.044766 -0.213061 
0.048981 -0.211859 
0.004157 -0.224902 
0.001667 -0.232640 
0.011135 -0.206512 
0.007356 -0.216211 
0.005212 -0.234166 
0.006350 -0.225719 
0.008676 -0.226804 
0.028836 -0.157568 
0.024380 -0.171270 
0.022477 -0.197828 
0.023661 -0.184978 
0.027707 -0.185954 
0.019818 -0.184025 
0.015344 -0.195782 
0.014235 -0.240196 
0.016711 -0.230988 
0.019780 -0.232407 
0.011165 -0.228095 
0.013840 -0.229519 
0.009328 -0.236895 