# vtk DataFile Version 2.0
Unstructured Grid Example
ASCII
DATASET UNSTRUCTURED_GRID

POINTS 4225 float
0.006261 -0.329408 0.000000 
0.993739 -0.329408 0.000000 
1.000000 1.000000 0.000000 
0.000000 1.000000 0.000000 
0.500000 -0.100000 0.000000 
0.956260 0.264273 0.000000 
0.500000 1.000000 0.000000 
0.043740 0.264273 0.000000 
0.500000 0.268138 0.000000 
0.259410 -0.300145 0.000000 
0.500000 -0.001078 0.000000 
0.243172 -0.036376 0.000000 
0.740590 -0.300145 0.000000 
0.756828 -0.036376 0.000000 
0.990423 -0.049378 0.000000 
0.733191 0.258713 0.000000 
0.930799 0.602001 0.000000 
0.721739 0.608092 0.000000 
0.750000 1.000000 0.000000 
0.500000 0.611504 0.000000 
0.250000 1.000000 0.000000 
0.278261 0.608092 0.000000 
0.069201 0.602001 0.000000 
0.266809 0.258713 0.000000 
0.009577 -0.049378 0.000000 
0.132245 -0.323018 0.000000 
0.239601 -0.169699 0.000000 
0.122753 -0.191765 0.000000 
0.500000 -0.096078 0.000000 
0.359821 -0.126005 0.000000 
0.366977 -0.233023 0.000000 
0.374875 0.116883 0.000000 
0.366816 -0.013282 0.000000 
0.500000 0.122635 0.000000 
0.633023 -0.233023 0.000000 
0.640179 -0.126005 0.000000 
0.877247 -0.191765 0.000000 
0.760399 -0.169699 0.000000 
0.867755 -0.323018 0.000000 
0.633184 -0.013282 0.000000 
0.625125 0.116883 0.000000 
0.996354 -0.196117 0.000000 
0.874373 -0.051036 0.000000 
0.845383 0.255293 0.000000 
0.861540 0.097516 0.000000 
0.975218 0.104751 0.000000 
0.745584 0.104922 0.000000 
0.617950 0.265246 0.000000 
0.939390 0.429503 0.000000 
0.831883 0.423771 0.000000 
0.839538 0.798485 0.000000 
0.827102 0.604433 0.000000 
0.939936 0.784348 0.000000 
0.723867 0.426517 0.000000 
0.613064 0.430567 0.000000 
0.875000 1.000000 0.000000 
0.730685 0.801050 0.000000 
0.500000 0.801962 0.000000 
0.616448 0.801736 0.000000 
0.625000 1.000000 0.000000 
0.612172 0.610573 0.000000 
0.500000 0.432325 0.000000 
0.375000 1.000000 0.000000 
0.383552 0.801736 0.000000 
0.160462 0.798485 0.000000 
0.269315 0.801050 0.000000 
0.125000 1.000000 0.000000 
0.387828 0.610573 0.000000 
0.386936 0.430567 0.000000 
0.060064 0.784348 0.000000 
0.172898 0.604433 0.000000 
0.154617 0.255293 0.000000 
0.168117 0.423771 0.000000 
0.060610 0.429503 0.000000 
0.276133 0.426517 0.000000 
0.382050 0.265246 0.000000 
0.024782 0.104751 0.000000 
0.138460 0.097516 0.000000 
0.125627 -0.051036 0.000000 
0.003646 -0.196117 0.000000 
0.254416 0.104922 0.000000 
0.068806 -0.327170 0.000000 
0.126393 -0.258972 0.000000 
0.065488 -0.263007 0.000000 
0.245058 -0.235505 0.000000 
0.186506 -0.250531 0.000000 
0.196143 -0.314750 0.000000 
0.181055 -0.115228 0.000000 
0.181493 -0.183590 0.000000 
0.239782 -0.103601 0.000000 
0.500000 -0.125526 0.000000 
0.423031 -0.145473 0.000000 
0.414843 -0.185157 0.000000 
0.429898 -0.058193 0.000000 
0.426951 -0.105169 0.000000 
0.500000 -0.052939 0.000000 
0.319266 -0.275222 0.000000 
0.359326 -0.178235 0.000000 
0.301720 -0.211217 0.000000 
0.439048 0.191863 0.000000 
0.437050 0.121104 0.000000 
0.500000 0.192933 0.000000 
0.303806 -0.024919 0.000000 
0.370878 0.049495 0.000000 
0.308707 0.041287 0.000000 
0.500000 0.057760 0.000000 
0.434858 0.055537 0.000000 
0.432485 -0.004413 0.000000 
0.298193 -0.149665 0.000000 
0.362931 -0.071587 0.000000 
0.299884 -0.088199 0.000000 
0.585157 -0.185157 0.000000 
0.576969 -0.145473 0.000000 
0.698280 -0.211217 0.000000 
0.640674 -0.178235 0.000000 
0.680734 -0.275222 0.000000 
0.573049 -0.105169 0.000000 
0.570102 -0.058193 0.000000 
0.934512 -0.263007 0.000000 
0.873607 -0.258972 0.000000 
0.931194 -0.327170 0.000000 
0.760218 -0.103601 0.000000 
0.818507 -0.183590 0.000000 
0.818945 -0.115228 0.000000 
0.803857 -0.314750 0.000000 
0.813494 -0.250531 0.000000 
0.754942 -0.235505 0.000000 
0.562950 0.121104 0.000000 
0.560952 0.191863 0.000000 
0.567515 -0.004413 0.000000 
0.565142 0.055537 0.000000 
0.691293 0.041287 0.000000 
0.629122 0.049495 0.000000 
0.696194 -0.024919 0.000000 
0.701807 -0.149665 0.000000 
0.700116 -0.088199 0.000000 
0.637069 -0.071587 0.000000 
0.995572 -0.264792 0.000000 
0.936694 -0.195457 0.000000 
0.932558 -0.052486 0.000000 
0.936138 -0.125118 0.000000 
0.994768 -0.123987 0.000000 
0.877443 -0.122339 0.000000 
0.815943 -0.045479 0.000000 
0.900844 0.257529 0.000000 
0.909786 0.177111 0.000000 
0.965826 0.183815 0.000000 
0.796733 0.176570 0.000000 
0.853490 0.175155 0.000000 
0.789589 0.256096 0.000000 
0.983675 0.026989 0.000000 
0.918573 0.098679 0.000000 
0.926440 0.022150 0.000000 
0.621348 0.188842 0.000000 
0.559185 0.267467 0.000000 
0.751653 0.032905 0.000000 
0.686037 0.111024 0.000000 
0.675996 0.262073 0.000000 
0.680826 0.184584 0.000000 
0.739255 0.180110 0.000000 
0.868779 0.022188 0.000000 
0.803973 0.099993 0.000000 
0.810637 0.026102 0.000000 
0.947196 0.346053 0.000000 
0.892498 0.340068 0.000000 
0.880544 0.512302 0.000000 
0.885467 0.424913 0.000000 
0.933606 0.514749 0.000000 
0.837951 0.338106 0.000000 
0.783190 0.338748 0.000000 
0.909187 0.896438 0.000000 
0.890428 0.793966 0.000000 
0.957531 0.882348 0.000000 
0.774945 0.606385 0.000000 
0.830501 0.699807 0.000000 
0.778370 0.702037 0.000000 
0.932254 0.691617 0.000000 
0.881325 0.696205 0.000000 
0.878712 0.602566 0.000000 
0.615112 0.345901 0.000000 
0.557721 0.347581 0.000000 
0.727898 0.340842 0.000000 
0.671883 0.343470 0.000000 
0.667240 0.517447 0.000000 
0.668842 0.428663 0.000000 
0.721632 0.515664 0.000000 
0.827956 0.512478 0.000000 
0.775143 0.513861 0.000000 
0.778147 0.424647 0.000000 
0.937500 1.000000 0.000000 
0.855067 0.899360 0.000000 
0.739453 0.900147 0.000000 
0.797952 0.900001 0.000000 
0.812500 1.000000 0.000000 
0.786073 0.800270 0.000000 
0.724678 0.703427 0.000000 
0.500000 0.900215 0.000000 
0.560256 0.900204 0.000000 
0.562500 1.000000 0.000000 
0.556989 0.705425 0.000000 
0.558356 0.801897 0.000000 
0.500000 0.705575 0.000000 
0.687500 1.000000 0.000000 
0.620361 0.900193 0.000000 
0.680158 0.900180 0.000000 
0.556692 0.431860 0.000000 
0.500000 0.348170 0.000000 
0.667425 0.609501 0.000000 
0.612019 0.518926 0.000000 
0.500000 0.520254 0.000000 
0.556175 0.519902 0.000000 
0.556256 0.611256 0.000000 
0.674000 0.801470 0.000000 
0.613652 0.705023 0.000000 
0.669661 0.704369 0.000000 
0.437500 1.000000 0.000000 
0.439744 0.900204 0.000000 
0.319842 0.900180 0.000000 
0.379639 0.900193 0.000000 
0.312500 1.000000 0.000000 
0.441644 0.801897 0.000000 
0.443011 0.705425 0.000000 
0.090813 0.896438 0.000000 
0.144933 0.899360 0.000000 
0.062500 1.000000 0.000000 
0.275322 0.703427 0.000000 
0.213927 0.800270 0.000000 
0.221630 0.702037 0.000000 
0.187500 1.000000 0.000000 
0.202048 0.900001 0.000000 
0.260547 0.900147 0.000000 
0.443308 0.431860 0.000000 
0.442279 0.347581 0.000000 
0.443744 0.611256 0.000000 
0.443825 0.519902 0.000000 
0.332760 0.517447 0.000000 
0.387981 0.518926 0.000000 
0.332575 0.609501 0.000000 
0.326000 0.801470 0.000000 
0.330339 0.704369 0.000000 
0.386348 0.705023 0.000000 
0.042469 0.882348 0.000000 
0.109572 0.793966 0.000000 
0.121288 0.602566 0.000000 
0.118675 0.696205 0.000000 
0.067746 0.691617 0.000000 
0.169499 0.699807 0.000000 
0.225055 0.606385 0.000000 
0.099156 0.257529 0.000000 
0.107502 0.340068 0.000000 
0.052804 0.346053 0.000000 
0.216810 0.338748 0.000000 
0.162049 0.338106 0.000000 
0.210411 0.256096 0.000000 
0.066394 0.514749 0.000000 
0.114533 0.424913 0.000000 
0.119456 0.512302 0.000000 
0.384888 0.345901 0.000000 
0.440815 0.267467 0.000000 
0.278368 0.515664 0.000000 
0.331158 0.428663 0.000000 
0.324004 0.262073 0.000000 
0.328117 0.343470 0.000000 
0.272102 0.340842 0.000000 
0.172044 0.512478 0.000000 
0.221853 0.424647 0.000000 
0.224857 0.513861 0.000000 
0.034174 0.183815 0.000000 
0.090214 0.177111 0.000000 
0.073560 0.022150 0.000000 
0.081427 0.098679 0.000000 
0.016325 0.026989 0.000000 
0.146510 0.175155 0.000000 
0.203267 0.176570 0.000000 
0.063306 -0.195457 0.000000 
0.004428 -0.264792 0.000000 
0.184057 -0.045479 0.000000 
0.122557 -0.122339 0.000000 
0.005232 -0.123987 0.000000 
0.063862 -0.125118 0.000000 
0.067442 -0.052486 0.000000 
0.378652 0.188842 0.000000 
0.260745 0.180110 0.000000 
0.319174 0.184584 0.000000 
0.313963 0.111024 0.000000 
0.248347 0.032905 0.000000 
0.131221 0.022188 0.000000 
0.189363 0.026102 0.000000 
0.196027 0.099993 0.000000 
0.037437 -0.328361 0.000000 
0.067172 -0.295541 0.000000 
0.036198 -0.296663 0.000000 
0.129205 -0.291470 0.000000 
0.098190 -0.293908 0.000000 
0.100422 -0.325483 0.000000 
0.094221 -0.228104 0.000000 
0.095998 -0.261413 0.000000 
0.124173 -0.225690 0.000000 
0.250980 -0.268191 0.000000 
0.221212 -0.276666 0.000000 
0.227955 -0.308413 0.000000 
0.212539 -0.210840 0.000000 
0.216027 -0.243998 0.000000 
0.241421 -0.202617 0.000000 
0.164190 -0.319524 0.000000 
0.190856 -0.283129 0.000000 
0.160132 -0.287964 0.000000 
0.211577 -0.075833 0.000000 
0.210335 -0.109965 0.000000 
0.241182 -0.070192 0.000000 
0.152223 -0.188321 0.000000 
0.180768 -0.149565 0.000000 
0.151547 -0.154037 0.000000 
0.239168 -0.136728 0.000000 
0.209935 -0.143804 0.000000 
0.210590 -0.177420 0.000000 
0.156593 -0.255429 0.000000 
0.183374 -0.217279 0.000000 
0.153909 -0.222155 0.000000 
0.500000 -0.128385 0.000000 
0.455188 -0.144165 0.000000 
0.444427 -0.155573 0.000000 
0.461556 -0.116808 0.000000 
0.459398 -0.132069 0.000000 
0.500000 -0.113180 0.000000 
0.389982 -0.210018 0.000000 
0.419950 -0.164406 0.000000 
0.389588 -0.184671 0.000000 
0.465436 -0.029022 0.000000 
0.464705 -0.054287 0.000000 
0.500000 -0.027961 0.000000 
0.392597 -0.114744 0.000000 
0.428487 -0.082564 0.000000 
0.394221 -0.090086 0.000000 
0.500000 -0.075770 0.000000 
0.463885 -0.077531 0.000000 
0.462897 -0.098489 0.000000 
0.290129 -0.289395 0.000000 
0.307645 -0.242851 0.000000 
0.279876 -0.257165 0.000000 
0.361560 -0.204743 0.000000 
0.334505 -0.224674 0.000000 
0.344514 -0.255486 0.000000 
0.328440 -0.166547 0.000000 
0.330051 -0.195290 0.000000 
0.359031 -0.152211 0.000000 
0.425199 -0.126040 0.000000 
0.391151 -0.138348 0.000000 
[...]
POINT_DATA 4225

SCALARS u_h float 2
LOOKUP_TABLE default
0.006261 -0.329408 
-0.006261 -0.329408 
0.000000 0.000000 
0.000000 0.000000 
-0.000000 -0.100000 
-0.043740 -0.235727 
0.000000 0.000000 
0.043740 -0.235727 
-0.000000 -0.231862 
0.009410 -0.300145 
-0.000000 -0.251078 
-0.006828 -0.286376 
-0.009410 -0.300145 
0.006828 -0.286376 
-0.009577 -0.299378 
-0.016809 -0.241287 
-0.069201 -0.147999 
-0.028261 -0.141908 
0.000000 0.000000 
-0.000000 -0.138496 
0.000000 0.000000 
0.028261 -0.141908 
0.069201 -0.147999 
0.016809 -0.241287 
0.009577 -0.299378 
0.007245 -0.323018 
-0.010399 -0.294699 
-0.002247 -0.316765 
-0.000000 -0.221078 
-0.015179 -0.251005 
-0.008023 -0.233023 
-0.000125 -0.258117 
-0.008184 -0.263282 
-0.000000 -0.252365 
0.008023 -0.233023 
0.015179 -0.251005 
0.002247 -0.316765 
0.010399 -0.294699 
-0.007245 -0.323018 
0.008184 -0.263282 
0.000125 -0.258117 
-0.003646 -0.321117 
-0.000627 -0.301036 
-0.029617 -0.244707 
-0.013460 -0.277484 
-0.024782 -0.270249 
-0.004416 -0.270078 
-0.007050 -0.234754 
-0.060610 -0.195497 
-0.043117 -0.201229 
-0.035462 -0.076515 
-0.047898 -0.145567 
-0.060064 -0.090652 
-0.026133 -0.198483 
-0.011936 -0.194433 
0.000000 0.000000 
-0.019315 -0.073950 
-0.000000 -0.073038 
-0.008552 -0.073264 
0.000000 0.000000 
-0.012828 -0.139427 
-0.000000 -0.192675 
0.000000 0.000000 
0.008552 -0.073264 
0.035462 -0.076515 
0.019315 -0.073950 
0.000000 0.000000 
0.012828 -0.139427 
0.011936 -0.194433 
0.060064 -0.090652 
0.047898 -0.145567 
0.029617 -0.244707 
0.043117 -0.201229 
0.060610 -0.195497 
0.026133 -0.198483 
0.007050 -0.234754 
0.024782 -0.270249 
0.013460 -0.277484 
0.000627 -0.301036 
0.003646 -0.321117 
0.004416 -0.270078 
0.006306 -0.327170 
0.001393 -0.321472 
0.002988 -0.325507 
-0.004942 -0.298005 
-0.000994 -0.313031 
0.008643 -0.314750 
-0.006445 -0.302728 
-0.006007 -0.308590 
-0.010218 -0.291101 
-0.000000 -0.188026 
-0.014469 -0.207973 
-0.022657 -0.185157 
-0.007602 -0.245693 
-0.010549 -0.230169 
-0.000000 -0.240439 
0.006766 -0.275222 
-0.015674 -0.240735 
-0.010780 -0.273717 
0.001548 -0.245637 
-0.000450 -0.253896 
-0.000000 -0.244567 
-0.008694 -0.274919 
-0.004122 -0.263005 
-0.003793 -0.271213 
-0.000000 -0.254740 
-0.002642 -0.256963 
-0.005015 -0.254413 
-0.014307 -0.274665 
-0.012069 -0.259087 
-0.012616 -0.275699 
0.022657 -0.185157 
0.014469 -0.207973 
0.010780 -0.273717 
0.015674 -0.240735 
-0.006766 -0.275222 
0.010549 -0.230169 
0.007602 -0.245693 
-0.002988 -0.325507 
-0.001393 -0.321472 
-0.006306 -0.327170 
0.010218 -0.291101 
0.006007 -0.308590 
0.006445 -0.302728 
-0.008643 -0.314750 
0.000994 -0.313031 
0.004942 -0.298005 
0.000450 -0.253896 
-0.001548 -0.245637 
0.005015 -0.254413 
0.002642 -0.256963 
0.003793 -0.271213 
0.004122 -0.263005 
0.008694 -0.274919 
0.014307 -0.274665 
0.012616 -0.275699 
0.012069 -0.259087 
-0.004428 -0.327292 
-0.000806 -0.320457 
-0.004942 -0.302486 
-0.001362 -0.312618 
-0.005232 -0.311487 
0.002443 -0.309839 
0.003443 -0.295479 
-0.036656 -0.242471 
-0.027714 -0.260389 
-0.034174 -0.253685 
-0.015767 -0.260930 
-0.021510 -0.262345 
-0.022911 -0.243904 
-0.016325 -0.285511 
-0.018927 -0.276321 
-0.011060 -0.290350 
-0.003652 -0.248658 
-0.003315 -0.232533 
0.001653 -0.279595 
-0.001463 -0.263976 
-0.011504 -0.237927 
-0.006674 -0.252916 
-0.010745 -0.257390 
-0.006221 -0.290312 
-0.008527 -0.275007 
-0.001863 -0.286398 
-0.052804 -0.216447 
-0.045002 -0.222432 
-0.056956 -0.175198 
-0.052033 -0.200087 
-0.066394 -0.172751 
-0.037049 -0.224394 
-0.029310 -0.223752 
-0.028313 -0.041062 
-0.047072 -0.081034 
-0.042469 -0.055152 
-0.037555 -0.143615 
-0.044499 -0.112693 
-0.034130 -0.110463 
-0.067746 -0.120883 
-0.056175 -0.116295 
-0.058788 -0.147434 
-0.009888 -0.216599 
-0.004779 -0.214919 
-0.022102 -0.221658 
-0.015617 -0.219030 
-0.020260 -0.170053 
-0.018658 -0.196337 
-0.028368 -0.171836 
-0.047044 -0.175022 
-0.037357 -0.173639 
-0.034353 -0.200353 
0.000000 0.000000 
-0.019933 -0.038140 
-0.010547 -0.037353 
-0.014548 -0.037499 
0.000000 0.000000 
-0.026427 -0.074730 
-0.025322 -0.109073 
-0.000000 -0.037285 
-0.002244 -0.037296 
0.000000 0.000000 
-0.005511 -0.107075 
-0.004144 -0.073103 
-0.000000 -0.106925 
0.000000 0.000000 
-0.004639 -0.037307 
-0.007342 -0.037320 
-0.005808 -0.193140 
-0.000000 -0.214330 
-0.020075 -0.140499 
-0.012981 -0.168574 
-0.000000 -0.167246 
-0.006325 -0.167598 
-0.006244 -0.138744 
-0.013500 -0.073530 
-0.011348 -0.107477 
-0.017839 -0.108131 
0.000000 0.000000 
0.002244 -0.037296 
0.007342 -0.037320 
0.004639 -0.037307 
0.000000 0.000000 
0.004144 -0.073103 
0.005511 -0.107075 
0.028313 -0.041062 
0.019933 -0.038140 
0.000000 0.000000 
0.025322 -0.109073 
0.026427 -0.074730 
0.034130 -0.110463 
0.000000 0.000000 
0.014548 -0.037499 
0.010547 -0.037353 
0.005808 -0.193140 
0.004779 -0.214919 
0.006244 -0.138744 
0.006325 -0.167598 
0.020260 -0.170053 
0.012981 -0.168574 
0.020075 -0.140499 
0.013500 -0.073530 
0.017839 -0.108131 
0.011348 -0.107477 
0.042469 -0.055152 
0.047072 -0.081034 
0.058788 -0.147434 
0.056175 -0.116295 
0.067746 -0.120883 
0.044499 -0.112693 
0.037555 -0.143615 
0.036656 -0.242471 
0.045002 -0.222432 
0.052804 -0.216447 
0.029310 -0.223752 
0.037049 -0.224394 
0.022911 -0.243904 
0.066394 -0.172751 
0.052033 -0.200087 
0.056956 -0.175198 
0.009888 -0.216599 
0.003315 -0.232533 
0.028368 -0.171836 
0.018658 -0.196337 
0.011504 -0.237927 
0.015617 -0.219030 
0.022102 -0.221658 
0.047044 -0.175022 
0.034353 -0.200353 
0.037357 -0.173639 
0.034174 -0.253685 
0.027714 -0.260389 
0.011060 -0.290350 
0.018927 -0.276321 
0.016325 -0.285511 
0.021510 -0.262345 
0.015767 -0.260930 
0.000806 -0.320457 
0.004428 -0.327292 
-0.003443 -0.295479 
-0.002443 -0.309839 
0.005232 -0.311487 
0.001362 -0.312618 
0.004942 -0.302486 
0.003652 -0.248658 
0.010745 -0.257390 
0.006674 -0.252916 
0.001463 -0.263976 
-0.001653 -0.279595 
0.006221 -0.290312 
0.001863 -0.286398 
0.008527 -0.275007 
0.006187 -0.328361 
0.004672 -0.326791 
0.004948 -0.327913 
0.004205 -0.322720 
0.004440 -0.325158 
0.006672 -0.325483 
0.000471 -0.321854 
0.002248 -0.323913 
-0.000827 -0.319440 
0.000980 -0.299441 
0.002462 -0.307916 
0.009205 -0.308413 
-0.006211 -0.304590 
-0.002723 -0.306498 
-0.008579 -0.296367 
0.007940 -0.319524 
0.003356 -0.314379 
0.003882 -0.319214 
-0.007173 -0.294583 
-0.008415 -0.297465 
-0.008818 -0.288942 
-0.004027 -0.313321 
-0.006732 -0.305815 
-0.004703 -0.310287 
-0.010832 -0.292978 
-0.008815 -0.300054 
-0.008160 -0.302420 
0.000343 -0.317929 
-0.004126 -0.311029 
-0.002341 -0.315905 
-0.000000 -0.159635 
-0.013562 -0.175415 
-0.024323 -0.155573 
-0.007194 -0.210558 
-0.009352 -0.194569 
-0.000000 -0.206930 
-0.016268 -0.210018 
-0.017550 -0.195656 
-0.016662 -0.215921 
-0.003314 -0.247772 
-0.004045 -0.241787 
-0.000000 -0.246711 
-0.013653 -0.239744 
-0.009013 -0.238814 
-0.012029 -0.246336 
-0.000000 -0.232020 
-0.004865 -0.233781 
-0.005853 -0.223489 
0.008879 -0.289395 
-0.004855 -0.274101 
-0.001374 -0.288415 
-0.013440 -0.235993 
-0.009245 -0.255924 
0.000764 -0.255486 
-0.015310 -0.260297 
-0.013699 -0.257790 
-0.015969 -0.245961 
-0.012301 -0.219790 
-0.015099 -0.232098 
-0.016184 -0.223848 
0.001193 -0.238995 
0.000734 -0.244832 
-0.000000 -0.238789 
-0.000424 -0.255723 
0.000575 -0.250392 
0.001074 -0.251930 
-0.000000 -0.249113 
0.000243 -0.249434 
-0.000278 -0.252752 
-0.008010 -0.280830 
-0.006319 -0.273478 
-0.005587 -0.278517 
-0.006157 -0.263717 
-0.006522 -0.268445 
-0.008775 -0.268949 
-0.001847 -0.264464 
-0.004198 -0.266963 
-0.002105 -0.261137 
-0.000000 -0.253712 
-0.002004 -0.254401 
-0.002639 -0.251928 
-0.000826 -0.254730 
-0.001401 -0.255304 
-0.000000 -0.254264 
-0.006910 -0.258309 
-0.003805 -0.256421 
-0.005230 -0.259610 
-0.001979 -0.258288 
-0.003584 -0.259593 
-0.001524 -0.256102 
-0.007682 -0.287180 
-0.015307 -0.262948 
-0.013515 -0.274024 
-0.011110 -0.286181 
-0.012545 -0.285397 
-0.006277 -0.250864 
-0.010172 -0.261723 
-0.008616 -0.255666 
-0.010331 -0.251669 
-0.013789 -0.255464 
-0.010091 -0.282538 
-0.012599 -0.284656 
-0.011686 -0.283763 
-0.010834 -0.275620 
-0.010897 -0.268537 
-0.014345 -0.265372 
-0.012800 -0.267300 
-0.013865 -0.275312 
0.024323 -0.155573 
0.013562 -0.175415 
0.016662 -0.215921 
0.017550 -0.195656 
0.016268 -0.210018 
0.009352 -0.194569 
0.007194 -0.210558 
0.001374 -0.288415 
0.004855 -0.274101 
-0.008879 -0.289395 
0.015969 -0.245961 
0.013699 -0.257790 
0.015310 -0.260297 
-0.000764 -0.255486 
0.009245 -0.255924 
0.013440 -0.235993 
0.004045 -0.241787 
0.003314 -0.247772 
0.005853 -0.223489 
0.004865 -0.233781 
0.012029 -0.246336 
0.009013 -0.238814 
0.013653 -0.239744 
0.016184 -0.223848 
0.015099 -0.232098 
0.012301 -0.219790 
-0.004948 -0.327913 
-0.004672 -0.326791 
-0.006187 -0.328361 
0.000827 -0.319440 
-0.002248 -0.323913 
-0.000471 -0.321854 
-0.006672 -0.325483 
-0.004440 -0.325158 
-0.004205 -0.322720 
0.008818 -0.288942 
0.008415 -0.297465 
0.007173 -0.294583 
0.008160 -0.302420 
0.008815 -0.300054 
0.010832 -0.292978 
0.004703 -0.310287 
0.006732 -0.305815 
0.004027 -0.313321 
-0.009205 -0.308413 
-0.002462 -0.307916 
-0.000980 -0.299441 
-0.003882 -0.319214 
-0.003356 -0.314379 
-0.007940 -0.319524 
0.008579 -0.296367 
0.002723 -0.306498 
0.006211 -0.304590 
0.002341 -0.315905 
0.004126 -0.311029 
-0.000343 -0.317929 
-0.000734 -0.244832 
-0.001193 -0.238995 
0.000278 -0.252752 
-0.000243 -0.249434 
-0.001074 -0.251930 
-0.000575 -0.250392 
0.000424 -0.255723 
0.002639 -0.251928 
0.002004 -0.254401 
0.005230 -0.259610 
0.003805 -0.256421 
0.006910 -0.258309 
0.001401 -0.255304 
0.000826 -0.254730 
0.005587 -0.278517 
0.006319 -0.273478 
0.008010 -0.280830 
0.002105 -0.261137 
0.004198 -0.266963 
0.001847 -0.264464 
0.008775 -0.268949 
0.006522 -0.268445 
0.006157 -0.263717 
0.001524 -0.256102 
0.003584 -0.259593 
0.001979 -0.258288 
0.007682 -0.287180 
0.012545 -0.285397 
0.011110 -0.286181 
0.013515 -0.274024 
0.015307 -0.262948 
0.010091 -0.282538 
0.010897 -0.268537 
0.010834 -0.275620 
0.011686 -0.283763 
0.012599 -0.284656 
0.006277 -0.250864 
0.013789 -0.255464 
0.010331 -0.251669 
0.008616 -0.255666 
0.010172 -0.261723 
0.013865 -0.275312 
0.012800 -0.267300 
0.014345 -0.265372 
-0.005298 -0.328846 
-0.003690 -0.326531 
-0.002200 -0.321067 
-0.002696 -0.324226 
-0.003807 -0.324696 
-0.001618 -0.323369 
0.000651 -0.319086 
-0.007193 -0.301541 
-0.004870 -0.307298 
-0.007070 -0.305689 
-0.000758 -0.307271 
-0.002793 -0.307816 
-0.002763 -0.302298 
-0.004095 -0.316670 
-0.003244 -0.312519 
-0.002357 -0.317135 
0.005299 -0.299301 
0.005267 -0.291316 
0.002785 -0.313546 
0.004429 -0.306849 
0.001455 -0.298744 
0.003308 -0.303009 
0.001276 -0.305669 
-0.000699 -0.316850 
0.000516 -0.311743 
0.000993 -0.315695 
-0.040211 -0.239773 
-0.035587 -0.248963 
-0.038981 -0.244894 
-0.028871 -0.253253 
-0.032210 -0.251685 
-0.033113 -0.244053 
-0.029409 -0.262132 
-0.030922 -0.257722 
-0.026298 -0.266061 
-0.016518 -0.251460 
-0.019391 -0.252798 
-0.019770 -0.242752 
-0.017433 -0.270215 
-0.018565 -0.261979 
-0.014697 -0.269630 
-0.026204 -0.244605 
-0.022429 -0.253645 
-0.025600 -0.253850 
-0.012690 -0.292634 
-0.013630 -0.288614 
-0.010144 -0.295300 
-0.021809 -0.273987 
-0.017553 -0.281506 
-0.020388 -0.278044 
-0.012205 -0.284410 
-0.014828 -0.283570 
-0.016140 -0.277432 
-0.024569 -0.261871 
-0.020294 -0.269924 
-0.023255 -0.268597 
-0.002463 -0.239670 
-0.001629 -0.231960 
-0.001800 -0.253953 
-0.002503 -0.246938 
-0.005108 -0.233485 
-0.003853 -0.240779 
-0.005409 -0.242251 
0.004400 -0.283291 
0.002929 -0.275502 
-0.002776 -0.267088 
0.000118 -0.271710 
-0.001313 -0.275211 
0.001182 -0.268060 
-0.000496 -0.260926 
-0.014049 -0.239638 
-0.011382 -0.247882 
-0.013841 -0.249775 
-0.007169 -0.243998 
-0.009157 -0.245914 
-0.009174 -0.236265 
-0.007582 -0.264149 
-0.008580 -0.255197 
-0.005694 -0.261592 
-0.002799 -0.256336 
-0.004095 -0.258934 
-0.005034 -0.250692 
-0.007730 -0.296658 
-0.009689 -0.284174 
-0.008592 -0.290873 
-0.005408 -0.296833 
-0.003163 -0.295924 
-0.013150 -0.259351 
-0.006347 -0.272772 
-0.009735 -0.266445 
-0.012119 -0.268323 
-0.010912 -0.276626 
0.002845 -0.287578 
-0.001009 -0.294016 
0.001015 -0.291199 
0.000032 -0.283286 
-0.003063 -0.278370 
-0.007302 -0.282999 
-0.005077 -0.281017 
-0.003965 -0.288782 
-0.048390 -0.226293 
-0.044696 -0.230141 
-0.052875 -0.209444 
-0.048945 -0.220040 
-0.056908 -0.206186 
-0.040949 -0.232728 
-0.037189 -0.234250 
-0.063406 -0.161554 
-0.061780 -0.174421 
-0.068239 -0.160643 
-0.047586 -0.200989 
-0.054813 -0.187978 
-0.050122 -0.188530 
-0.063809 -0.184360 
-0.059399 -0.186666 
-0.056394 -0.198329 
-0.026240 -0.234227 
-0.022826 -0.233211 
-0.033458 -0.234896 
-0.029796 -0.234836 
-0.036124 -0.213038 
-0.033131 -0.224320 
-0.040299 -0.213179 
-0.048728 -0.211561 
-0.044518 -0.212743 
-0.041021 -0.223821 
-0.018979 -0.022733 
-0.034759 -0.045647 
-0.027315 -0.032962 
-0.040934 -0.078265 
-0.039130 -0.061607 
-0.033318 -0.058923 
-0.052874 -0.073833 
-0.045895 -0.066364 
-0.053644 -0.085163 
-0.032766 -0.142726 
-0.036345 -0.127408 
-0.031592 -0.126556 
-0.046814 -0.129562 
-0.041429 -0.128402 
-0.042614 -0.144570 
-0.035554 -0.093740 
-0.039116 -0.111438 
-0.040771 -0.094984 
-0.069107 -0.134769 
-0.063773 -0.133721 
-0.064130 -0.148011 
-0.058865 -0.102469 
-0.062113 -0.118587 
-0.064851 -0.106234 
-0.053328 -0.146557 
-0.058143 -0.132327 
-0.052429 -0.130889 
-0.046487 -0.096760 
-0.050229 -0.114302 
-0.052604 -0.099236 
-0.004098 -0.224270 
-0.002033 -0.223773 
-0.008555 -0.226195 
-0.006258 -0.225094 
-0.008128 -0.205157 
-0.007271 -0.215638 
-0.011024 -0.206000 
-0.019581 -0.231917 
-0.016526 -0.230464 
-0.020705 -0.209338 
-0.018763 -0.220361 
-0.024308 -0.210511 
-0.013672 -0.228962 
-0.011019 -0.227510 
-0.024405 -0.156429 
-0.024203 -0.170922 
-0.028641 -0.157263 
-0.015209 -0.195328 
-0.019662 -0.183627 
-0.016039 -0.182730 
-0.027509 -0.185585 
-0.023482 -0.184593 
-0.022297 -0.197408 
-0.012663 -0.217751 
-0.017294 -0.208148 
-0.014072 -0.207014 
-0.058332 -0.161701 
-0.047922 -0.160714 
-0.053131 -0.161355 
-0.052013 -0.175332 
-0.045402 -0.188519 
-0.033128 -0.158141 
-0.031739 -0.186546 
-0.032757 -0.172757 
-0.037858 -0.159035 
-0.042806 -0.159911 
-0.025624 -0.222824 
-0.038688 -0.200971 
-0.032042 -0.212464 
-0.028093 -0.211585 
-0.030158 -0.199492 
-0.042136 -0.174421 
-0.036155 -0.187413 
-0.040725 -0.188104 
0.000000 0.000000 
-0.014677 -0.020101 
-0.010209 -0.018902 
-0.012084 -0.019236 
0.000000 0.000000 
-0.023562 -0.039053 
-0.028484 -0.057466 
-0.005414 -0.018741 
-0.006375 -0.018727 
0.000000 0.000000 
-0.017919 -0.055950 
-0.012423 -0.037399 
-0.015230 -0.055784 
0.000000 0.000000 
-0.007462 -0.018730 
-0.008716 -0.018772 
-0.029541 -0.109694 
-0.027169 -0.125821 
-0.030657 -0.075423 
-0.030834 -0.092864 
-0.022699 -0.091749 
-0.026568 -0.092229 
-0.022675 -0.074271 
-0.017007 -0.037707 
-0.020951 -0.056217 
-0.024426 -0.056668 
-0.000000 -0.018820 
-0.000570 -0.018822 
0.000000 0.000000 
-0.001612 -0.055382 
-0.001113 -0.037291 
-0.000000 -0.055370 
0.000000 0.000000 
-0.001151 -0.018819 
-0.001751 -0.018814 
-0.002959 -0.123086 
-0.002735 -0.106968 
-0.000000 -0.123031 
-0.006298 -0.073172 
-0.004903 -0.090345 
-0.007448 -0.090461 
-0.000000 -0.090240 
-0.002433 -0.090272 
-0.002056 -0.073058 
0.000000 0.000000 
-0.003769 -0.018777 
-0.004552 -0.018759 
-0.002380 -0.018805 
-0.003049 -0.018793 
0.000000 0.000000 
-0.008595 -0.055526 
-0.005941 -0.037313 
-0.006714 -0.055475 
-0.003251 -0.055404 
-0.004943 -0.055435 
-0.003414 -0.037302 
-0.002371 -0.214479 
-0.000000 -0.223623 
-0.008813 -0.193693 
-0.005352 -0.204526 
-0.000000 -0.204001 
-0.002656 -0.204136 
-0.002884 -0.192797 
-0.024037 -0.141164 
-0.020411 -0.155660 
-0.013065 -0.154383 
-0.016640 -0.154972 
-0.016350 -0.139918 
-0.016527 -0.169262 
-0.012597 -0.181942 
-0.000000 -0.153255 
-0.003161 -0.153336 
-0.003100 -0.138564 
-0.003048 -0.180513 
-0.003142 -0.167340 
-0.000000 -0.180405 
-0.009472 -0.139033 
-0.006364 -0.153555 
-0.009652 -0.153907 
-0.009307 -0.181295 
-0.009592 -0.168014 
-0.006137 -0.180812 
-0.008867 -0.037331 
-0.010940 -0.073383 
-0.010616 -0.055589 
-0.012813 -0.055671 
-0.016276 -0.073714 
-0.005960 -0.123229 
-0.012257 -0.123769 
-0.009045 -0.123457 
-0.008369 -0.107245 
-0.010107 -0.090620 
-0.023056 -0.125184 
-0.019168 -0.091373 
-0.021435 -0.108560 
-0.019223 -0.124633 
-0.015637 -0.124162 
-0.012918 -0.090821 
-0.014491 -0.107772 
-0.015924 -0.091070 
0.000000 0.000000 
0.000570 -0.018822 
0.001751 -0.018814 
0.001151 -0.018819 
0.000000 0.000000 
0.001113 -0.037291 
0.001612 -0.055382 
0.004552 -0.018759 
0.003769 -0.018777 
0.000000 0.000000 
0.006714 -0.055475 
0.005941 -0.037313 
0.008595 -0.055526 
0.000000 0.000000 
0.003049 -0.018793 
0.002380 -0.018805 
0.002735 -0.106968 
0.002959 -0.123086 
0.002056 -0.073058 
0.002433 -0.090272 
0.007448 -0.090461 
0.004903 -0.090345 
0.006298 -0.073172 
0.003414 -0.037302 
0.004943 -0.055435 
0.003251 -0.055404 
0.018979 -0.022733 
0.014677 -0.020101 
0.000000 0.000000 
0.028484 -0.057466 
0.023562 -0.039053 
0.033318 -0.058923 
0.000000 0.000000 
0.012084 -0.019236 
0.010209 -0.018902 
0.027169 -0.125821 
0.029541 -0.109694 
0.031592 -0.126556 
0.022675 -0.074271 
0.026568 -0.092229 
0.022699 -0.091749 
0.035554 -0.093740 
0.030834 -0.092864 
0.030657 -0.075423 
0.000000 0.000000 
0.006375 -0.018727 
0.005414 -0.018741 
0.008716 -0.018772 
0.007462 -0.018730 
0.000000 0.000000 
0.015230 -0.055784 
0.012423 -0.037399 
0.017919 -0.055950 
0.024426 -0.056668 
0.020951 -0.056217 
0.017007 -0.037707 
0.002371 -0.214479 
0.002033 -0.223773 
0.002884 -0.192797 
0.002656 -0.204136 
0.008128 -0.205157 
0.005352 -0.204526 
0.008813 -0.193693 
0.003100 -0.138564 
0.003161 -0.153336 
0.009652 -0.153907 
0.006364 -0.153555 
0.009472 -0.139033 
0.003142 -0.167340 
0.003048 -0.180513 
0.024405 -0.156429 
0.020411 -0.155660 
0.024037 -0.141164 
0.012597 -0.181942 
0.016527 -0.169262 
0.016039 -0.182730 
0.016350 -0.139918 
0.016640 -0.154972 
0.013065 -0.154383 
0.006137 -0.180812 
0.009592 -0.168014 
0.009307 -0.181295 
0.008867 -0.037331 
0.016276 -0.073714 
0.012813 -0.055671 
0.010616 -0.055589 
0.010940 -0.073383 
0.023056 -0.125184 
0.015637 -0.124162 
0.019223 -0.124633 
0.021435 -0.108560 
0.019168 -0.091373 
0.005960 -0.123229 
0.010107 -0.090620 
0.008369 -0.107245 
0.009045 -0.123457 
0.012257 -0.123769 
0.015924 -0.091070 
0.014491 -0.107772 
0.012918 -0.090821 
0.027315 -0.032962 
0.034759 -0.045647 
0.053644 -0.085163 
0.045895 -0.066364 
0.052874 -0.073833 
0.039130 -0.061607 
0.040934 -0.078265 
0.064130 -0.148011 
0.063773 -0.133721 
0.069107 -0.134769 
0.052429 -0.130889 
0.058143 -0.132327 
0.053328 -0.146557 
0.064851 -0.106234 
0.062113 -0.118587 
0.058865 -0.102469 
0.036345 -0.127408 
0.032766 -0.142726 
0.040771 -0.094984 
0.039116 -0.111438 
0.042614 -0.144570 
0.041429 -0.128402 
0.046814 -0.129562 
0.052604 -0.099236 
0.050229 -0.114302 
0.046487 -0.096760 
0.040211 -0.239773 
0.044696 -0.230141 
0.048390 -0.226293 
0.037189 -0.234250 
0.040949 -0.232728 
0.033113 -0.244053 
0.056908 -0.206186 
0.048945 -0.220040 
0.052875 -0.209444 
0.022826 -0.233211 
0.026240 -0.234227 
0.019770 -0.242752 
0.040299 -0.213179 
0.033131 -0.224320 
0.036124 -0.213038 
0.026204 -0.244605 
0.029796 -0.234836 
0.033458 -0.234896 
0.068239 -0.160643 
0.061780 -0.174421 
0.063406 -0.161554 
0.056394 -0.198329 
0.059399 -0.186666 
0.063809 -0.184360 
0.050122 -0.188530 
0.054813 -0.187978 
0.047586 -0.200989 
0.041021 -0.223821 
0.044518 -0.212743 
0.048728 -0.211561 
0.004098 -0.224270 
0.001629 -0.231960 
0.011024 -0.206000 
0.007271 -0.215638 
0.005108 -0.233485 
0.006258 -0.225094 
0.008555 -0.226195 
0.028641 -0.157263 
0.024203 -0.170922 
0.022297 -0.197408 
0.023482 -0.184593 
0.027509 -0.185585 
0.019662 -0.183627 
0.015209 -0.195328 
0.014049 -0.239638 
0.016526 -0.230464 
0.019581 -0.231917 
0.011019 -0.227510 
0.013672 -0.228962 