# vtk DataFile Version 2.0
Unstructured Grid Example
ASCII
DATASET UNSTRUCTURED_GRID

POINTS 81 float
0.013689 -0.324345 0.000000 
0.986311 -0.324345 0.000000 
1.000000 1.000000 0.000000 
0.000000 1.000000 0.000000 
0.500000 -0.100000 0.000000 
0.957659 0.269421 0.000000 
0.500000 1.000000 0.000000 
0.042341 0.269421 0.000000 
0.500000 0.278278 0.000000 
0.258507 -0.286302 0.000000 
0.500000 0.026105 0.000000 
0.245900 -0.028068 0.000000 
0.741493 -0.286302 0.000000 
0.754100 -0.028068 0.000000 
0.988383 -0.043679 0.000000 
0.733989 0.266982 0.000000 
0.936826 0.604382 0.000000 
0.725125 0.613107 0.000000 
0.750000 1.000000 0.000000 
0.500000 0.618168 0.000000 
0.250000 1.000000 0.000000 
0.274875 0.613107 0.000000 
0.063174 0.604382 0.000000 
0.266011 0.266982 0.000000 
0.011617 -0.043679 0.000000 
0.136967 -0.312971 0.000000 
0.244431 -0.160099 0.000000 
0.125384 -0.182588 0.000000 
0.500000 -0.058392 0.000000 
0.365575 -0.116661 0.000000 
0.373037 -0.226963 0.000000 
0.373926 0.129344 0.000000 
0.368093 -0.000539 0.000000 
0.500000 0.140727 0.000000 
0.626963 -0.226963 0.000000 
0.634425 -0.116661 0.000000 
0.874616 -0.182588 0.000000 
0.755569 -0.160099 0.000000 
0.863033 -0.312971 0.000000 
0.631907 -0.000539 0.000000 
0.626074 0.129344 0.000000 
0.994010 -0.189265 0.000000 
0.872141 -0.043592 0.000000 
0.846040 0.262026 0.000000 
0.860897 0.104410 0.000000 
0.974330 0.109513 0.000000 
0.745406 0.113405 0.000000 
0.619141 0.275856 0.000000 
0.943525 0.432245 0.000000 
0.835007 0.429336 0.000000 
0.845138 0.801682 0.000000 
0.832017 0.608688 0.000000 
0.946528 0.789169 0.000000 
0.726201 0.433483 0.000000 
0.614148 0.438717 0.000000 
0.875000 1.000000 0.000000 
0.733347 0.803520 0.000000 
0.500000 0.805422 0.000000 
0.617561 0.804430 0.000000 
0.625000 1.000000 0.000000 
0.613707 0.616167 0.000000 
0.500000 0.441338 0.000000 
0.375000 1.000000 0.000000 
0.382439 0.804430 0.000000 
0.154862 0.801682 0.000000 
0.266653 0.803520 0.000000 
0.125000 1.000000 0.000000 
0.386293 0.616167 0.000000 
0.385852 0.438717 0.000000 
0.053472 0.789169 0.000000 
0.167983 0.608688 0.000000 
0.153960 0.262026 0.000000 
0.164993 0.429336 0.000000 
0.056475 0.432245 0.000000 
0.273799 0.433483 0.000000 
0.380859 0.275856 0.000000 
0.025670 0.109513 0.000000 
0.139103 0.104410 0.000000 
0.127859 -0.043592 0.000000 
0.005990 -0.189265 0.000000 
0.254594 0.113405 0.000000 

CELLS 128 512
3  0 25 27 
3  9 26 25 
3  11 27 26 
3  25 26 27 
3  4 28 30 
3  10 29 28 
3  9 30 29 
3  28 29 30 
3  8 31 33 
3  11 32 31 
3  10 33 32 
3  31 32 33 
3  9 29 26 
3  10 32 29 
3  11 26 32 
3  29 32 26 
3  4 34 28 
3  12 35 34 
3  10 28 35 
3  34 35 28 
3  1 36 38 
3  13 37 36 
3  12 38 37 
3  36 37 38 
3  8 33 40 
3  10 39 33 
3  13 40 39 
3  33 39 40 
3  12 37 35 
3  13 39 37 
3  10 35 39 
3  37 39 35 
3  1 41 36 
3  14 42 41 
3  13 36 42 
3  41 42 36 
3  5 43 45 
3  15 44 43 
3  14 45 44 
3  43 44 45 
3  8 40 47 
3  13 46 40 
3  15 47 46 
3  40 46 47 
3  14 44 42 
3  15 46 44 
3  13 42 46 
3  44 46 42 
3  5 48 43 
3  16 49 48 
3  15 43 49 
3  48 49 43 
3  2 50 52 
3  17 51 50 
3  16 52 51 
3  50 51 52 
3  8 47 54 
3  15 53 47 
3  17 54 53 
3  47 53 54 
3  16 51 49 
3  17 53 51 
3  15 49 53 
3  51 53 49 
3  2 55 50 
3  18 56 55 
3  17 50 56 
3  55 56 50 
3  6 57 59 
3  19 58 57 
3  18 59 58 
3  57 58 59 
3  8 54 61 
3  17 60 54 
3  19 61 60 
3  54 60 61 
3  18 58 56 
3  19 60 58 
3  17 56 60 
3  58 60 56 
3  6 62 57 
3  20 63 62 
3  19 57 63 
3  62 63 57 
3  3 64 66 
3  21 65 64 
3  20 66 65 
3  64 65 66 
3  8 61 68 
3  19 67 61 
3  21 68 67 
3  61 67 68 
3  20 65 63 
3  21 67 65 
3  19 63 67 
3  65 67 63 
3  3 69 64 
3  22 70 69 
3  21 64 70 
3  69 70 64 
3  7 71 73 
3  23 72 71 
3  22 73 72 
3  71 72 73 
3  8 68 75 
3  21 74 68 
3  23 75 74 
3  68 74 75 
3  22 72 70 
3  23 74 72 
3  21 70 74 
3  72 74 70 
3  7 76 71 
3  24 77 76 
3  23 71 77 
3  76 77 71 
3  0 27 79 
3  11 78 27 
3  24 79 78 
3  27 78 79 
3  8 75 31 
3  23 80 75 
3  11 31 80 
3  75 80 31 
3  24 78 77 
3  11 80 78 
3  23 77 80 
3  78 80 77 

CELL_TYPES 128
5
5
5
5
5
5
5
5
5
5
5
5
5
5
5
5
5
5
5
5
5
5
5
5
5
5
5
5
5
5
5
5
5
5
5
5
5
5
5
5
5
5
5
5
5
5
5
5
5
5
5
5
5
5
5
5
5
5
5
5
5
5
5
5
5
5
5
5
5
5
5
5
5
5
5
5
5
5
5
5
5
5
5
5
5
5
5
5
5
5
5
5
5
5
5
5
5
5
5
5
5
5
5
5
5
5
5
5
5
5
5
5
5
5
5
5
5
5
5
5
5
5
5
5
5
5
5
5

POINT_DATA 81

SCALARS u_h float 2
LOOKUP_TABLE default
0.013689 -0.324345 
-0.013689 -0.324345 
0.000000 0.000000 
0.000000 0.000000 
-0.000000 -0.100000 
-0.042341 -0.230579 
0.000000 0.000000 
0.042341 -0.230579 
-0.000000 -0.221722 
0.008507 -0.286302 
-0.000000 -0.223895 
-0.004100 -0.278068 
-0.008507 -0.286302 
0.004100 -0.278068 
-0.011617 -0.293679 
-0.016011 -0.233018 
-0.063174 -0.145618 
-0.024875 -0.136893 
0.000000 0.000000 
-0.000000 -0.131832 
0.000000 0.000000 
0.024875 -0.136893 
0.063174 -0.145618 
0.016011 -0.233018 
0.011617 -0.293679 
0.011967 -0.312971 
-0.005569 -0.285099 
0.000384 -0.307588 
-0.000000 -0.183392 
-0.009425 -0.241661 
-0.001963 -0.226963 
-0.001074 -0.245656 
-0.006907 -0.250539 
-0.000000 -0.234273 
0.001963 -0.226963 
0.009425 -0.241661 
-0.000384 -0.307588 
0.005569 -0.285099 
-0.011967 -0.312971 
0.006907 -0.250539 
0.001074 -0.245656 
-0.005990 -0.314265 
-0.002859 -0.293592 
-0.028960 -0.237974 
-0.014103 -0.270590 
-0.025670 -0.265487 
-0.004594 -0.261595 
-0.005859 -0.224144 
-0.056475 -0.192755 
-0.039993 -0.195664 
-0.029862 -0.073318 
-0.042983 -0.141312 
-0.053472 -0.085831 
-0.023799 -0.191517 
-0.010852 -0.186283 
0.000000 0.000000 
-0.016653 -0.071480 
-0.000000 -0.069578 
-0.007439 -0.070570 
0.000000 0.000000 
-0.011293 -0.133833 
-0.000000 -0.183662 
0.000000 0.000000 
0.007439 -0.070570 
0.029862 -0.073318 
0.016653 -0.071480 
0.000000 0.000000 
0.011293 -0.133833 
0.010852 -0.186283 
0.053472 -0.085831 
0.042983 -0.141312 
0.028960 -0.237974 
0.039993 -0.195664 
0.056475 -0.192755 
0.023799 -0.191517 
0.005859 -0.224144 
0.025670 -0.265487 
0.014103 -0.270590 
0.002859 -0.293592 
0.005990 -0.314265 
0.004594 -0.261595 

CELL_DATA 128

SCALARS epsilon float 4
LOOKUP_TABLE default
-0.001717 0.054139 0.000000 -0.003252
0.002370 0.056250 0.000000 0.047816
-0.050786 0.068634 0.000000 0.091087
-0.027933 0.074610 0.000000 0.037658
0.015580 4.517020 0.000000 1.525349
0.072574 -0.158864 0.000000 0.343099
-0.050424 0.070524 0.000000 0.235902
0.103143 0.018007 0.000000 0.234190
0.008554 0.098776 0.000000 0.041372
-0.031797 0.052132 0.000000 0.129708
0.053735 -0.062184 0.000000 0.115906
0.005491 0.038050 0.000000 0.066925
0.013996 0.107066 0.000000 0.114123
0.049570 -0.054049 0.000000 0.123939
-0.025156 0.075030 0.000000 0.110180
-0.038869 -0.005625 0.000000 0.197058
0.015580 4.517020 0.000000 -1.525349
-0.050424 0.070524 0.000000 -0.235902
0.072574 -0.158864 0.000000 -0.343099
0.103143 0.018007 0.000000 -0.234190
-0.001717 0.054139 0.000000 0.003252
-0.050786 0.068634 0.000000 -0.091087
0.002370 0.056250 0.000000 -0.047816
-0.027933 0.074610 0.000000 -0.037658
0.008554 0.098776 0.000000 -0.041372
0.053735 -0.062184 0.000000 -0.115906
-0.031797 0.052132 0.000000 -0.129708
0.005491 0.038050 0.000000 -0.066925
0.013996 0.107066 0.000000 -0.114123
-0.025156 0.075030 0.000000 -0.110180
0.049570 -0.054049 0.000000 -0.123939
-0.038869 -0.005625 0.000000 -0.197058
-0.040904 0.081901 0.000000 0.007380
-0.071669 0.151368 0.000000 -0.024017
-0.059372 0.110464 0.000000 -0.066017
-0.046670 0.106039 0.000000 -0.034226
-0.099183 0.249995 0.000000 -0.048110
-0.107433 0.224959 0.000000 -0.079043
-0.087631 0.205614 0.000000 -0.043271
-0.087236 0.233019 0.000000 -0.046558
-0.047694 0.156811 0.000000 -0.036721
-0.052483 0.122157 0.000000 -0.092149
-0.086885 0.199821 0.000000 -0.076700
-0.051449 0.157970 0.000000 -0.082705
-0.069223 0.167443 0.000000 -0.047487
-0.081432 0.199809 0.000000 -0.076854
-0.063145 0.122065 0.000000 -0.091004
-0.081413 0.163892 0.000000 -0.077723
-0.102368 0.265983 0.000000 -0.037351
-0.138332 0.312476 0.000000 -0.020280
-0.109048 0.282675 0.000000 -0.060738
-0.135753 0.286714 0.000000 -0.039050
-0.130385 0.517976 0.000000 0.187501
-0.149189 0.417183 0.000000 0.042550
-0.170059 0.378201 0.000000 0.030165
-0.194376 0.424815 0.000000 0.025619
-0.048072 0.259031 0.000000 -0.027246
-0.086770 0.278614 0.000000 -0.058270
-0.109123 0.350617 0.000000 -0.018731
-0.109697 0.258788 0.000000 -0.036938
-0.174550 0.348754 0.000000 -0.024519
-0.155276 0.350531 0.000000 -0.016512
-0.138045 0.279055 0.000000 -0.045762
-0.138188 0.348742 0.000000 -0.023787
0.011336 0.438040 0.000000 0.103121
0.003592 0.429980 0.000000 0.057797
-0.109307 0.403223 0.000000 0.027659
-0.094628 0.440227 0.000000 0.110578
0.000000 0.421518 0.000000 0.000000
-0.061277 0.387735 0.000000 -0.002638
0.000723 0.425946 0.000000 0.025882
-0.060140 0.426240 0.000000 0.024989
-0.090553 0.260810 0.000000 -0.007965
-0.114534 0.339385 0.000000 -0.010300
-0.094385 0.336139 0.000000 -0.005603
-0.090606 0.339339 0.000000 -0.009081
-0.071572 0.430570 0.000000 0.060073
-0.093775 0.392882 0.000000 0.009768
-0.112133 0.403747 0.000000 0.024602
-0.076011 0.392650 0.000000 0.012360
0.000000 0.421518 0.000000 0.000000
0.000723 0.425946 0.000000 -0.025882
-0.061277 0.387735 0.000000 0.002638
-0.060140 0.426240 0.000000 -0.024989
0.011336 0.438040 0.000000 -0.103121
-0.109307 0.403223 0.000000 -0.027659
0.003592 0.429980 0.000000 -0.057797
-0.094628 0.440227 0.000000 -0.110578
-0.090553 0.260810 0.000000 0.007965
-0.094385 0.336139 0.000000 0.005603
-0.114534 0.339385 0.000000 0.010300
-0.090606 0.339339 0.000000 0.009081
-0.071572 0.430570 0.000000 -0.060073
-0.112133 0.403747 0.000000 -0.024602
-0.093775 0.392882 0.000000 -0.009768
-0.076011 0.392650 0.000000 -0.012360
-0.130385 0.517976 0.000000 -0.187501
-0.170059 0.378201 0.000000 -0.030165
-0.149189 0.417183 0.000000 -0.042550
-0.194376 0.424815 0.000000 -0.025619
-0.102368 0.265983 0.000000 0.037351
-0.109048 0.282675 0.000000 0.060738
-0.138332 0.312476 0.000000 0.020280
-0.135753 0.286714 0.000000 0.039050
-0.048072 0.259031 0.000000 0.027246
-0.109123 0.350617 0.000000 0.018731
-0.086770 0.278614 0.000000 0.058270
-0.109697 0.258788 0.000000 0.036938
-0.174550 0.348754 0.000000 0.024519
-0.138045 0.279055 0.000000 0.045762
-0.155276 0.350531 0.000000 0.016512
-0.138188 0.348742 0.000000 0.023787
-0.099183 0.249995 0.000000 0.048110
-0.087631 0.205614 0.000000 0.043271
-0.107433 0.224959 0.000000 0.079043
-0.087236 0.233019 0.000000 0.046558
-0.040904 0.081901 0.000000 -0.007380
-0.059372 0.110464 0.000000 0.066017
-0.071669 0.151368 0.000000 0.024017
-0.046670 0.106039 0.000000 0.034226
-0.047694 0.156811 0.000000 0.036721
-0.086885 0.199821 0.000000 0.076700
-0.052483 0.122157 0.000000 0.092149
-0.051449 0.157970 0.000000 0.082705
-0.069223 0.167443 0.000000 0.047487
-0.063145 0.122065 0.000000 0.091004
-0.081432 0.199809 0.000000 0.076854
-0.081413 0.163892 0.000000 0.077723

SCALARS sigma float 4
LOOKUP_TABLE default
0.339728 1.238617 0.433611 -0.013258
0.228847 0.837341 0.292909 0.821457
-0.865959 0.831074 -0.009584 1.565648
-0.291477 1.181098 0.244401 0.708284
-19.634339 -52.757604 -19.887896 24.634854
-2.942318 -11.953384 -4.092226 5.258140
-2.386215 -3.049084 -1.493214 4.066588
1.540857 -1.699300 -0.043528 3.412069
1.137348 2.494111 0.997654 0.672772
-0.605044 0.398482 -0.056748 2.176701
0.476980 -1.866712 -0.381795 1.806269
0.455078 0.933888 0.381584 1.082023
0.683294 1.335690 0.554666 1.892868
0.460432 -1.661517 -0.329968 1.960033
-0.165697 1.087618 0.253275 1.846979
-1.902822 -2.640355 -1.248126 3.374792
-19.634339 -52.757604 -19.887896 -24.634854
-2.386215 -3.049084 -1.493214 -4.066588
-2.942318 -11.953384 -4.092226 -5.258140
1.540857 -1.699300 -0.043528 -3.412069
0.339728 1.238617 0.433611 0.013258
-0.865959 0.831074 -0.009584 -1.565648
0.228847 0.837341 0.292909 -0.821457
-0.291477 1.181098 0.244401 -0.708284
1.137348 2.494111 0.997654 -0.672772
0.476980 -1.866712 -0.381795 -1.806269
-0.605044 0.398482 -0.056748 -2.176701
0.455078 0.933888 0.381584 -1.082023
0.683294 1.335690 0.554666 -1.892868
-0.165697 1.087618 0.253275 -1.846979
0.460432 -1.661517 -0.329968 -1.960033
-1.902822 -2.640355 -1.248126 -3.374792
-0.376078 1.611397 0.339373 0.064739
-0.576106 2.978546 0.660011 -0.346094
-0.636195 1.988063 0.371392 -1.127132
-0.269162 2.154553 0.517965 -0.565855
-0.725459 4.782633 1.114608 -0.529024
-1.138164 4.172925 0.833726 -1.154729
-0.698690 3.972595 0.899425 -0.525742
-0.466502 4.578150 1.129574 -0.556845
0.135063 3.352575 0.958142 -0.549873
-0.391564 2.319183 0.529566 -1.507980
-0.685774 3.841463 0.866948 -1.185953
-0.015861 3.191270 0.872365 -1.349463
-0.436912 3.347809 0.799697 -0.675097
-0.526600 3.900907 0.927008 -1.186414
-0.691774 2.208028 0.416553 -1.498620
-0.839686 3.082665 0.616203 -1.220821
-0.628880 5.113908 1.232150 -0.377898
-1.232297 5.742236 1.238994 -0.207733
-0.630104 5.430188 1.318704 -0.876735
-1.414164 5.212427 1.043479 -0.457792
-0.908823 9.268223 2.296538 1.904423
-0.844649 7.687567 1.879923 0.431210
-1.767976 6.679315 1.349269 0.284949
-2.299862 7.217168 1.350908 0.031643
1.004420 5.626428 1.821661 -0.391975
0.027563 5.585024 1.541919 -0.896405
-0.019542 6.864605 1.880512 -0.321426
-0.778865 4.936874 1.142310 -0.575284
-2.081681 6.053219 1.091082 -0.398187
-1.440762 6.326771 1.342310 -0.293383
-1.504000 5.036150 0.970371 -0.676503
-0.922213 6.493196 1.530490 -0.375137
3.697007 9.760098 3.697007 1.234711
3.638032 9.604405 3.638032 0.695025
0.341755 7.907977 2.266410 0.307145
0.666319 8.647314 2.558690 1.292399
3.575846 9.440233 3.575846 0.000000
1.653991 8.144033 2.691765 -0.046180
3.608425 9.526241 3.608425 0.311913
1.948918 8.902276 2.981097 0.287342
-0.175781 5.211401 1.383412 -0.144357
-0.264911 6.582194 1.735517 -0.181520
0.309093 6.744838 1.937893 -0.102015
0.443800 6.850823 2.004017 -0.154962
1.560301 8.826964 2.853644 0.708856
0.751216 7.888409 2.373524 0.088682
0.260002 7.884061 2.237380 0.249059
1.265055 8.080054 2.567337 0.138401
3.575846 9.440233 3.575846 0.000000
3.608425 9.526241 3.608425 -0.311913
1.653991 8.144033 2.691765 0.046180
1.948918 8.902276 2.981097 -0.287342
3.697007 9.760098 3.697007 -1.234711
0.341755 7.907977 2.266410 -0.307145
3.638032 9.604405 3.638032 -0.695025
0.666319 8.647314 2.558690 -1.292399
-0.175781 5.211401 1.383412 0.144357
0.309093 6.744838 1.937893 0.102015
-0.264911 6.582194 1.735517 0.181520
0.443800 6.850823 2.004017 0.154962
1.560301 8.826964 2.853644 -0.708856
0.260002 7.884061 2.237380 -0.249059
0.751216 7.888409 2.373524 -0.088682
1.265055 8.080054 2.567337 -0.138401
-0.908823 9.268223 2.296538 -1.904423
-1.767976 6.679315 1.349269 -0.284949
-0.844649 7.687567 1.879923 -0.431210
-2.299862 7.217168 1.350908 -0.031643
-0.628880 5.113908 1.232150 0.377898
-0.630104 5.430188 1.318704 0.876735
-1.232297 5.742236 1.238994 0.207733
-1.414164 5.212427 1.043479 0.457792
1.004420 5.626428 1.821661 0.391975
-0.019542 6.864605 1.880512 0.321426
0.027563 5.585024 1.541919 0.896405
-0.778865 4.936874 1.142310 0.575284
-2.081681 6.053219 1.091082 0.398187
-1.504000 5.036150 0.970371 0.676503
-1.440762 6.326771 1.342310 0.293383
-0.922213 6.493196 1.530490 0.375137
-0.725459 4.782633 1.114608 0.529024
-0.698690 3.972595 0.899425 0.525742
-1.138164 4.172925 0.833726 1.154729
-0.466502 4.578150 1.129574 0.556845
-0.376078 1.611397 0.339373 -0.064739
-0.636195 1.988063 0.371392 1.127132
-0.576106 2.978546 0.660011 0.346094
-0.269162 2.154553 0.517965 0.565855
0.135063 3.352575 0.958142 0.549873
-0.685774 3.841463 0.866948 1.185953
-0.391564 2.319183 0.529566 1.507980
-0.015861 3.191270 0.872365 1.349463
-0.436912 3.347809 0.799697 0.675097
-0.691774 2.208028 0.416553 1.498620
-0.526600 3.900907 0.927008 1.186414
-0.839686 3.082665 0.616203 1.220821

