# vtk DataFile Version 2.0
Unstructured Grid Example
ASCII
DATASET UNSTRUCTURED_GRID

POINTS 4 float
0.000000 10.563835 0.000000 
0.500000 -21.127670 0.000000 
0.500000 -21.127670 0.000000 
1.000000 10.563835 0.000000 

CELLS 2 6
2  0 1 
2  2 3 

CELL_TYPES 2
3
3

POINT_DATA 4

SCALARS lambda_h float 1
LOOKUP_TABLE default
10.563835 
-21.127670 
-21.127670 
10.563835 

