# vtk DataFile Version 2.0
Unstructured Grid Example
ASCII
DATASET UNSTRUCTURED_GRID

POINTS 256 float
0.000000 0.000000 0.000000 
0.007812 0.000000 0.000000 
0.007812 0.000000 0.000000 
0.015625 0.000000 0.000000 
0.015625 0.000000 0.000000 
0.023438 0.000000 0.000000 
0.023438 0.000000 0.000000 
0.031250 0.000000 0.000000 
0.046875 0.000000 0.000000 
0.054688 0.000000 0.000000 
0.054688 0.000000 0.000000 
0.062500 0.000000 0.000000 
0.031250 0.000000 0.000000 
0.039062 0.000000 0.000000 
0.039062 0.000000 0.000000 
0.046875 0.000000 0.000000 
0.109375 0.000000 0.000000 
0.117188 0.000000 0.000000 
0.117188 0.000000 0.000000 
0.125000 0.000000 0.000000 
0.093750 0.000000 0.000000 
0.101562 0.000000 0.000000 
0.101562 0.000000 0.000000 
0.109375 0.000000 0.000000 
0.062500 0.000000 0.000000 
0.070312 0.000000 0.000000 
0.070312 0.000000 0.000000 
0.078125 0.000000 0.000000 
0.078125 0.000000 0.000000 
0.085938 0.000000 0.000000 
0.085938 0.000000 0.000000 
0.093750 0.000000 0.000000 
0.234375 0.000000 0.000000 
0.242188 0.000000 0.000000 
0.242188 0.000000 0.000000 
0.250000 0.000000 0.000000 
0.218750 0.000000 0.000000 
0.226562 0.000000 0.000000 
0.226562 0.000000 0.000000 
0.234375 0.000000 0.000000 
0.187500 0.000000 0.000000 
0.195312 0.000000 0.000000 
0.195312 0.000000 0.000000 
0.203125 0.000000 0.000000 
0.203125 0.000000 0.000000 
0.210938 0.000000 0.000000 
0.210938 0.000000 0.000000 
0.218750 0.000000 0.000000 
0.125000 0.000000 0.000000 
0.132812 0.000000 0.000000 
0.132812 0.000000 0.000000 
0.140625 0.000000 0.000000 
0.140625 0.000000 0.000000 
0.148438 0.000000 0.000000 
0.148438 0.000000 0.000000 
0.156250 0.000000 0.000000 
0.171875 0.000000 0.000000 
0.179688 0.000000 0.000000 
0.179688 0.000000 0.000000 
0.187500 0.000000 0.000000 
0.156250 0.000000 0.000000 
0.164062 0.000000 0.000000 
0.164062 0.000000 0.000000 
0.171875 0.000000 0.000000 
0.484375 -10.449123 0.000000 
0.492188 -37.223132 0.000000 
0.492188 39.846417 0.000000 
0.500000 -164.588221 0.000000 
0.468750 -10.966147 0.000000 
0.476562 -17.894408 0.000000 
0.476562 -11.796183 0.000000 
0.484375 -23.162598 0.000000 
0.437500 -7.614535 0.000000 
0.445312 -10.205023 0.000000 
0.445312 -8.315065 0.000000 
0.453125 -11.394451 0.000000 
0.453125 -9.102430 0.000000 
0.460938 -12.899107 0.000000 
0.460938 -9.991528 0.000000 
0.468750 -14.917587 0.000000 
0.375000 -3.529775 0.000000 
0.382812 -4.911106 0.000000 
0.382812 -3.980770 0.000000 
0.390625 -5.390447 0.000000 
0.390625 -4.433125 0.000000 
0.398438 -5.895415 0.000000 
0.398438 -4.894411 0.000000 
0.406250 -6.435133 0.000000 
0.421875 -6.407212 0.000000 
0.429688 -8.392575 0.000000 
0.429688 -6.983544 0.000000 
0.437500 -9.225274 0.000000 
0.406250 -5.371939 0.000000 
0.414062 -7.020798 0.000000 
0.414062 -5.873357 0.000000 
0.421875 -7.666821 0.000000 
0.250000 0.000000 0.000000 
0.257812 0.000000 0.000000 
0.257812 0.000000 0.000000 
0.265625 0.000000 0.000000 
0.265625 0.000000 0.000000 
0.273438 0.000000 0.000000 
0.273438 0.000000 0.000000 
0.281250 0.000000 0.000000 
0.296875 0.000000 0.000000 
0.304688 0.000000 0.000000 
0.304688 0.000000 0.000000 
0.312500 0.000000 0.000000 
0.281250 0.000000 0.000000 
0.289062 0.000000 0.000000 
0.289062 0.000000 0.000000 
0.296875 0.000000 0.000000 
0.359375 -2.595345 0.000000 
0.367188 -3.998662 0.000000 
0.367188 -3.071560 0.000000 
0.375000 -4.449548 0.000000 
0.343750 -1.498938 0.000000 
0.351562 -3.111614 0.000000 
0.351562 -2.084994 0.000000 
0.359375 -3.552179 0.000000 
0.312500 0.000000 0.000000 
0.320312 0.000000 0.000000 
0.320312 0.000000 0.000000 
0.328125 0.000000 0.000000 
0.328125 0.964978 0.000000 
0.335938 -1.929955 0.000000 
0.335938 0.106541 0.000000 
0.343750 -3.108016 0.000000 
0.500000 -164.588221 0.000000 
0.507812 39.846417 0.000000 
0.507812 -37.223132 0.000000 
0.515625 -10.449123 0.000000 
0.515625 -23.162598 0.000000 
0.523438 -11.796183 0.000000 
0.523438 -17.894408 0.000000 
0.531250 -10.966147 0.000000 
0.546875 -11.394451 0.000000 
0.554688 -8.315065 0.000000 
0.554688 -10.205023 0.000000 
0.562500 -7.614535 0.000000 
0.531250 -14.917587 0.000000 
0.539062 -9.991528 0.000000 
0.539062 -12.899107 0.000000 
0.546875 -9.102430 0.000000 
0.609375 -5.390447 0.000000 
0.617188 -3.980770 0.000000 
0.617188 -4.911106 0.000000 
0.625000 -3.529775 0.000000 
0.593750 -6.435133 0.000000 
0.601562 -4.894411 0.000000 
0.601562 -5.895415 0.000000 
0.609375 -4.433125 0.000000 
0.562500 -9.225274 0.000000 
0.570312 -6.983544 0.000000 
0.570312 -8.392575 0.000000 
0.578125 -6.407212 0.000000 
0.578125 -7.666821 0.000000 
0.585938 -5.873357 0.000000 
0.585938 -7.020798 0.000000 
0.593750 -5.371939 0.000000 
0.734375 0.000000 0.000000 
0.742188 0.000000 0.000000 
0.742188 0.000000 0.000000 
0.750000 0.000000 0.000000 
0.718750 0.000000 0.000000 
0.726562 0.000000 0.000000 
0.726562 0.000000 0.000000 
0.734375 0.000000 0.000000 
0.687500 0.000000 0.000000 
0.695312 0.000000 0.000000 
0.695312 0.000000 0.000000 
0.703125 0.000000 0.000000 
0.703125 0.000000 0.000000 
0.710938 0.000000 0.000000 
0.710938 0.000000 0.000000 
0.718750 0.000000 0.000000 
0.625000 -4.449548 0.000000 
0.632812 -3.071560 0.000000 
0.632812 -3.998662 0.000000 
0.640625 -2.595345 0.000000 
0.640625 -3.552179 0.000000 
0.648438 -2.084994 0.000000 
0.648438 -3.111614 0.000000 
0.656250 -1.498938 0.000000 
0.671875 0.000000 0.000000 
0.679688 0.000000 0.000000 
0.679688 0.000000 0.000000 
0.687500 0.000000 0.000000 
0.656250 -3.108016 0.000000 
0.664062 0.106541 0.000000 
0.664062 -1.929955 0.000000 
0.671875 0.964978 0.000000 
0.984375 0.000000 0.000000 
0.992188 0.000000 0.000000 
0.992188 0.000000 0.000000 
1.000000 0.000000 0.000000 
0.968750 0.000000 0.000000 
0.976562 0.000000 0.000000 
0.976562 0.000000 0.000000 
0.984375 0.000000 0.000000 
0.937500 0.000000 0.000000 
0.945312 0.000000 0.000000 
0.945312 0.000000 0.000000 
0.953125 0.000000 0.000000 
0.953125 0.000000 0.000000 
0.960938 0.000000 0.000000 
0.960938 0.000000 0.000000 
0.968750 0.000000 0.000000 
0.875000 0.000000 0.000000 
0.882812 0.000000 0.000000 
0.882812 0.000000 0.000000 
0.890625 0.000000 0.000000 
0.890625 0.000000 0.000000 
0.898438 0.000000 0.000000 
0.898438 0.000000 0.000000 
0.906250 0.000000 0.000000 
0.921875 0.000000 0.000000 
0.929688 0.000000 0.000000 
0.929688 0.000000 0.000000 
0.937500 0.000000 0.000000 
0.906250 0.000000 0.000000 
0.914062 0.000000 0.000000 
0.914062 0.000000 0.000000 
0.921875 0.000000 0.000000 
0.750000 0.000000 0.000000 
0.757812 0.000000 0.000000 
0.757812 0.000000 0.000000 
0.765625 0.000000 0.000000 
0.765625 0.000000 0.000000 
0.773438 0.000000 0.000000 
0.773438 0.000000 0.000000 
0.781250 0.000000 0.000000 
0.796875 0.000000 0.000000 
0.804688 0.000000 0.000000 
0.804688 0.000000 0.000000 
0.812500 0.000000 0.000000 
0.781250 0.000000 0.000000 
0.789062 0.000000 0.000000 
0.789062 0.000000 0.000000 
0.796875 0.000000 0.000000 
0.859375 0.000000 0.000000 
0.867188 0.000000 0.000000 
0.867188 0.000000 0.000000 
0.875000 0.000000 0.000000 
0.843750 0.000000 0.000000 
0.851562 0.000000 0.000000 
0.851562 0.000000 0.000000 
0.859375 0.000000 0.000000 
0.812500 0.000000 0.000000 
0.820312 0.000000 0.000000 
0.820312 0.000000 0.000000 
0.828125 0.000000 0.000000 
0.828125 0.000000 0.000000 
0.835938 0.000000 0.000000 
0.835938 0.000000 0.000000 
0.843750 0.000000 0.000000 

CELLS 128 384
2  0 1 
2  2 3 
2  4 5 
2  6 7 
2  8 9 
2  10 11 
2  12 13 
2  14 15 
2  16 17 
2  18 19 
2  20 21 
2  22 23 
2  24 25 
2  26 27 
2  28 29 
2  30 31 
2  32 33 
2  34 35 
2  36 37 
2  38 39 
2  40 41 
2  42 43 
2  44 45 
2  46 47 
2  48 49 
2  50 51 
2  52 53 
2  54 55 
2  56 57 
2  58 59 
2  60 61 
2  62 63 
2  64 65 
2  66 67 
2  68 69 
2  70 71 
2  72 73 
2  74 75 
2  76 77 
2  78 79 
2  80 81 
2  82 83 
2  84 85 
2  86 87 
2  88 89 
2  90 91 
2  92 93 
2  94 95 
2  96 97 
2  98 99 
2  100 101 
2  102 103 
2  104 105 
2  106 107 
2  108 109 
2  110 111 
2  112 113 
2  114 115 
2  116 117 
2  118 119 
2  120 121 
2  122 123 
2  124 125 
2  126 127 
2  128 129 
2  130 131 
2  132 133 
2  134 135 
2  136 137 
2  138 139 
2  140 141 
2  142 143 
2  144 145 
2  146 147 
2  148 149 
2  150 151 
2  152 153 
2  154 155 
2  156 157 
2  158 159 
2  160 161 
2  162 163 
2  164 165 
2  166 167 
2  168 169 
2  170 171 
2  172 173 
2  174 175 
2  176 177 
2  178 179 
2  180 181 
2  182 183 
2  184 185 
2  186 187 
2  188 189 
2  190 191 
2  192 193 
2  194 195 
2  196 197 
2  198 199 
2  200 201 
2  202 203 
2  204 205 
2  206 207 
2  208 209 
2  210 211 
2  212 213 
2  214 215 
2  216 217 
2  218 219 
2  220 221 
2  222 223 
2  224 225 
2  226 227 
2  228 229 
2  230 231 
2  232 233 
2  234 235 
2  236 237 
2  238 239 
2  240 241 
2  242 243 
2  244 245 
2  246 247 
2  248 249 
2  250 251 
2  252 253 
2  254 255 

CELL_TYPES 128
3
3
3
3
3
3
3
3
3
3
3
3
3
3
3
3
3
3
3
3
3
3
3
3
3
3
3
3
3
3
3
3
3
3
3
3
3
3
3
3
3
3
3
3
3
3
3
3
3
3
3
3
3
3
3
3
3
3
3
3
3
3
3
3
3
3
3
3
3
3
3
3
3
3
3
3
3
3
3
3
3
3
3
3
3
3
3
3
3
3
3
3
3
3
3
3
3
3
3
3
3
3
3
3
3
3
3
3
3
3
3
3
3
3
3
3
3
3
3
3
3
3
3
3
3
3
3
3

POINT_DATA 256

SCALARS lambda_h float 1
LOOKUP_TABLE default
0.000000 
0.000000 
0.000000 
0.000000 
0.000000 
0.000000 
0.000000 
0.000000 
0.000000 
0.000000 
0.000000 
0.000000 
0.000000 
0.000000 
0.000000 
0.000000 
0.000000 
0.000000 
0.000000 
0.000000 
0.000000 
0.000000 
0.000000 
0.000000 
0.000000 
0.000000 
0.000000 
0.000000 
0.000000 
0.000000 
0.000000 
0.000000 
0.000000 
0.000000 
0.000000 
0.000000 
0.000000 
0.000000 
0.000000 
0.000000 
0.000000 
0.000000 
0.000000 
0.000000 
0.000000 
0.000000 
0.000000 
0.000000 
0.000000 
0.000000 
0.000000 
0.000000 
0.000000 
0.000000 
0.000000 
0.000000 
0.000000 
0.000000 
0.000000 
0.000000 
0.000000 
0.000000 
0.000000 
0.000000 
-10.449123 
-37.223132 
39.846417 
-164.588221 
-10.966147 
-17.894408 
-11.796183 
-23.162598 
-7.614535 
-10.205023 
-8.315065 
-11.394451 
-9.102430 
-12.899107 
-9.991528 
-14.917587 
-3.529775 
-4.911106 
-3.980770 
-5.390447 
-4.433125 
-5.895415 
-4.894411 
-6.435133 
-6.407212 
-8.392575 
-6.983544 
-9.225274 
-5.371939 
-7.020798 
-5.873357 
-7.666821 
0.000000 
0.000000 
0.000000 
0.000000 
0.000000 
0.000000 
0.000000 
0.000000 
0.000000 
0.000000 
0.000000 
0.000000 
0.000000 
0.000000 
0.000000 
0.000000 
-2.595345 
-3.998662 
-3.071560 
-4.449548 
-1.498938 
-3.111614 
-2.084994 
-3.552179 
0.000000 
0.000000 
0.000000 
0.000000 
0.964978 
-1.929955 
0.106541 
-3.108016 
-164.588221 
39.846417 
-37.223132 
-10.449123 
-23.162598 
-11.796183 
-17.894408 
-10.966147 
-11.394451 
-8.315065 
-10.205023 
-7.614535 
-14.917587 
-9.991528 
-12.899107 
-9.102430 
-5.390447 
-3.980770 
-4.911106 
-3.529775 
-6.435133 
-4.894411 
-5.895415 
-4.433125 
-9.225274 
-6.983544 
-8.392575 
-6.407212 
-7.666821 
-5.873357 
-7.020798 
-5.371939 
0.000000 
0.000000 
0.000000 
0.000000 
0.000000 
0.000000 
0.000000 
0.000000 
0.000000 
0.000000 
0.000000 
0.000000 
0.000000 
0.000000 
0.000000 
0.000000 
-4.449548 
-3.071560 
-3.998662 
-2.595345 
-3.552179 
-2.084994 
-3.111614 
-1.498938 
0.000000 
0.000000 
0.000000 
0.000000 
-3.108016 
0.106541 
-1.929955 
0.964978 
0.000000 
0.000000 
0.000000 
0.000000 
0.000000 
0.000000 
0.000000 
0.000000 
0.000000 
0.000000 
0.000000 
0.000000 
0.000000 
0.000000 
0.000000 
0.000000 
0.000000 
0.000000 
0.000000 
0.000000 
0.000000 
0.000000 
0.000000 
0.000000 
0.000000 
0.000000 
0.000000 
0.000000 
0.000000 
0.000000 
0.000000 
0.000000 
0.000000 
0.000000 
0.000000 
0.000000 
0.000000 
0.000000 
0.000000 
0.000000 
0.000000 
0.000000 
0.000000 
0.000000 
0.000000 
0.000000 
0.000000 
0.000000 
0.000000 
0.000000 
0.000000 
0.000000 
0.000000 
0.000000 
0.000000 
0.000000 
0.000000 
0.000000 
0.000000 
0.000000 
0.000000 
0.000000 
0.000000 
0.000000 

