# vtk DataFile Version 2.0
Unstructured Grid Example
ASCII
DATASET UNSTRUCTURED_GRID

POINTS 25 float
0.007699 -0.306699 0.000000 
0.992301 -0.306699 0.000000 
1.000000 1.000000 0.000000 
0.000000 1.000000 0.000000 
0.500000 -0.100000 0.000000 
0.958637 0.280335 0.000000 
0.500000 1.000000 0.000000 
0.041363 0.280335 0.000000 
0.500000 0.296318 0.000000 
0.250534 -0.268621 0.000000 
0.500000 0.054276 0.000000 
0.246646 -0.015103 0.000000 
0.749466 -0.268621 0.000000 
0.753354 -0.015103 0.000000 
0.988575 -0.030154 0.000000 
0.732704 0.278632 0.000000 
0.944270 0.609687 0.000000 
0.729370 0.620698 0.000000 
0.750000 1.000000 0.000000 
0.500000 0.629013 0.000000 
0.250000 1.000000 0.000000 
0.270630 0.620698 0.000000 
0.055730 0.609687 0.000000 
0.267296 0.278632 0.000000 
0.011425 -0.030154 0.000000 

CELLS 32 128
3  0 9 11 
3  4 10 9 
3  8 11 10 
3  9 10 11 
3  4 12 10 
3  1 13 12 
3  8 10 13 
3  12 13 10 
3  1 14 13 
3  5 15 14 
3  8 13 15 
3  14 15 13 
3  5 16 15 
3  2 17 16 
3  8 15 17 
3  16 17 15 
3  2 18 17 
3  6 19 18 
3  8 17 19 
3  18 19 17 
3  6 20 19 
3  3 21 20 
3  8 19 21 
3  20 21 19 
3  3 22 21 
3  7 23 22 
3  8 21 23 
3  22 23 21 
3  7 24 23 
3  0 11 24 
3  8 23 11 
3  24 11 23 

CELL_TYPES 32
5
5
5
5
5
5
5
5
5
5
5
5
5
5
5
5
5
5
5
5
5
5
5
5
5
5
5
5
5
5
5
5

POINT_DATA 25

SCALARS u_h float 2
LOOKUP_TABLE default
0.007699 -0.306699 
-0.007699 -0.306699 
0.000000 0.000000 
0.000000 0.000000 
-0.000000 -0.100000 
-0.041363 -0.219665 
0.000000 0.000000 
0.041363 -0.219665 
-0.000000 -0.203682 
0.000534 -0.268621 
-0.000000 -0.195724 
-0.003354 -0.265103 
-0.000534 -0.268621 
0.003354 -0.265103 
-0.011425 -0.280154 
-0.017296 -0.221368 
-0.055730 -0.140313 
-0.020630 -0.129302 
0.000000 0.000000 
-0.000000 -0.120987 
0.000000 0.000000 
0.020630 -0.129302 
0.055730 -0.140313 
0.017296 -0.221368 
0.011425 -0.280154 

CELL_DATA 32

SCALARS epsilon float 4
LOOKUP_TABLE default
-0.026546 0.028274 0.000000 0.067039
-0.002139 0.171889 0.000000 0.546490
0.013327 0.007663 0.000000 0.143294
0.017631 0.054321 0.000000 0.129119
-0.002139 0.171889 0.000000 -0.546490
-0.026546 0.028274 0.000000 -0.067039
0.013327 0.007663 0.000000 -0.143294
0.017631 0.054321 0.000000 -0.129119
-0.061614 0.101414 0.000000 -0.034951
-0.094447 0.214514 0.000000 -0.061012
-0.074006 0.156850 0.000000 -0.073358
-0.062530 0.157063 0.000000 -0.068475
-0.099360 0.270283 0.000000 -0.027389
-0.129290 0.430971 0.000000 0.098704
-0.072245 0.306223 0.000000 -0.032353
-0.150412 0.305604 0.000000 -0.022860
0.001479 0.398999 0.000000 0.036466
0.000000 0.379299 0.000000 0.000000
-0.085899 0.279824 0.000000 -0.012396
-0.082194 0.401024 0.000000 0.028829
0.000000 0.379299 0.000000 0.000000
0.001479 0.398999 0.000000 -0.036466
-0.085899 0.279824 0.000000 0.012396
-0.082194 0.401024 0.000000 -0.028829
-0.129290 0.430971 0.000000 -0.098704
-0.099360 0.270283 0.000000 0.027389
-0.072245 0.306223 0.000000 0.032353
-0.150412 0.305604 0.000000 0.022860
-0.094447 0.214514 0.000000 0.061012
-0.061614 0.101414 0.000000 0.034951
-0.074006 0.156850 0.000000 0.073358
-0.062530 0.157063 0.000000 0.068475

SCALARS sigma float 4
LOOKUP_TABLE default
-0.551304 0.158481 -0.107918 1.135742
-6.261285 -16.401965 -6.226168 8.981676
0.020750 -0.735562 -0.196377 2.319315
0.638503 0.648930 0.353691 2.081479
-6.261285 -16.401965 -6.226168 -8.981676
-0.551304 0.158481 -0.107918 -1.135742
0.020750 -0.735562 -0.196377 -2.319315
0.638503 0.648930 0.353691 -2.081479
-0.730903 1.875959 0.314576 -0.592273
-0.836928 4.101492 0.896858 -0.824512
-0.671334 3.009113 0.642247 -1.155917
-0.335080 3.152896 0.774125 -1.064066
-0.390761 5.305632 1.350239 -0.348777
-0.447417 8.064516 2.092610 1.084991
0.702823 6.339932 1.934823 -0.541753
-1.639415 5.456715 1.048709 -0.400260
3.408948 8.999624 3.408948 0.446000
3.261216 8.609610 3.261216 0.000000
0.111102 5.662583 1.586177 -0.223384
1.104034 8.155880 2.543932 0.289608
3.261216 8.609610 3.261216 0.000000
3.408948 8.999624 3.408948 -0.446000
0.111102 5.662583 1.586177 0.223384
1.104034 8.155880 2.543932 -0.289608
-0.447417 8.064516 2.092610 -1.084991
-0.390761 5.305632 1.350239 0.348777
0.702823 6.339932 1.934823 0.541753
-1.639415 5.456715 1.048709 0.400260
-0.836928 4.101492 0.896858 0.824512
-0.730903 1.875959 0.314576 0.592273
-0.671334 3.009113 0.642247 1.155917
-0.335080 3.152896 0.774125 1.064066

