# vtk DataFile Version 2.0
Unstructured Grid Example
ASCII
DATASET UNSTRUCTURED_GRID

POINTS 9 float
-0.011833 -0.282851 0.000000 
1.011833 -0.282851 0.000000 
1.000000 1.000000 0.000000 
0.000000 1.000000 0.000000 
0.500000 -0.100000 0.000000 
0.960528 0.301568 0.000000 
0.500000 1.000000 0.000000 
0.039472 0.301568 0.000000 
0.500000 0.315371 0.000000 

CELLS 8 32
3  0 4 8 
3  4 1 8 
3  1 5 8 
3  5 2 8 
3  2 6 8 
3  6 3 8 
3  3 7 8 
3  7 0 8 

CELL_TYPES 8
5
5
5
5
5
5
5
5

POINT_DATA 9

SCALARS u_h float 2
LOOKUP_TABLE default
-0.011833 -0.282851 
0.011833 -0.282851 
0.000000 0.000000 
0.000000 0.000000 
0.000000 -0.100000 
-0.039472 -0.198432 
0.000000 0.000000 
0.039472 -0.198432 
0.000000 -0.184629 

CELL_DATA 8

SCALARS epsilon float 4
LOOKUP_TABLE default
0.023387 -0.090522 0.000000 0.219988
0.023387 -0.090522 0.000000 -0.219988
-0.080086 0.152633 0.000000 -0.066293
-0.078481 0.326255 0.000000 0.029555
0.000000 0.306040 0.000000 -0.000000
0.000000 0.306040 0.000000 -0.000000
-0.078481 0.326255 0.000000 -0.029555
-0.080086 0.152633 0.000000 0.066293

SCALARS sigma float 4
LOOKUP_TABLE default
-1.427077 -5.147614 -1.806234 3.526285
-1.427077 -5.147614 -1.806234 -3.526285
-0.916457 2.868144 0.536178 -0.994458
0.638913 6.693731 2.014463 0.326648
2.696773 7.119480 2.696773 -0.000000
2.696773 7.119480 2.696773 -0.000000
0.638913 6.693731 2.014463 -0.326648
-0.916457 2.868144 0.536178 0.994458

