# vtk DataFile Version 2.0
Unstructured Grid Example
ASCII
DATASET UNSTRUCTURED_GRID

POINTS 289 float
0.011169 -0.329216 0.000000 
0.988831 -0.329216 0.000000 
1.000000 1.000000 0.000000 
0.000000 1.000000 0.000000 
0.500000 -0.100000 0.000000 
0.957313 0.266391 0.000000 
0.500000 1.000000 0.000000 
0.042687 0.266391 0.000000 
0.500000 0.271945 0.000000 
0.260417 -0.294062 0.000000 
0.500000 0.009548 0.000000 
0.243884 -0.032631 0.000000 
0.739583 -0.294062 0.000000 
0.756116 -0.032631 0.000000 
0.989860 -0.047584 0.000000 
0.734077 0.262266 0.000000 
0.933268 0.602984 0.000000 
0.723157 0.610091 0.000000 
0.750000 1.000000 0.000000 
0.500000 0.614026 0.000000 
0.250000 1.000000 0.000000 
0.276843 0.610091 0.000000 
0.066732 0.602984 0.000000 
0.265923 0.262266 0.000000 
0.010140 -0.047584 0.000000 
0.135980 -0.319426 0.000000 
0.241879 -0.165518 0.000000 
0.124109 -0.188290 0.000000 
0.500000 -0.078472 0.000000 
0.361890 -0.120784 0.000000 
0.370244 -0.229756 0.000000 
0.374086 0.122586 0.000000 
0.366704 -0.006912 0.000000 
0.500000 0.129542 0.000000 
0.629756 -0.229756 0.000000 
0.638110 -0.120784 0.000000 
0.875891 -0.188290 0.000000 
0.758121 -0.165518 0.000000 
0.864020 -0.319426 0.000000 
0.633296 -0.006912 0.000000 
0.625914 0.122586 0.000000 
0.995035 -0.194372 0.000000 
0.873780 -0.048172 0.000000 
0.846231 0.257957 0.000000 
0.861840 0.100248 0.000000 
0.975387 0.106434 0.000000 
0.746079 0.108726 0.000000 
0.618751 0.269805 0.000000 
0.941238 0.430751 0.000000 
0.833415 0.426057 0.000000 
0.841730 0.799681 0.000000 
0.829144 0.606217 0.000000 
0.942720 0.786332 0.000000 
0.725068 0.429396 0.000000 
0.613660 0.433893 0.000000 
0.875000 1.000000 0.000000 
0.731787 0.802010 0.000000 
0.500000 0.803226 0.000000 
0.616931 0.802749 0.000000 
0.625000 1.000000 0.000000 
0.612851 0.612755 0.000000 
0.500000 0.435823 0.000000 
0.375000 1.000000 0.000000 
0.383069 0.802749 0.000000 
0.158270 0.799681 0.000000 
0.268213 0.802010 0.000000 
0.125000 1.000000 0.000000 
0.387149 0.612755 0.000000 
0.386340 0.433893 0.000000 
0.057280 0.786332 0.000000 
0.170856 0.606217 0.000000 
0.153769 0.257957 0.000000 
0.166585 0.426057 0.000000 
0.058762 0.430751 0.000000 
0.274932 0.429396 0.000000 
0.381249 0.269805 0.000000 
0.024613 0.106434 0.000000 
0.138160 0.100248 0.000000 
0.126220 -0.048172 0.000000 
0.004965 -0.194372 0.000000 
0.253921 0.108726 0.000000 
0.073272 -0.325017 0.000000 
0.128386 -0.255197 0.000000 
0.067696 -0.260522 0.000000 
0.247266 -0.230326 0.000000 
0.188367 -0.245724 0.000000 
0.198784 -0.309803 0.000000 
0.182338 -0.111677 0.000000 
0.183190 -0.179481 0.000000 
0.241339 -0.099814 0.000000 
0.500000 -0.102686 0.000000 
0.425744 -0.137086 0.000000 
0.422014 -0.177986 0.000000 
0.429718 -0.048552 0.000000 
0.427564 -0.095451 0.000000 
0.500000 -0.039497 0.000000 
0.318689 -0.269455 0.000000 
0.363066 -0.174411 0.000000 
0.305048 -0.207173 0.000000 
0.438406 0.197428 0.000000 
0.436432 0.127735 0.000000 
0.500000 0.198310 0.000000 
0.304236 -0.020305 0.000000 
0.370318 0.055661 0.000000 
0.308446 0.046026 0.000000 
0.500000 0.066335 0.000000 
0.434287 0.063279 0.000000 
0.432020 0.004403 0.000000 
0.300885 -0.145778 0.000000 
0.363637 -0.065473 0.000000 
0.301334 -0.083924 0.000000 
0.577986 -0.177986 0.000000 
0.574256 -0.137086 0.000000 
0.694952 -0.207173 0.000000 
0.636934 -0.174411 0.000000 
0.681311 -0.269455 0.000000 
0.572436 -0.095451 0.000000 
0.570282 -0.048552 0.000000 
0.932304 -0.260522 0.000000 
0.871614 -0.255197 0.000000 
0.926728 -0.325017 0.000000 
0.758661 -0.099814 0.000000 
0.816810 -0.179481 0.000000 
0.817662 -0.111677 0.000000 
0.801216 -0.309803 0.000000 
0.811633 -0.245724 0.000000 
0.752734 -0.230326 0.000000 
0.563568 0.127735 0.000000 
0.561594 0.197428 0.000000 
0.567980 0.004403 0.000000 
0.565713 0.063279 0.000000 
0.691554 0.046026 0.000000 
0.629682 0.055661 0.000000 
0.695764 -0.020305 0.000000 
0.699115 -0.145778 0.000000 
0.698666 -0.083924 0.000000 
0.636363 -0.065473 0.000000 
0.993151 -0.263690 0.000000 
0.935453 -0.192917 0.000000 
0.932026 -0.050121 0.000000 
0.935294 -0.122652 0.000000 
0.993899 -0.122093 0.000000 
0.876456 -0.119236 0.000000 
0.815237 -0.042194 0.000000 
0.901752 0.259851 0.000000 
0.910422 0.179425 0.000000 
0.966393 0.185661 0.000000 
0.797442 0.179731 0.000000 
0.854152 0.177871 0.000000 
0.790440 0.259164 0.000000 
0.983455 0.028670 0.000000 
0.918825 0.100966 0.000000 
0.926280 0.024449 0.000000 
0.622210 0.193983 0.000000 
0.559696 0.272127 0.000000 
0.751647 0.036700 0.000000 
0.686712 0.115678 0.000000 
0.676893 0.266167 0.000000 
0.681698 0.189005 0.000000 
0.740047 0.183833 0.000000 
0.868635 0.024947 0.000000 
0.804340 0.103188 0.000000 
0.810513 0.029311 0.000000 
0.948663 0.347648 0.000000 
0.893794 0.342173 0.000000 
0.882528 0.514025 0.000000 
0.887130 0.426811 0.000000 
0.935786 0.515786 0.000000 
0.839164 0.340604 0.000000 
0.784340 0.341618 0.000000 
0.911742 0.897826 0.000000 
0.893080 0.795356 0.000000 
0.960007 0.885992 0.000000 
0.776701 0.608288 0.000000 
0.832706 0.701309 0.000000 
0.780180 0.703546 0.000000 
0.934957 0.692824 0.000000 
0.883842 0.697705 0.000000 
0.880983 0.604161 0.000000 
0.615719 0.349832 0.000000 
0.557932 0.351538 0.000000 
0.728959 0.344103 0.000000 
0.672777 0.347118 0.000000 
0.668249 0.520064 0.000000 
0.669778 0.431802 0.000000 
0.722963 0.518118 0.000000 
0.829763 0.514522 0.000000 
0.776739 0.516125 0.000000 
0.779537 0.427239 0.000000 
0.937500 1.000000 0.000000 
0.856437 0.899956 0.000000 
0.740042 0.900577 0.000000 
0.798817 0.900452 0.000000 
0.812500 1.000000 0.000000 
0.787641 0.801288 0.000000 
0.726055 0.704931 0.000000 
0.500000 0.900828 0.000000 
0.560392 0.900727 0.000000 
0.562500 1.000000 0.000000 
0.557295 0.707134 0.000000 
0.558596 0.802998 0.000000 
0.500000 0.707486 0.000000 
0.687500 1.000000 0.000000 
0.620624 0.900666 0.000000 
0.680563 0.900624 0.000000 
0.556939 0.435290 0.000000 
0.500000 0.351938 0.000000 
0.668474 0.611585 0.000000 
0.612671 0.521682 0.000000 
0.500000 0.523319 0.000000 
0.556476 0.522792 0.000000 
0.556583 0.613570 0.000000 
0.674757 0.802438 0.000000 
0.614280 0.706617 0.000000 
0.670641 0.705899 0.000000 
0.437500 1.000000 0.000000 
0.439608 0.900727 0.000000 
0.319437 0.900624 0.000000 
0.379376 0.900666 0.000000 
0.312500 1.000000 0.000000 
0.441404 0.802998 0.000000 
0.442705 0.707134 0.000000 
0.088258 0.897826 0.000000 
0.143563 0.899956 0.000000 
0.062500 1.000000 0.000000 
0.273945 0.704931 0.000000 
0.212359 0.801288 0.000000 
0.219820 0.703546 0.000000 
0.187500 1.000000 0.000000 
0.201183 0.900452 0.000000 
0.259958 0.900577 0.000000 
0.443061 0.435290 0.000000 
0.442068 0.351538 0.000000 
0.443417 0.613570 0.000000 
0.443524 0.522792 0.000000 
0.331751 0.520064 0.000000 
0.387329 0.521682 0.000000 
0.331526 0.611585 0.000000 
0.325243 0.802438 0.000000 
0.329359 0.705899 0.000000 
0.385720 0.706617 0.000000 
0.039993 0.885992 0.000000 
0.106920 0.795356 0.000000 
0.119017 0.604161 0.000000 
0.116158 0.697705 0.000000 
0.065043 0.692824 0.000000 
0.167294 0.701309 0.000000 
0.223299 0.608288 0.000000 
0.098248 0.259851 0.000000 
0.106206 0.342173 0.000000 
0.051337 0.347648 0.000000 
0.215660 0.341618 0.000000 
0.160836 0.340604 0.000000 
0.209560 0.259164 0.000000 
0.064214 0.515786 0.000000 
0.112870 0.426811 0.000000 
0.117472 0.514025 0.000000 
0.384281 0.349832 0.000000 
0.440304 0.272127 0.000000 
0.277037 0.518118 0.000000 
0.330222 0.431802 0.000000 
0.323107 0.266167 0.000000 
0.327223 0.347118 0.000000 
0.271041 0.344103 0.000000 
0.170237 0.514522 0.000000 
0.220463 0.427239 0.000000 
0.223261 0.516125 0.000000 
0.033607 0.185661 0.000000 
0.089578 0.179425 0.000000 
0.073720 0.024449 0.000000 
0.081175 0.100966 0.000000 
0.016545 0.028670 0.000000 
0.145848 0.177871 0.000000 
0.202558 0.179731 0.000000 
0.064547 -0.192917 0.000000 
0.006849 -0.263690 0.000000 
0.184763 -0.042194 0.000000 
0.123544 -0.119236 0.000000 
0.006101 -0.122093 0.000000 
0.064706 -0.122652 0.000000 
0.067974 -0.050121 0.000000 
0.377790 0.193983 0.000000 
0.259953 0.183833 0.000000 
0.318302 0.189005 0.000000 
0.313288 0.115678 0.000000 
0.248353 0.036700 0.000000 
0.131365 0.024947 0.000000 
0.189487 0.029311 0.000000 
0.195660 0.103188 0.000000 

CELLS 512 2048
3  0 81 83 
3  25 82 81 
3  27 83 82 
3  81 82 83 
3  9 84 86 
3  26 85 84 
3  25 86 85 
3  84 85 86 
3  11 87 89 
3  27 88 87 
3  26 89 88 
3  87 88 89 
3  25 85 82 
3  26 88 85 
3  27 82 88 
3  85 88 82 
3  4 90 92 
3  28 91 90 
3  30 92 91 
3  90 91 92 
3  10 93 95 
3  29 94 93 
3  28 95 94 
3  93 94 95 
3  9 96 98 
3  30 97 96 
3  29 98 97 
3  96 97 98 
3  28 94 91 
3  29 97 94 
3  30 91 97 
3  94 97 91 
3  8 99 101 
3  31 100 99 
3  33 101 100 
3  99 100 101 
3  11 102 104 
3  32 103 102 
3  31 104 103 
3  102 103 104 
3  10 105 107 
3  33 106 105 
3  32 107 106 
3  105 106 107 
3  31 103 100 
3  32 106 103 
3  33 100 106 
3  103 106 100 
3  9 98 84 
3  29 108 98 
3  26 84 108 
3  98 108 84 
3  10 107 93 
3  32 109 107 
3  29 93 109 
3  107 109 93 
3  11 89 102 
3  26 110 89 
3  32 102 110 
3  89 110 102 
3  29 109 108 
3  32 110 109 
3  26 108 110 
3  109 110 108 
3  4 111 90 
3  34 112 111 
3  28 90 112 
3  111 112 90 
3  12 113 115 
3  35 114 113 
3  34 115 114 
3  113 114 115 
3  10 95 117 
3  28 116 95 
3  35 117 116 
3  95 116 117 
3  34 114 112 
3  35 116 114 
3  28 112 116 
3  114 116 112 
3  1 118 120 
3  36 119 118 
3  38 120 119 
3  118 119 120 
3  13 121 123 
3  37 122 121 
3  36 123 122 
3  121 122 123 
3  12 124 126 
3  38 125 124 
3  37 126 125 
3  124 125 126 
3  36 122 119 
3  37 125 122 
3  38 119 125 
3  122 125 119 
3  8 101 128 
3  33 127 101 
3  40 128 127 
3  101 127 128 
3  10 129 105 
3  39 130 129 
3  33 105 130 
3  129 130 105 
3  13 131 133 
3  40 132 131 
3  39 133 132 
3  131 132 133 
3  33 130 127 
3  39 132 130 
3  40 127 132 
3  130 132 127 
3  12 126 113 
3  37 134 126 
3  35 113 134 
3  126 134 113 
3  13 133 121 
3  39 135 133 
3  37 121 135 
3  133 135 121 
3  10 117 129 
3  35 136 117 
3  39 129 136 
3  117 136 129 
3  37 135 134 
3  39 136 135 
3  35 134 136 
3  135 136 134 
3  1 137 118 
3  41 138 137 
3  36 118 138 
3  137 138 118 
3  14 139 141 
3  42 140 139 
3  41 141 140 
3  139 140 141 
3  13 123 143 
3  36 142 123 
3  42 143 142 
3  123 142 143 
3  41 140 138 
3  42 142 140 
3  36 138 142 
3  140 142 138 
3  5 144 146 
3  43 145 144 
3  45 146 145 
3  144 145 146 
3  15 147 149 
3  44 148 147 
3  43 149 148 
3  147 148 149 
3  14 150 152 
3  45 151 150 
3  44 152 151 
3  150 151 152 
3  43 148 145 
3  44 151 148 
3  45 145 151 
3  148 151 145 
3  8 128 154 
3  40 153 128 
3  47 154 153 
3  128 153 154 
3  13 155 131 
3  46 156 155 
3  40 131 156 
3  155 156 131 
3  15 157 159 
3  47 158 157 
3  46 159 158 
3  157 158 159 
3  40 156 153 
3  46 158 156 
3  47 153 158 
3  156 158 153 
3  14 152 139 
3  44 160 152 
3  42 139 160 
3  152 160 139 
3  15 159 147 
3  46 161 159 
3  44 147 161 
3  159 161 147 
3  13 143 155 
3  42 162 143 
3  46 155 162 
3  143 162 155 
3  44 161 160 
3  46 162 161 
3  42 160 162 
3  161 162 160 
3  5 163 144 
3  48 164 163 
3  43 144 164 
3  163 164 144 
3  16 165 167 
3  49 166 165 
3  48 167 166 
3  165 166 167 
3  15 149 169 
3  43 168 149 
3  49 169 168 
3  149 168 169 
3  48 166 164 
3  49 168 166 
3  43 164 168 
3  166 168 164 
3  2 170 172 
3  50 171 170 
3  52 172 171 
3  170 171 172 
3  17 173 175 
3  51 174 173 
3  50 175 174 
3  173 174 175 
3  16 176 178 
3  52 177 176 
3  51 178 177 
3  176 177 178 
3  50 174 171 
3  51 177 174 
3  52 171 177 
3  174 177 171 
3  8 154 180 
3  47 179 154 
3  54 180 179 
3  154 179 180 
3  15 181 157 
3  53 182 181 
3  47 157 182 
3  181 182 157 
3  17 183 185 
3  54 184 183 
3  53 185 184 
3  183 184 185 
3  47 182 179 
3  53 184 182 
3  54 179 184 
3  182 184 179 
3  16 178 165 
3  51 186 178 
3  49 165 186 
3  178 186 165 
3  17 185 173 
3  53 187 185 
3  51 173 187 
3  185 187 173 
3  15 169 181 
3  49 188 169 
3  53 181 188 
3  169 188 181 
3  51 187 186 
3  53 188 187 
3  49 186 188 
3  187 188 186 
3  2 189 170 
3  55 190 189 
3  50 170 190 
3  189 190 170 
3  18 191 193 
3  56 192 191 
3  55 193 192 
3  191 192 193 
3  17 175 195 
3  50 194 175 
3  56 195 194 
3  175 194 195 
3  55 192 190 
3  56 194 192 
3  50 190 194 
3  192 194 190 
3  6 196 198 
3  57 197 196 
3  59 198 197 
3  196 197 198 
3  19 199 201 
3  58 200 199 
3  57 201 200 
3  199 200 201 
3  18 202 204 
3  59 203 202 
3  58 204 203 
3  202 203 204 
3  57 200 197 
3  58 203 200 
3  59 197 203 
3  200 203 197 
3  8 180 206 
3  54 205 180 
3  61 206 205 
3  180 205 206 
3  17 207 183 
3  60 208 207 
3  54 183 208 
3  207 208 183 
3  19 209 211 
3  61 210 209 
3  60 211 210 
3  209 210 211 
3  54 208 205 
3  60 210 208 
3  61 205 210 
3  208 210 205 
3  18 204 191 
3  58 212 204 
3  56 191 212 
3  204 212 191 
3  19 211 199 
3  60 213 211 
3  58 199 213 
3  211 213 199 
3  17 195 207 
3  56 214 195 
3  60 207 214 
3  195 214 207 
3  58 213 212 
3  60 214 213 
3  56 212 214 
3  213 214 212 
3  6 215 196 
3  62 216 215 
3  57 196 216 
3  215 216 196 
3  20 217 219 
3  63 218 217 
3  62 219 218 
3  217 218 219 
3  19 201 221 
3  57 220 201 
3  63 221 220 
3  201 220 221 
3  62 218 216 
3  63 220 218 
3  57 216 220 
3  218 220 216 
3  3 222 224 
3  64 223 222 
3  66 224 223 
3  222 223 224 
3  21 225 227 
3  65 226 225 
3  64 227 226 
3  225 226 227 
3  20 228 230 
3  66 229 228 
3  65 230 229 
3  228 229 230 
3  64 226 223 
3  65 229 226 
3  66 223 229 
3  226 229 223 
3  8 206 232 
3  61 231 206 
3  68 232 231 
3  206 231 232 
3  19 233 209 
3  67 234 233 
3  61 209 234 
3  233 234 209 
3  21 235 237 
3  68 236 235 
3  67 237 236 
3  235 236 237 
3  61 234 231 
3  67 236 234 
3  68 231 236 
3  234 236 231 
3  20 230 217 
3  65 238 230 
3  63 217 238 
3  230 238 217 
3  21 237 225 
3  67 239 237 
3  65 225 239 
3  237 239 225 
3  19 221 233 
3  63 240 221 
3  67 233 240 
3  221 240 233 
3  65 239 238 
3  67 240 239 
3  63 238 240 
3  239 240 238 
3  3 241 222 
3  69 242 241 
3  64 222 242 
3  241 242 222 
3  22 243 245 
3  70 244 243 
3  69 245 244 
3  243 244 245 
3  21 227 247 
3  64 246 227 
3  70 247 246 
3  227 246 247 
3  69 244 242 
3  70 246 244 
3  64 242 246 
3  244 246 242 
3  7 248 250 
3  71 249 248 
3  73 250 249 
3  248 249 250 
3  23 251 253 
3  72 252 251 
3  71 253 252 
3  251 252 253 
3  22 254 256 
3  73 255 254 
3  72 256 255 
3  254 255 256 
3  71 252 249 
3  72 255 252 
3  73 249 255 
3  252 255 249 
3  8 232 258 
3  68 257 232 
3  75 258 257 
3  232 257 258 
3  21 259 235 
3  74 260 259 
3  68 235 260 
3  259 260 235 
3  23 261 263 
3  75 262 261 
3  74 263 262 
3  261 262 263 
3  68 260 257 
3  74 262 260 
3  75 257 262 
3  260 262 257 
3  22 256 243 
3  72 264 256 
3  70 243 264 
3  256 264 243 
3  23 263 251 
3  74 265 263 
3  72 251 265 
3  263 265 251 
3  21 247 259 
3  70 266 247 
3  74 259 266 
3  247 266 259 
3  72 265 264 
3  74 266 265 
3  70 264 266 
3  265 266 264 
3  7 267 248 
3  76 268 267 
3  71 248 268 
3  267 268 248 
3  24 269 271 
3  77 270 269 
3  76 271 270 
3  269 270 271 
3  23 253 273 
3  71 272 253 
3  77 273 272 
3  253 272 273 
3  76 270 268 
3  77 272 270 
3  71 268 272 
3  270 272 268 
3  0 83 275 
3  27 274 83 
3  79 275 274 
3  83 274 275 
3  11 276 87 
3  78 277 276 
3  27 87 277 
3  276 277 87 
3  24 278 280 
3  79 279 278 
3  78 280 279 
3  278 279 280 
3  27 277 274 
3  78 279 277 
3  79 274 279 
3  277 279 274 
3  8 258 99 
3  75 281 258 
3  31 99 281 
3  258 281 99 
3  23 282 261 
3  80 283 282 
3  75 261 283 
3  282 283 261 
3  11 104 285 
3  31 284 104 
3  80 285 284 
3  104 284 285 
3  75 283 281 
3  80 284 283 
3  31 281 284 
3  283 284 281 
3  24 280 269 
3  78 286 280 
3  77 269 286 
3  280 286 269 
3  11 285 276 
3  80 287 285 
3  78 276 287 
3  285 287 276 
3  23 273 282 
3  77 288 273 
3  80 282 288 
3  273 288 282 
3  78 287 286 
3  80 288 287 
3  77 286 288 
3  287 288 286 

CELL_TYPES 512
5
5
5
5
5
5
5
5
5
5
5
5
5
5
5
5
5
5
5
5
5
5
5
5
5
5
5
5
5
5
5
5
5
5
5
5
5
5
5
5
5
5
5
5
5
5
5
5
5
5
5
5
5
5
5
5
5
5
5
5
5
5
5
5
5
5
5
5
5
5
5
5
5
5
5
5
5
5
5
5
5
5
5
5
5
5
5
5
5
5
5
5
5
5
5
5
5
5
5
5
5
5
5
5
5
5
5
5
5
5
5
5
5
5
5
5
5
5
5
5
5
5
5
5
5
5
5
5
5
5
5
5
5
5
5
5
5
5
5
5
5
5
5
5
5
5
5
5
5
5
5
5
5
5
5
5
5
5
5
5
5
5
5
5
5
5
5
5
5
5
5
5
5
5
5
5
5
5
5
5
5
5
5
5
5
5
5
5
5
5
5
5
5
5
5
5
5
5
5
5
5
5
5
5
5
5
5
5
5
5
5
5
5
5
5
5
5
5
5
5
5
5
5
5
5
5
5
5
5
5
5
5
5
5
5
5
5
5
5
5
5
5
5
5
5
5
5
5
5
5
5
5
5
5
5
5
5
5
5
5
5
5
5
5
5
5
5
5
5
5
5
5
5
5
5
5
5
5
5
5
5
5
5
5
5
5
5
5
5
5
5
5
5
5
5
5
5
5
5
5
5
5
5
5
5
5
5
5
5
5
5
5
5
5
5
5
5
5
5
5
5
5
5
5
5
5
5
5
5
5
5
5
5
5
5
5
5
5
5
5
5
5
5
5
5
5
5
5
5
5
5
5
5
5
5
5
5
5
5
5
5
5
5
5
5
5
5
5
5
5
5
5
5
5
5
5
5
5
5
5
5
5
5
5
5
5
5
5
5
5
5
5
5
5
5
5
5
5
5
5
5
5
5
5
5
5
5
5
5
5
5
5
5
5
5
5
5
5
5
5
5
5
5
5
5
5
5
5
5
5
5
5
5
5
5
5
5
5
5
5
5
5
5
5
5
5
5
5
5
5
5
5
5
5
5
5
5
5
5
5
5
5
5
5
5
5
5
5
5
5
5
5
5
5
5
5
5
5
5
5
5
5
5
5
5
5
5
5
5
5
5
5
5
5
5
5
5
5
5
5
5
5
5
5
5
5
5
5
5
5
5
5

POINT_DATA 289

SCALARS u_h float 2
LOOKUP_TABLE default
0.011169 -0.329216 
-0.011169 -0.329216 
0.000000 0.000000 
0.000000 0.000000 
-0.000000 -0.100000 
-0.042687 -0.233609 
0.000000 0.000000 
0.042687 -0.233609 
0.000000 -0.228055 
0.010417 -0.294062 
0.000000 -0.240452 
-0.006116 -0.282631 
-0.010417 -0.294062 
0.006116 -0.282631 
-0.010140 -0.297584 
-0.015923 -0.237734 
-0.066732 -0.147016 
-0.026843 -0.139909 
0.000000 0.000000 
0.000000 -0.135974 
0.000000 0.000000 
0.026843 -0.139909 
0.066732 -0.147016 
0.015923 -0.237734 
0.010140 -0.297584 
0.010980 -0.319426 
-0.008121 -0.290518 
-0.000891 -0.313290 
0.000000 -0.203472 
-0.013110 -0.245784 
-0.004756 -0.229756 
-0.000914 -0.252414 
-0.008296 -0.256912 
0.000000 -0.245458 
0.004756 -0.229756 
0.013110 -0.245784 
0.000891 -0.313290 
0.008121 -0.290518 
-0.010980 -0.319426 
0.008296 -0.256912 
0.000914 -0.252414 
-0.004965 -0.319372 
-0.001220 -0.298172 
-0.028769 -0.242043 
-0.013160 -0.274752 
-0.024613 -0.268566 
-0.003921 -0.266274 
-0.006249 -0.230195 
-0.058762 -0.194249 
-0.041585 -0.198943 
-0.033270 -0.075319 
-0.045856 -0.143783 
-0.057280 -0.088668 
-0.024932 -0.195604 
-0.011340 -0.191107 
0.000000 0.000000 
-0.018213 -0.072990 
-0.000000 -0.071774 
-0.008069 -0.072251 
0.000000 0.000000 
-0.012149 -0.137245 
0.000000 -0.189177 
0.000000 0.000000 
0.008069 -0.072251 
0.033270 -0.075319 
0.018213 -0.072990 
0.000000 0.000000 
0.012149 -0.137245 
0.011340 -0.191107 
0.057280 -0.088668 
0.045856 -0.143783 
0.028769 -0.242043 
0.041585 -0.198943 
0.058762 -0.194249 
0.024932 -0.195604 
0.006249 -0.230195 
0.024613 -0.268566 
0.013160 -0.274752 
0.001220 -0.298172 
0.004965 -0.319372 
0.003921 -0.266274 
0.010772 -0.325017 
0.003386 -0.317697 
0.005196 -0.323022 
-0.002734 -0.292826 
0.000867 -0.308224 
0.011284 -0.309803 
-0.005162 -0.299177 
-0.004310 -0.304481 
-0.008661 -0.287314 
0.000000 -0.165186 
-0.011756 -0.199586 
-0.015486 -0.177986 
-0.007782 -0.236052 
-0.009936 -0.220451 
0.000000 -0.226997 
0.006189 -0.269455 
-0.011934 -0.236911 
-0.007452 -0.269673 
0.000906 -0.240072 
-0.001068 -0.247265 
0.000000 -0.239190 
-0.008264 -0.270305 
-0.004682 -0.256839 
-0.004054 -0.266474 
0.000000 -0.246165 
-0.003213 -0.249221 
-0.005480 -0.245597 
-0.011615 -0.270778 
-0.011363 -0.252973 
-0.011166 -0.271424 
0.015486 -0.177986 
0.011756 -0.199586 
0.007452 -0.269673 
0.011934 -0.236911 
-0.006189 -0.269455 
0.009936 -0.220451 
0.007782 -0.236052 
-0.005196 -0.323022 
-0.003386 -0.317697 
-0.010772 -0.325017 
0.008661 -0.287314 
0.004310 -0.304481 
0.005162 -0.299177 
-0.011284 -0.309803 
-0.000867 -0.308224 
0.002734 -0.292826 
0.001068 -0.247265 
-0.000906 -0.240072 
0.005480 -0.245597 
0.003213 -0.249221 
0.004054 -0.266474 
0.004682 -0.256839 
0.008264 -0.270305 
0.011615 -0.270778 
0.011166 -0.271424 
0.011363 -0.252973 
-0.006849 -0.326190 
-0.002047 -0.317917 
-0.005474 -0.300121 
-0.002206 -0.310152 
-0.006101 -0.309593 
0.001456 -0.306736 
0.002737 -0.292194 
-0.035748 -0.240149 
-0.027078 -0.258075 
-0.033607 -0.251839 
-0.015058 -0.257769 
-0.020848 -0.259629 
-0.022060 -0.240836 
-0.016545 -0.283830 
-0.018675 -0.274034 
-0.011220 -0.288051 
-0.002790 -0.243517 
-0.002804 -0.227873 
0.001647 -0.275800 
-0.000788 -0.259322 
-0.010607 -0.233833 
-0.005802 -0.248495 
-0.009953 -0.253667 
-0.006365 -0.287553 
-0.008160 -0.271812 
-0.001987 -0.283189 
-0.051337 -0.214852 
-0.043706 -0.220327 
-0.054972 -0.173475 
-0.050370 -0.198189 
-0.064214 -0.171714 
-0.035836 -0.221896 
-0.028160 -0.220882 
-0.025758 -0.039674 
-0.044420 -0.079644 
-0.039993 -0.051508 
-0.035799 -0.141712 
-0.042294 -0.111191 
-0.032320 -0.108954 
-0.065043 -0.119676 
-0.053658 -0.114795 
-0.056517 -0.145839 
-0.009281 -0.212668 
-0.004568 -0.210962 
-0.021041 -0.218397 
-0.014723 -0.215382 
-0.019251 -0.167436 
-0.017722 -0.193198 
-0.027037 -0.169382 
-0.045237 -0.172978 
-0.035761 -0.171375 
-0.032963 -0.197761 
0.000000 0.000000 
-0.018563 -0.037544 
-0.009958 -0.036923 
-0.013683 -0.037048 
0.000000 0.000000 
-0.024859 -0.073712 
-0.023945 -0.107569 
0.000000 -0.036672 
-0.002108 -0.036773 
0.000000 0.000000 
-0.005205 -0.105366 
-0.003904 -0.072002 
0.000000 -0.105014 
0.000000 0.000000 
-0.004376 -0.036834 
-0.006937 -0.036876 
-0.005561 -0.189710 
0.000000 -0.210562 
-0.019026 -0.138415 
-0.012329 -0.165818 
0.000000 -0.164181 
-0.006024 -0.164708 
-0.005917 -0.136430 
-0.012743 -0.072562 
-0.010720 -0.105883 
-0.016859 -0.106601 
0.000000 0.000000 
0.002108 -0.036773 
0.006937 -0.036876 
0.004376 -0.036834 
0.000000 0.000000 
0.003904 -0.072002 
0.005205 -0.105366 
0.025758 -0.039674 
0.018563 -0.037544 
0.000000 0.000000 
0.023945 -0.107569 
0.024859 -0.073712 
0.032320 -0.108954 
0.000000 0.000000 
0.013683 -0.037048 
0.009958 -0.036923 
0.005561 -0.189710 
0.004568 -0.210962 
0.005917 -0.136430 
0.006024 -0.164708 
0.019251 -0.167436 
0.012329 -0.165818 
0.019026 -0.138415 
0.012743 -0.072562 
0.016859 -0.106601 
0.010720 -0.105883 
0.039993 -0.051508 
0.044420 -0.079644 
0.056517 -0.145839 
0.053658 -0.114795 
0.065043 -0.119676 
0.042294 -0.111191 
0.035799 -0.141712 
0.035748 -0.240149 
0.043706 -0.220327 
0.051337 -0.214852 
0.028160 -0.220882 
0.035836 -0.221896 
0.022060 -0.240836 
0.064214 -0.171714 
0.050370 -0.198189 
0.054972 -0.173475 
0.009281 -0.212668 
0.002804 -0.227873 
0.027037 -0.169382 
0.017722 -0.193198 
0.010607 -0.233833 
0.014723 -0.215382 
0.021041 -0.218397 
0.045237 -0.172978 
0.032963 -0.197761 
0.035761 -0.171375 
0.033607 -0.251839 
0.027078 -0.258075 
0.011220 -0.288051 
0.018675 -0.274034 
0.016545 -0.283830 
0.020848 -0.259629 
0.015058 -0.257769 
0.002047 -0.317917 
0.006849 -0.326190 
-0.002737 -0.292194 
-0.001456 -0.306736 
0.006101 -0.309593 
0.002206 -0.310152 
0.005474 -0.300121 
0.002790 -0.243517 
0.009953 -0.253667 
0.005802 -0.248495 
0.000788 -0.259322 
-0.001647 -0.275800 
0.006365 -0.287553 
0.001987 -0.283189 
0.008160 -0.271812 

CELL_DATA 512

SCALARS epsilon float 4
LOOKUP_TABLE default
0.003189 0.039353 0.000000 -0.012278
0.020609 0.041452 0.000000 -0.016949
-0.021643 0.076921 0.000000 0.004714
-0.017921 0.042520 0.000000 -0.004601
0.057113 0.099129 0.000000 0.017131
-0.034090 0.088141 0.000000 0.073037
0.041907 0.060143 0.000000 -0.007711
-0.004018 0.096387 0.000000 0.032049
-0.064349 0.082281 0.000000 0.109374
-0.054251 0.092555 0.000000 0.057599
-0.060835 0.077414 0.000000 0.101250
-0.054950 0.100881 0.000000 0.080035
-0.015334 0.057146 0.000000 0.010528
-0.041114 0.100727 0.000000 0.061309
-0.044498 0.086988 0.000000 0.029682
-0.025639 0.081151 0.000000 0.028481
0.218284 589.448954 0.000000 -13.944314
0.170845 0.383763 0.000000 0.692522
-0.267132 0.964402 0.000000 0.583940
0.131741 -0.145033 0.000000 0.430569
0.116858 -0.223240 0.000000 0.091184
0.032652 -0.156134 0.000000 0.284130
0.146571 -0.350783 0.000000 0.213714
0.111837 -0.267669 0.000000 0.109009
0.041538 0.159993 0.000000 0.081216
-0.086793 0.286162 0.000000 0.285335
-0.061752 0.071530 0.000000 0.294308
0.064210 0.239827 0.000000 0.146356
0.137179 -0.320007 0.000000 0.209755
0.058120 -0.044198 0.000000 0.226713
0.084298 0.147713 0.000000 0.278213
-0.022526 0.026422 0.000000 0.458250
-0.014602 0.162734 0.000000 0.005985
-0.004413 0.108975 0.000000 0.052610
0.016949 0.095627 0.000000 0.013137
-0.014594 0.108219 0.000000 0.022182
-0.045776 0.065407 0.000000 0.127505
-0.011257 0.012220 0.000000 0.135921
-0.017267 0.070293 0.000000 0.102314
-0.017944 0.060489 0.000000 0.106553
0.083858 -0.092077 0.000000 0.045003
0.050084 0.012310 0.000000 0.024113
0.038053 -0.049187 0.000000 0.113238
0.048969 -0.060222 0.000000 0.043073
-0.005528 0.066663 0.000000 0.068570
0.017953 0.001442 0.000000 0.089101
0.016538 0.030236 0.000000 0.030866
0.019803 0.033554 0.000000 0.075820
0.022191 0.164574 0.000000 0.068844
0.005477 0.091909 0.000000 0.169426
-0.026420 0.112873 0.000000 0.106681
-0.049079 0.087823 0.000000 0.151998
0.081387 -0.163174 0.000000 0.064643
0.036226 -0.056657 0.000000 0.119834
0.048012 -0.086955 0.000000 0.165597
0.045354 -0.128102 0.000000 0.176237
-0.041941 0.082730 0.000000 0.112567
-0.038684 0.083723 0.000000 0.116240
-0.009275 0.030548 0.000000 0.128473
-0.051861 0.040282 0.000000 0.148694
-0.036680 -0.024317 0.000000 0.239631
-0.017358 -0.029002 0.000000 0.181920
-0.059852 0.044589 0.000000 0.162763
-0.005276 0.032421 0.000000 0.152746
0.218284 589.448954 0.000000 13.944314
-0.267132 0.964402 0.000000 -0.583940
0.170845 0.383763 0.000000 -0.692522
0.131741 -0.145033 0.000000 -0.430569
0.041538 0.159993 0.000000 -0.081216
-0.061752 0.071530 0.000000 -0.294308
-0.086793 0.286162 0.000000 -0.285335
0.064210 0.239827 0.000000 -0.146356
0.116858 -0.223240 0.000000 -0.091184
0.146571 -0.350783 0.000000 -0.213714
0.032652 -0.156134 0.000000 -0.284130
0.111837 -0.267669 0.000000 -0.109009
0.084298 0.147713 0.000000 -0.278213
0.058120 -0.044198 0.000000 -0.226713
0.137179 -0.320007 0.000000 -0.209755
-0.022526 0.026422 0.000000 -0.458250
0.003189 0.039353 0.000000 0.012278
-0.021643 0.076921 0.000000 -0.004714
0.020609 0.041452 0.000000 0.016949
-0.017921 0.042520 0.000000 0.004601
-0.064349 0.082281 0.000000 -0.109374
-0.060835 0.077414 0.000000 -0.101250
-0.054251 0.092555 0.000000 -0.057599
-0.054950 0.100881 0.000000 -0.080035
0.057113 0.099129 0.000000 -0.017131
0.041907 0.060143 0.000000 0.007711
-0.034090 0.088141 0.000000 -0.073037
-0.004018 0.096387 0.000000 -0.032049
-0.044498 0.086988 0.000000 -0.029682
-0.041114 0.100727 0.000000 -0.061309
-0.015334 0.057146 0.000000 -0.010528
-0.025639 0.081151 0.000000 -0.028481
-0.014602 0.162734 0.000000 -0.005985
0.016949 0.095627 0.000000 -0.013137
-0.004413 0.108975 0.000000 -0.052610
-0.014594 0.108219 0.000000 -0.022182
0.083858 -0.092077 0.000000 -0.045003
0.038053 -0.049187 0.000000 -0.113238
0.050084 0.012310 0.000000 -0.024113
0.048969 -0.060222 0.000000 -0.043073
-0.045776 0.065407 0.000000 -0.127505
-0.017267 0.070293 0.000000 -0.102314
-0.011257 0.012220 0.000000 -0.135921
-0.017944 0.060489 0.000000 -0.106553
0.016538 0.030236 0.000000 -0.030866
0.017953 0.001442 0.000000 -0.089101
-0.005528 0.066663 0.000000 -0.068570
0.019803 0.033554 0.000000 -0.075820
0.022191 0.164574 0.000000 -0.068844
-0.026420 0.112873 0.000000 -0.106681
0.005477 0.091909 0.000000 -0.169426
-0.049079 0.087823 0.000000 -0.151998
-0.041941 0.082730 0.000000 -0.112567
-0.009275 0.030548 0.000000 -0.128473
-0.038684 0.083723 0.000000 -0.116240
-0.051861 0.040282 0.000000 -0.148694
0.081387 -0.163174 0.000000 -0.064643
0.048012 -0.086955 0.000000 -0.165597
0.036226 -0.056657 0.000000 -0.119834
0.045354 -0.128102 0.000000 -0.176237
-0.059852 0.044589 0.000000 -0.162763
-0.017358 -0.029002 0.000000 -0.181920
-0.036680 -0.024317 0.000000 -0.239631
-0.005276 0.032421 0.000000 -0.152746
-0.021090 0.051896 0.000000 0.011260
-0.046709 0.104088 0.000000 0.005181
-0.043322 0.084519 0.000000 -0.007877
-0.023232 0.081929 0.000000 0.002310
-0.073358 0.177150 0.000000 -0.017070
-0.070694 0.146797 0.000000 -0.040890
-0.063971 0.144627 0.000000 -0.005668
-0.062680 0.148315 0.000000 -0.023515
-0.060460 0.110655 0.000000 -0.088852
-0.059964 0.107219 0.000000 -0.049762
-0.068340 0.128029 0.000000 -0.064391
-0.064830 0.107851 0.000000 -0.074565
-0.047829 0.116798 0.000000 -0.011646
-0.061667 0.126914 0.000000 -0.046357
-0.047441 0.102520 0.000000 -0.028726
-0.060418 0.117821 0.000000 -0.025548
-0.096317 0.267796 0.000000 -0.037147
-0.106883 0.251563 0.000000 -0.062504
-0.089597 0.249174 0.000000 -0.037483
-0.090981 0.262711 0.000000 -0.034925
-0.102939 0.232200 0.000000 -0.078661
-0.094102 0.211027 0.000000 -0.077119
-0.108966 0.241800 0.000000 -0.075040
-0.094997 0.233469 0.000000 -0.070563
-0.078497 0.204426 0.000000 -0.026606
-0.083148 0.228085 0.000000 -0.033498
-0.085181 0.201207 0.000000 -0.058543
-0.076090 0.208681 0.000000 -0.035479
-0.095894 0.246522 0.000000 -0.057338
-0.084971 0.215058 0.000000 -0.060285
-0.082411 0.236855 0.000000 -0.036417
-0.094638 0.227164 0.000000 -0.061720
-0.045436 0.176720 0.000000 -0.014258
-0.032101 0.130711 0.000000 -0.054192
-0.057254 0.189920 0.000000 -0.043658
-0.031690 0.176369 0.000000 -0.038278
-0.046992 0.103398 0.000000 -0.103973
-0.057063 0.137323 0.000000 -0.094238
-0.032931 0.105390 0.000000 -0.088981
-0.047405 0.107127 0.000000 -0.106709
-0.090301 0.220271 0.000000 -0.074758
-0.073766 0.205600 0.000000 -0.063303
-0.071978 0.177746 0.000000 -0.084562
-0.071882 0.205337 0.000000 -0.073079
-0.032071 0.131555 0.000000 -0.078345
-0.056752 0.155746 0.000000 -0.088613
-0.052005 0.189822 0.000000 -0.060938
-0.052459 0.155511 0.000000 -0.075112
-0.070629 0.178914 0.000000 -0.031418
-0.076664 0.183709 0.000000 -0.060541
-0.069846 0.153890 0.000000 -0.056503
-0.077851 0.174335 0.000000 -0.051861
-0.086919 0.220179 0.000000 -0.075861
-0.073969 0.177658 0.000000 -0.087049
-0.082914 0.196702 0.000000 -0.077088
-0.086511 0.195763 0.000000 -0.084733
-0.063578 0.103845 0.000000 -0.106137