# vtk DataFile Version 2.0
Unstructured Grid Example
ASCII
DATASET UNSTRUCTURED_GRID

POINTS 64 float
0.000000 0.000000 0.000000 
0.031250 0.000000 0.000000 
0.031250 0.000000 0.000000 
0.062500 0.000000 0.000000 
0.062500 0.000000 0.000000 
0.093750 0.000000 0.000000 
0.093750 0.000000 0.000000 
0.125000 0.000000 0.000000 
0.187500 0.000000 0.000000 
0.218750 0.000000 0.000000 
0.218750 0.000000 0.000000 
0.250000 0.000000 0.000000 
0.125000 0.000000 0.000000 
0.156250 0.000000 0.000000 
0.156250 0.000000 0.000000 
0.187500 0.000000 0.000000 
0.437500 -4.792917 0.000000 
0.468750 -5.419321 0.000000 
0.468750 -5.020659 0.000000 
0.500000 -5.590240 0.000000 
0.375000 -3.524396 0.000000 
0.406250 -5.169384 0.000000 
0.406250 -4.240392 0.000000 
0.437500 -5.382381 0.000000 
0.250000 0.000000 0.000000 
0.281250 0.000000 0.000000 
0.281250 1.980526 0.000000 
0.312500 -3.961053 0.000000 
0.312500 -0.635680 0.000000 
0.343750 -4.670219 0.000000 
0.343750 -2.578020 0.000000 
0.375000 -4.820078 0.000000 
0.500000 -5.590240 0.000000 
0.531250 -5.020659 0.000000 
0.531250 -5.419321 0.000000 
0.562500 -4.792917 0.000000 
0.562500 -5.382381 0.000000 
0.593750 -4.240392 0.000000 
0.593750 -5.169384 0.000000 
0.625000 -3.524396 0.000000 
0.687500 -3.961053 0.000000 
0.718750 1.980526 0.000000 
0.718750 0.000000 0.000000 
0.750000 0.000000 0.000000 
0.625000 -4.820078 0.000000 
0.656250 -2.578020 0.000000 
0.656250 -4.670219 0.000000 
0.687500 -0.635680 0.000000 
0.937500 0.000000 0.000000 
0.968750 0.000000 0.000000 
0.968750 0.000000 0.000000 
1.000000 0.000000 0.000000 
0.875000 0.000000 0.000000 
0.906250 0.000000 0.000000 
0.906250 0.000000 0.000000 
0.937500 0.000000 0.000000 
0.750000 0.000000 0.000000 
0.781250 0.000000 0.000000 
0.781250 0.000000 0.000000 
0.812500 0.000000 0.000000 
0.812500 0.000000 0.000000 
0.843750 0.000000 0.000000 
0.843750 0.000000 0.000000 
0.875000 0.000000 0.000000 

CELLS 32 96
2  0 1 
2  2 3 
2  4 5 
2  6 7 
2  8 9 
2  10 11 
2  12 13 
2  14 15 
2  16 17 
2  18 19 
2  20 21 
2  22 23 
2  24 25 
2  26 27 
2  28 29 
2  30 31 
2  32 33 
2  34 35 
2  36 37 
2  38 39 
2  40 41 
2  42 43 
2  44 45 
2  46 47 
2  48 49 
2  50 51 
2  52 53 
2  54 55 
2  56 57 
2  58 59 
2  60 61 
2  62 63 

CELL_TYPES 32
3
3
3
3
3
3
3
3
3
3
3
3
3
3
3
3
3
3
3
3
3
3
3
3
3
3
3
3
3
3
3
3

POINT_DATA 64

SCALARS lambda_h float 1
LOOKUP_TABLE default
0.000000 
0.000000 
0.000000 
0.000000 
0.000000 
0.000000 
0.000000 
0.000000 
0.000000 
0.000000 
0.000000 
0.000000 
0.000000 
0.000000 
0.000000 
0.000000 
-4.792917 
-5.419321 
-5.020659 
-5.590240 
-3.524396 
-5.169384 
-4.240392 
-5.382381 
0.000000 
0.000000 
1.980526 
-3.961053 
-0.635680 
-4.670219 
-2.578020 
-4.820078 
-5.590240 
-5.020659 
-5.419321 
-4.792917 
-5.382381 
-4.240392 
-5.169384 
-3.524396 
-3.961053 
1.980526 
0.000000 
0.000000 
-4.820078 
-2.578020 
-4.670219 
-0.635680 
0.000000 
0.000000 
0.000000 
0.000000 
0.000000 
0.000000 
0.000000 
0.000000 
0.000000 
0.000000 
0.000000 
0.000000 
0.000000 
0.000000 
0.000000 
0.000000 

