# vtk DataFile Version 2.0
Unstructured Grid Example
ASCII
DATASET UNSTRUCTURED_GRID

POINTS 8 float
0.000000 0.214853 0.000000 
0.250000 -0.429706 0.000000 
0.250000 5.841890 0.000000 
0.500000 -12.328340 0.000000 
0.500000 -12.328340 0.000000 
0.750000 5.841890 0.000000 
0.750000 -0.429706 0.000000 
1.000000 0.214853 0.000000 

CELLS 4 12
2  0 1 
2  2 3 
2  4 5 
2  6 7 

CELL_TYPES 4
3
3
3
3

POINT_DATA 8

SCALARS lambda_h float 1
LOOKUP_TABLE default
0.214853 
-0.429706 
5.841890 
-12.328340 
-12.328340 
5.841890 
-0.429706 
0.214853 

