# vtk DataFile Version 2.0
Unstructured Grid Example
ASCII
DATASET UNSTRUCTURED_GRID

POINTS 128 float
0.000000 0.000000 0.000000 
0.015625 0.000000 0.000000 
0.015625 0.000000 0.000000 
0.031250 0.000000 0.000000 
0.031250 0.000000 0.000000 
0.046875 0.000000 0.000000 
0.046875 0.000000 0.000000 
0.062500 0.000000 0.000000 
0.093750 0.000000 0.000000 
0.109375 0.000000 0.000000 
0.109375 0.000000 0.000000 
0.125000 0.000000 0.000000 
0.062500 0.000000 0.000000 
0.078125 0.000000 0.000000 
0.078125 0.000000 0.000000 
0.093750 0.000000 0.000000 
0.218750 0.000000 0.000000 
0.234375 0.000000 0.000000 
0.234375 0.000000 0.000000 
0.250000 0.000000 0.000000 
0.187500 0.000000 0.000000 
0.203125 0.000000 0.000000 
0.203125 0.000000 0.000000 
0.218750 0.000000 0.000000 
0.125000 0.000000 0.000000 
0.140625 0.000000 0.000000 
0.140625 0.000000 0.000000 
0.156250 0.000000 0.000000 
0.156250 0.000000 0.000000 
0.171875 0.000000 0.000000 
0.171875 0.000000 0.000000 
0.187500 0.000000 0.000000 
0.468750 -5.187187 0.000000 
0.484375 -5.351765 0.000000 
0.484375 -5.212745 0.000000 
0.500000 -5.465227 0.000000 
0.437500 -4.861548 0.000000 
0.453125 -5.284329 0.000000 
0.453125 -5.044758 0.000000 
0.468750 -5.340690 0.000000 
0.375000 -3.706926 0.000000 
0.390625 -4.639790 0.000000 
0.390625 -4.062127 0.000000 
0.406250 -4.862252 0.000000 
0.406250 -4.371236 0.000000 
0.421875 -5.044160 0.000000 
0.421875 -4.637229 0.000000 
0.437500 -5.185098 0.000000 
0.250000 0.000000 0.000000 
0.265625 0.000000 0.000000 
0.265625 0.000000 0.000000 
0.281250 0.000000 0.000000 
0.281250 0.827845 0.000000 
0.296875 -1.655690 0.000000 
0.296875 0.486796 0.000000 
0.312500 -3.457128 0.000000 
0.343750 -2.830008 0.000000 
0.359375 -4.073370 0.000000 
0.359375 -3.299951 0.000000 
0.375000 -4.376846 0.000000 
0.312500 -1.527462 0.000000 
0.328125 -3.372534 0.000000 
0.328125 -2.270559 0.000000 
0.343750 -3.731414 0.000000 
0.500000 -5.465227 0.000000 
0.515625 -5.212745 0.000000 
0.515625 -5.351765 0.000000 
0.531250 -5.187187 0.000000 
0.531250 -5.340690 0.000000 
0.546875 -5.044758 0.000000 
0.546875 -5.284329 0.000000 
0.562500 -4.861548 0.000000 
0.593750 -4.862252 0.000000 
0.609375 -4.062127 0.000000 
0.609375 -4.639790 0.000000 
0.625000 -3.706926 0.000000 
0.562500 -5.185098 0.000000 
0.578125 -4.637229 0.000000 
0.578125 -5.044160 0.000000 
0.593750 -4.371236 0.000000 
0.718750 0.000000 0.000000 
0.734375 0.000000 0.000000 
0.734375 0.000000 0.000000 
0.750000 0.000000 0.000000 
0.687500 -3.457128 0.000000 
0.703125 0.486796 0.000000 
0.703125 -1.655690 0.000000 
0.718750 0.827845 0.000000 
0.625000 -4.376846 0.000000 
0.640625 -3.299951 0.000000 
0.640625 -4.073370 0.000000 
0.656250 -2.830008 0.000000 
0.656250 -3.731414 0.000000 
0.671875 -2.270559 0.000000 
0.671875 -3.372534 0.000000 
0.687500 -1.527462 0.000000 
0.968750 0.000000 0.000000 
0.984375 0.000000 0.000000 
0.984375 0.000000 0.000000 
1.000000 0.000000 0.000000 
0.937500 0.000000 0.000000 
0.953125 0.000000 0.000000 
0.953125 0.000000 0.000000 
0.968750 0.000000 0.000000 
0.875000 0.000000 0.000000 
0.890625 0.000000 0.000000 
0.890625 0.000000 0.000000 
0.906250 0.000000 0.000000 
0.906250 0.000000 0.000000 
0.921875 0.000000 0.000000 
0.921875 0.000000 0.000000 
0.937500 0.000000 0.000000 
0.750000 0.000000 0.000000 
0.765625 0.000000 0.000000 
0.765625 0.000000 0.000000 
0.781250 0.000000 0.000000 
0.781250 0.000000 0.000000 
0.796875 0.000000 0.000000 
0.796875 0.000000 0.000000 
0.812500 0.000000 0.000000 
0.843750 0.000000 0.000000 
0.859375 0.000000 0.000000 
0.859375 0.000000 0.000000 
0.875000 0.000000 0.000000 
0.812500 0.000000 0.000000 
0.828125 0.000000 0.000000 
0.828125 0.000000 0.000000 
0.843750 0.000000 0.000000 

CELLS 64 192
2  0 1 
2  2 3 
2  4 5 
2  6 7 
2  8 9 
2  10 11 
2  12 13 
2  14 15 
2  16 17 
2  18 19 
2  20 21 
2  22 23 
2  24 25 
2  26 27 
2  28 29 
2  30 31 
2  32 33 
2  34 35 
2  36 37 
2  38 39 
2  40 41 
2  42 43 
2  44 45 
2  46 47 
2  48 49 
2  50 51 
2  52 53 
2  54 55 
2  56 57 
2  58 59 
2  60 61 
2  62 63 
2  64 65 
2  66 67 
2  68 69 
2  70 71 
2  72 73 
2  74 75 
2  76 77 
2  78 79 
2  80 81 
2  82 83 
2  84 85 
2  86 87 
2  88 89 
2  90 91 
2  92 93 
2  94 95 
2  96 97 
2  98 99 
2  100 101 
2  102 103 
2  104 105 
2  106 107 
2  108 109 
2  110 111 
2  112 113 
2  114 115 
2  116 117 
2  118 119 
2  120 121 
2  122 123 
2  124 125 
2  126 127 

CELL_TYPES 64
3
3
3
3
3
3
3
3
3
3
3
3
3
3
3
3
3
3
3
3
3
3
3
3
3
3
3
3
3
3
3
3
3
3
3
3
3
3
3
3
3
3
3
3
3
3
3
3
3
3
3
3
3
3
3
3
3
3
3
3
3
3
3
3

POINT_DATA 128

SCALARS lambda_h float 1
LOOKUP_TABLE default
0.000000 
0.000000 
0.000000 
0.000000 
0.000000 
0.000000 
0.000000 
0.000000 
0.000000 
0.000000 
0.000000 
0.000000 
0.000000 
0.000000 
0.000000 
0.000000 
0.000000 
0.000000 
0.000000 
0.000000 
0.000000 
0.000000 
0.000000 
0.000000 
0.000000 
0.000000 
0.000000 
0.000000 
0.000000 
0.000000 
0.000000 
0.000000 
-5.187187 
-5.351765 
-5.212745 
-5.465227 
-4.861548 
-5.284329 
-5.044758 
-5.340690 
-3.706926 
-4.639790 
-4.062127 
-4.862252 
-4.371236 
-5.044160 
-4.637229 
-5.185098 
0.000000 
0.000000 
0.000000 
0.000000 
0.827845 
-1.655690 
0.486796 
-3.457128 
-2.830008 
-4.073370 
-3.299951 
-4.376846 
-1.527462 
-3.372534 
-2.270559 
-3.731414 
-5.465227 
-5.212745 
-5.351765 
-5.187187 
-5.340690 
-5.044758 
-5.284329 
-4.861548 
-4.862252 
-4.062127 
-4.639790 
-3.706926 
-5.185098 
-4.637229 
-5.044160 
-4.371236 
0.000000 
0.000000 
0.000000 
0.000000 
-3.457128 
0.486796 
-1.655690 
0.827845 
-4.376846 
-3.299951 
-4.073370 
-2.830008 
-3.731414 
-2.270559 
-3.372534 
-1.527462 
0.000000 
0.000000 
0.000000 
0.000000 
0.000000 
0.000000 
0.000000 
0.000000 
0.000000 
0.000000 
0.000000 
0.000000 
0.000000 
0.000000 
0.000000 
0.000000 
0.000000 
0.000000 
0.000000 
0.000000 
0.000000 
0.000000 
0.000000 
0.000000 
0.000000 
0.000000 
0.000000 
0.000000 
0.000000 
0.000000 
0.000000 
0.000000 

