# vtk DataFile Version 2.0
Unstructured Grid Example
ASCII
DATASET UNSTRUCTURED_GRID

POINTS 81 float
0.007931 -0.166027 0.000000 
0.992069 -0.166027 0.000000 
1.000000 1.000000 0.000000 
0.000000 1.000000 0.000000 
0.500000 -0.097523 0.000000 
0.977087 0.381699 0.000000 
0.500000 1.000000 0.000000 
0.022913 0.381699 0.000000 
0.500000 0.383116 0.000000 
0.255812 -0.147202 0.000000 
0.500000 0.123778 0.000000 
0.249388 0.106150 0.000000 
0.744188 -0.147202 0.000000 
0.750612 0.106150 0.000000 
0.992613 0.099492 0.000000 
0.740701 0.379752 0.000000 
0.966877 0.675304 0.000000 
0.736613 0.679706 0.000000 
0.750000 1.000000 0.000000 
0.500000 0.681746 0.000000 
0.250000 1.000000 0.000000 
0.263387 0.679706 0.000000 
0.033123 0.675304 0.000000 
0.259299 0.379752 0.000000 
0.007387 0.099492 0.000000 
0.132107 -0.160612 0.000000 
0.248538 -0.022237 0.000000 
0.126467 -0.032929 0.000000 
0.500000 0.008949 0.000000 
0.372061 -0.001673 0.000000 
0.378096 -0.112376 0.000000 
0.375570 0.246138 0.000000 
0.372897 0.117899 0.000000 
0.500000 0.248753 0.000000 
0.621904 -0.112376 0.000000 
0.627939 -0.001673 0.000000 
0.873533 -0.032929 0.000000 
0.751462 -0.022237 0.000000 
0.867893 -0.160612 0.000000 
0.627103 0.117899 0.000000 
0.624430 0.246138 0.000000 
0.995694 -0.035935 0.000000 
0.872072 0.099189 0.000000 
0.858954 0.377830 0.000000 
0.866335 0.236007 0.000000 
0.985416 0.238841 0.000000 
0.746262 0.239756 0.000000 
0.621222 0.383149 0.000000 
0.970004 0.526119 0.000000 
0.853476 0.524652 0.000000 
0.859348 0.837503 0.000000 
0.852252 0.677617 0.000000 
0.972230 0.830976 0.000000 
0.736871 0.526404 0.000000 
0.618804 0.528442 0.000000 
0.875000 1.000000 0.000000 
0.741144 0.838388 0.000000 
0.500000 0.839167 0.000000 
0.620981 0.838743 0.000000 
0.625000 1.000000 0.000000 
0.618801 0.680964 0.000000 
0.500000 0.529227 0.000000 
0.375000 1.000000 0.000000 
0.379019 0.838743 0.000000 
0.140652 0.837503 0.000000 
0.258856 0.838388 0.000000 
0.125000 1.000000 0.000000 
0.381199 0.680964 0.000000 
0.381196 0.528442 0.000000 
0.027770 0.830976 0.000000 
0.147748 0.677617 0.000000 
0.141046 0.377830 0.000000 
0.146524 0.524652 0.000000 
0.029996 0.526119 0.000000 
0.263129 0.526404 0.000000 
0.378778 0.383149 0.000000 
0.014584 0.238841 0.000000 
0.133665 0.236007 0.000000 
0.127928 0.099189 0.000000 
0.004306 -0.035935 0.000000 
0.253738 0.239756 0.000000 

CELLS 128 512
3  0 25 27 
3  9 26 25 
3  11 27 26 
3  25 26 27 
3  4 28 30 
3  10 29 28 
3  9 30 29 
3  28 29 30 
3  8 31 33 
3  11 32 31 
3  10 33 32 
3  31 32 33 
3  9 29 26 
3  10 32 29 
3  11 26 32 
3  29 32 26 
3  4 34 28 
3  12 35 34 
3  10 28 35 
3  34 35 28 
3  1 36 38 
3  13 37 36 
3  12 38 37 
3  36 37 38 
3  8 33 40 
3  10 39 33 
3  13 40 39 
3  33 39 40 
3  12 37 35 
3  13 39 37 
3  10 35 39 
3  37 39 35 
3  1 41 36 
3  14 42 41 
3  13 36 42 
3  41 42 36 
3  5 43 45 
3  15 44 43 
3  14 45 44 
3  43 44 45 
3  8 40 47 
3  13 46 40 
3  15 47 46 
3  40 46 47 
3  14 44 42 
3  15 46 44 
3  13 42 46 
3  44 46 42 
3  5 48 43 
3  16 49 48 
3  15 43 49 
3  48 49 43 
3  2 50 52 
3  17 51 50 
3  16 52 51 
3  50 51 52 
3  8 47 54 
3  15 53 47 
3  17 54 53 
3  47 53 54 
3  16 51 49 
3  17 53 51 
3  15 49 53 
3  51 53 49 
3  2 55 50 
3  18 56 55 
3  17 50 56 
3  55 56 50 
3  6 57 59 
3  19 58 57 
3  18 59 58 
3  57 58 59 
3  8 54 61 
3  17 60 54 
3  19 61 60 
3  54 60 61 
3  18 58 56 
3  19 60 58 
3  17 56 60 
3  58 60 56 
3  6 62 57 
3  20 63 62 
3  19 57 63 
3  62 63 57 
3  3 64 66 
3  21 65 64 
3  20 66 65 
3  64 65 66 
3  8 61 68 
3  19 67 61 
3  21 68 67 
3  61 67 68 
3  20 65 63 
3  21 67 65 
3  19 63 67 
3  65 67 63 
3  3 69 64 
3  22 70 69 
3  21 64 70 
3  69 70 64 
3  7 71 73 
3  23 72 71 
3  22 73 72 
3  71 72 73 
3  8 68 75 
3  21 74 68 
3  23 75 74 
3  68 74 75 
3  22 72 70 
3  23 74 72 
3  21 70 74 
3  72 74 70 
3  7 76 71 
3  24 77 76 
3  23 71 77 
3  76 77 71 
3  0 27 79 
3  11 78 27 
3  24 79 78 
3  27 78 79 
3  8 75 31 
3  23 80 75 
3  11 31 80 
3  75 80 31 
3  24 78 77 
3  11 80 78 
3  23 77 80 
3  78 80 77 

CELL_TYPES 128
5
5
5
5
5
5
5
5
5
5
5
5
5
5
5
5
5
5
5
5
5
5
5
5
5
5
5
5
5
5
5
5
5
5
5
5
5
5
5
5
5
5
5
5
5
5
5
5
5
5
5
5
5
5
5
5
5
5
5
5
5
5
5
5
5
5
5
5
5
5
5
5
5
5
5
5
5
5
5
5
5
5
5
5
5
5
5
5
5
5
5
5
5
5
5
5
5
5
5
5
5
5
5
5
5
5
5
5
5
5
5
5
5
5
5
5
5
5
5
5
5
5
5
5
5
5
5
5

POINT_DATA 81

SCALARS u_h float 2
LOOKUP_TABLE default
0.007931 -0.166027 
-0.007931 -0.166027 
0.000000 0.000000 
0.000000 0.000000 
0.000000 -0.097523 
-0.022913 -0.118301 
0.000000 0.000000 
0.022913 -0.118301 
0.000000 -0.116884 
0.005812 -0.147202 
0.000000 -0.126222 
-0.000612 -0.143850 
-0.005812 -0.147202 
0.000612 -0.143850 
-0.007387 -0.150508 
-0.009299 -0.120248 
-0.033123 -0.074696 
-0.013387 -0.070294 
0.000000 0.000000 
0.000000 -0.068254 
0.000000 0.000000 
0.013387 -0.070294 
0.033123 -0.074696 
0.009299 -0.120248 
0.007387 -0.150508 
0.007107 -0.160612 
-0.001462 -0.147237 
0.001467 -0.157929 
0.000000 -0.116051 
-0.002939 -0.126673 
0.003096 -0.112376 
0.000570 -0.128862 
-0.002103 -0.132101 
0.000000 -0.126247 
-0.003096 -0.112376 
0.002939 -0.126673 
-0.001467 -0.157929 
0.001462 -0.147237 
-0.007107 -0.160612 
0.002103 -0.132101 
-0.000570 -0.128862 
-0.004306 -0.160935 
-0.002928 -0.150811 
-0.016046 -0.122170 
-0.008665 -0.138993 
-0.014584 -0.136159 
-0.003738 -0.135244 
-0.003778 -0.116851 
-0.029996 -0.098881 
-0.021524 -0.100348 
-0.015652 -0.037497 
-0.022748 -0.072383 
-0.027770 -0.044024 
-0.013129 -0.098596 
-0.006196 -0.096558 
0.000000 0.000000 
-0.008856 -0.036612 
0.000000 -0.035833 
-0.004019 -0.036257 
0.000000 0.000000 
-0.006199 -0.069036 
0.000000 -0.095773 
0.000000 0.000000 
0.004019 -0.036257 
0.015652 -0.037497 
0.008856 -0.036612 
0.000000 0.000000 
0.006199 -0.069036 
0.006196 -0.096558 
0.027770 -0.044024 
0.022748 -0.072383 
0.016046 -0.122170 
0.021524 -0.100348 
0.029996 -0.098881 
0.013129 -0.098596 
0.003778 -0.116851 
0.014584 -0.136159 
0.008665 -0.138993 
0.002928 -0.150811 
0.004306 -0.160935 
0.003738 -0.135244 

CELL_DATA 128

SCALARS epsilon float 4
LOOKUP_TABLE default
-0.003705 0.024059 0.000000 -0.001493
-0.002413 0.011821 0.000000 0.024251
-0.024260 0.029784 0.000000 0.045097
-0.018828 0.028736 0.000000 0.018769
-0.025078 -0.148643 0.000000 0.069704
0.023238 -0.080574 0.000000 0.046227
-0.005049 -0.055485 0.000000 0.132919
0.029158 -0.112008 0.000000 0.024713
-0.004574 0.072297 0.000000 0.009734
-0.013755 0.027909 0.000000 0.056614
0.016679 0.000877 0.000000 0.023514
-0.004793 0.025349 0.000000 0.020933
-0.000543 0.022970 0.000000 0.052835
0.016379 -0.043524 0.000000 0.027862
-0.012602 0.030388 0.000000 0.049187
-0.013028 -0.030354 0.000000 0.089354
-0.025078 -0.148643 0.000000 -0.069704
-0.005049 -0.055485 0.000000 -0.132919
0.023238 -0.080574 0.000000 -0.046227
0.029158 -0.112008 0.000000 -0.024713
-0.003705 0.024059 0.000000 0.001493
-0.024260 0.029784 0.000000 -0.045097
-0.002413 0.011821 0.000000 -0.024251
-0.018828 0.028736 0.000000 -0.018769
-0.004574 0.072297 0.000000 -0.009734
0.016679 0.000877 0.000000 -0.023514
-0.013755 0.027909 0.000000 -0.056614
-0.004793 0.025349 0.000000 -0.020933
-0.000543 0.022970 0.000000 -0.052835
-0.012602 0.030388 0.000000 -0.049187
0.016379 -0.043524 0.000000 -0.027862
-0.013028 -0.030354 0.000000 -0.089354
-0.021887 0.040866 0.000000 0.003262
-0.035975 0.080022 0.000000 -0.011586
-0.029289 0.056173 0.000000 -0.032316
-0.023185 0.055333 0.000000 -0.017334
-0.052641 0.135106 0.000000 -0.021188
-0.054754 0.124918 0.000000 -0.037528
-0.045775 0.109709 0.000000 -0.019747
-0.045743 0.127089 0.000000 -0.020581
-0.030384 0.091514 0.000000 -0.013008
-0.026806 0.065994 0.000000 -0.041647
-0.045403 0.112062 0.000000 -0.035115
-0.026598 0.091435 0.000000 -0.036338
-0.035260 0.090214 0.000000 -0.022515
-0.040576 0.112019 0.000000 -0.036261
-0.030022 0.066071 0.000000 -0.043859
-0.040546 0.089215 0.000000 -0.037392
-0.053496 0.145488 0.000000 -0.016074
-0.069547 0.175570 0.000000 -0.008172
-0.055252 0.159178 0.000000 -0.029179
-0.068795 0.160192 0.000000 -0.018013
-0.075996 0.304077 0.000000 0.095080
-0.075722 0.242863 0.000000 0.022722
-0.085029 0.217232 0.000000 0.015071
-0.097857 0.245457 0.000000 0.009717
-0.030530 0.149428 0.000000 -0.009665
-0.045508 0.158109 0.000000 -0.027237
-0.057024 0.201725 0.000000 -0.007679
-0.057128 0.149252 0.000000 -0.017028
-0.086541 0.199511 0.000000 -0.012656
-0.077696 0.201734 0.000000 -0.007847
-0.069400 0.158240 0.000000 -0.022009
-0.069485 0.199490 0.000000 -0.010770
0.004639 0.257377 0.000000 0.059273
0.001501 0.252204 0.000000 0.033605
-0.055171 0.235012 0.000000 0.015525
-0.049942 0.258076 0.000000 0.059950
0.000000 0.247614 0.000000 -0.000000
-0.032671 0.227164 0.000000 -0.001347
0.000311 0.250118 0.000000 0.015265
-0.032252 0.250205 0.000000 0.014456
-0.050794 0.154942 0.000000 -0.002679
-0.059158 0.196766 0.000000 -0.004120
-0.050815 0.196723 0.000000 -0.002557
-0.050795 0.196743 0.000000 -0.002577
-0.037653 0.252360 0.000000 0.033860
-0.050619 0.229432 0.000000 0.006304
-0.058395 0.235117 0.000000 0.014414
-0.039294 0.229373 0.000000 0.007554
0.000000 0.247614 0.000000 -0.000000
0.000311 0.250118 0.000000 -0.015265
-0.032671 0.227164 0.000000 0.001347
-0.032252 0.250205 0.000000 -0.014456
0.004639 0.257377 0.000000 -0.059273
-0.055171 0.235012 0.000000 -0.015525
0.001501 0.252204 0.000000 -0.033605
-0.049942 0.258076 0.000000 -0.059950
-0.050794 0.154942 0.000000 0.002679
-0.050815 0.196723 0.000000 0.002557
-0.059158 0.196766 0.000000 0.004120
-0.050795 0.196743 0.000000 0.002577
-0.037653 0.252360 0.000000 -0.033860
-0.058395 0.235117 0.000000 -0.014414
-0.050619 0.229432 0.000000 -0.006304
-0.039294 0.229373 0.000000 -0.007554
-0.075996 0.304077 0.000000 -0.095080
-0.085029 0.217232 0.000000 -0.015071
-0.075722 0.242863 0.000000 -0.022722
-0.097857 0.245457 0.000000 -0.009717
-0.053496 0.145488 0.000000 0.016074
-0.055252 0.159178 0.000000 0.029179
-0.069547 0.175570 0.000000 0.008172
-0.068795 0.160192 0.000000 0.018013
-0.030530 0.149428 0.000000 0.009665
-0.057024 0.201725 0.000000 0.007679
-0.045508 0.158109 0.000000 0.027237
-0.057128 0.149252 0.000000 0.017028
-0.086541 0.199511 0.000000 0.012656
-0.069400 0.158240 0.000000 0.022009
-0.077696 0.201734 0.000000 0.007847
-0.069485 0.199490 0.000000 0.010770
-0.052641 0.135106 0.000000 0.021188
-0.045775 0.109709 0.000000 0.019747
-0.054754 0.124918 0.000000 0.037528
-0.045743 0.127089 0.000000 0.020581
-0.021887 0.040866 0.000000 -0.003262
-0.029289 0.056173 0.000000 0.032316
-0.035975 0.080022 0.000000 0.011586
-0.023185 0.055333 0.000000 0.017334
-0.030384 0.091514 0.000000 0.013008
-0.045403 0.112062 0.000000 0.035115
-0.026806 0.065994 0.000000 0.041647
-0.026598 0.091435 0.000000 0.036338
-0.035260 0.090214 0.000000 0.022515
-0.030022 0.066071 0.000000 0.043859
-0.040576 0.112019 0.000000 0.036261
-0.040546 0.089215 0.000000 0.037392

SCALARS sigma float 4
LOOKUP_TABLE default
0.104800 0.557275 0.181889 -0.014516
-0.049041 0.117053 0.018685 0.404243
-0.390952 0.435533 0.012248 0.755363
-0.281363 0.453766 0.047363 0.331004
-2.410721 -4.847963 -1.994144 1.172942
-0.279293 -2.108798 -0.656069 0.741094
-1.292421 -3.019408 -1.184569 2.146599
-0.517825 -3.001346 -0.966805 0.330405
0.575750 1.793666 0.650939 0.160372
-0.138442 0.474907 0.092435 0.935160
0.434775 0.160327 0.163490 0.379353
0.115646 0.605279 0.198056 0.339880
0.033947 0.223746 0.070795 0.874001
-0.029098 -1.045289 -0.295161 0.453083
-0.077798 0.553053 0.130564 0.814912
-0.813082 -1.362171 -0.597597 1.486895
-2.410721 -4.847963 -1.994144 -1.172942
-1.292421 -3.019408 -1.184569 -2.146599
-0.279293 -2.108798 -0.656069 -0.741094
-0.517825 -3.001346 -0.966805 -0.330405
0.104800 0.557275 0.181889 0.014516
-0.390952 0.435533 0.012248 -0.755363
-0.049041 0.117053 0.018685 -0.404243
-0.281363 0.453766 0.047363 -0.331004
0.575750 1.793666 0.650939 -0.160372
0.434775 0.160327 0.163490 -0.379353
-0.138442 0.474907 0.092435 -0.935160
0.115646 0.605279 0.198056 -0.339880
0.033947 0.223746 0.070795 -0.874001
-0.077798 0.553053 0.130564 -0.814912
-0.029098 -1.045289 -0.295161 -0.453083
-0.813082 -1.362171 -0.597597 -1.486895
-0.197286 0.825113 0.172480 0.039840
-0.204593 1.664795 0.401154 -0.174411
-0.253836 1.108669 0.234844 -0.538257
-0.084848 1.180424 0.300982 -0.283788
-0.214600 2.783080 0.705626 -0.270364
-0.351153 2.532253 0.599203 -0.569062
-0.237434 2.263241 0.556540 -0.269192
-0.080792 2.676184 0.713020 -0.275659
0.054058 2.002910 0.565101 -0.195915
-0.104478 1.380827 0.350645 -0.676938
-0.190040 2.327371 0.587179 -0.549559
0.145829 2.012208 0.592867 -0.589570
-0.109055 1.914030 0.495872 -0.337724
-0.057374 2.375381 0.636815 -0.568376
-0.193556 1.343682 0.315969 -0.715724
-0.267584 1.824724 0.427786 -0.592626
-0.131195 3.022352 0.794274 -0.192802
-0.288561 3.561504 0.899160 -0.097835
-0.042014 3.333245 0.904184 -0.437159
-0.415816 3.212376 0.768286 -0.240185
0.115172 6.090609 1.704885 1.130439
0.074176 4.976120 1.387444 0.277363
-0.393842 4.318556 1.078218 0.174539
-0.557383 4.767988 1.156760 0.032192
0.574029 3.375748 1.085104 -0.138785
0.229665 3.411186 1.000234 -0.423064
0.294857 4.285654 1.258382 -0.130019
-0.164034 3.090501 0.803974 -0.266304
-0.567388 3.916027 0.919956 -0.206744
-0.291883 4.063379 1.036125 -0.135712
-0.438665 3.164784 0.748934 -0.334732
-0.076826 4.102607 1.105984 -0.171037
2.307537 6.091897 2.307537 0.789820
2.265429 5.980732 2.265429 0.449329
0.612467 5.035505 1.551641 0.199253
0.815382 5.539217 1.745769 0.787453
2.227948 5.881782 2.227948 -0.000000
1.182433 5.104908 1.727291 -0.022853
2.248413 5.935810 2.248413 0.204386
1.374388 5.606273 1.917764 0.188850
0.067997 3.292928 0.923331 -0.046358
0.193555 4.153611 1.194276 -0.071920
0.426858 4.241621 1.282549 -0.044241
0.427590 4.242262 1.282927 -0.044549
1.208565 5.583234 1.865879 0.448617
0.703303 4.965726 1.557426 0.076396
0.522656 5.003111 1.518068 0.179417
1.016398 5.083425 1.675775 0.098635
2.227948 5.881782 2.227948 -0.000000
2.248413 5.935810 2.248413 -0.204386
1.182433 5.104908 1.727291 0.022853
1.374388 5.606273 1.917764 -0.188850
2.307537 6.091897 2.307537 -0.789820
0.612467 5.035505 1.551641 -0.199253
2.265429 5.980732 2.265429 -0.449329
0.815382 5.539217 1.745769 -0.787453
0.067997 3.292928 0.923331 0.046358
0.426858 4.241621 1.282549 0.044241
0.193555 4.153611 1.194276 0.071920
0.427590 4.242262 1.282927 0.044549
1.208565 5.583234 1.865879 -0.448617
0.522656 5.003111 1.518068 -0.179417
0.703303 4.965726 1.557426 -0.076396
1.016398 5.083425 1.675775 -0.098635
0.115172 6.090609 1.704885 -1.130439
-0.393842 4.318556 1.078218 -0.174539
0.074176 4.976120 1.387444 -0.277363
-0.557383 4.767988 1.156760 -0.032192
-0.131195 3.022352 0.794274 0.192802
-0.042014 3.333245 0.904184 0.437159
-0.288561 3.561504 0.899160 0.097835
-0.415816 3.212376 0.768286 0.240185
0.574029 3.375748 1.085104 0.138785
0.294857 4.285654 1.258382 0.130019
0.229665 3.411186 1.000234 0.423064
-0.164034 3.090501 0.803974 0.266304
-0.567388 3.916027 0.919956 0.206744
-0.438665 3.164784 0.748934 0.334732
-0.291883 4.063379 1.036125 0.135712
-0.076826 4.102607 1.105984 0.171037
-0.214600 2.783080 0.705626 0.270364
-0.237434 2.263241 0.556540 0.269192
-0.351153 2.532253 0.599203 0.569062
-0.080792 2.676184 0.713020 0.275659
-0.197286 0.825113 0.172480 -0.039840
-0.253836 1.108669 0.234844 0.538257
-0.204593 1.664795 0.401154 0.174411
-0.084848 1.180424 0.300982 0.283788
0.054058 2.002910 0.565101 0.195915
-0.190040 2.327371 0.587179 0.549559
-0.104478 1.380827 0.350645 0.676938
0.145829 2.012208 0.592867 0.589570
-0.109055 1.914030 0.495872 0.337724
-0.193556 1.343682 0.315969 0.715724
-0.057374 2.375381 0.636815 0.568376
-0.267584 1.824724 0.427786 0.592626

