# vtk DataFile Version 2.0
Unstructured Grid Example
ASCII
DATASET UNSTRUCTURED_GRID

POINTS 9 float
0.010370 -0.148215 0.000000 
0.989630 -0.148215 0.000000 
1.000000 1.000000 0.000000 
0.000000 1.000000 0.000000 
0.500000 -0.060044 0.000000 
0.977353 0.396109 0.000000 
0.500000 1.000000 0.000000 
0.022647 0.396109 0.000000 
0.500000 0.407029 0.000000 

CELLS 8 32
3  0 4 8 
3  4 1 8 
3  1 5 8 
3  5 2 8 
3  2 6 8 
3  6 3 8 
3  3 7 8 
3  7 0 8 

CELL_TYPES 8
5
5
5
5
5
5
5
5

POINT_DATA 9

SCALARS u_h float 2
LOOKUP_TABLE default
0.010370 -0.148215 
-0.010370 -0.148215 
0.000000 0.000000 
0.000000 0.000000 
-0.000000 -0.060044 
-0.022647 -0.103891 
0.000000 0.000000 
0.022647 -0.103891 
-0.000000 -0.092971 

CELL_DATA 8

SCALARS epsilon float 4
LOOKUP_TABLE default
-0.020954 -0.049431 0.000000 0.094344
-0.020954 -0.049431 0.000000 -0.094344
-0.046553 0.084452 0.000000 -0.022784
-0.044692 0.187846 0.000000 0.013991
0.000000 0.169079 0.000000 0.000000
0.000000 0.169079 0.000000 0.000000
-0.044692 0.187846 0.000000 -0.013991
-0.046553 0.084452 0.000000 0.022784

SCALARS sigma float 4
LOOKUP_TABLE default
-1.264086 -2.072899 -0.916754 1.580727
-1.264086 -2.072899 -0.916754 -1.580727
-0.457234 1.657347 0.329701 -0.366237
0.498670 4.095052 1.262012 0.166640
1.567881 4.139206 1.567881 0.000000
1.567881 4.139206 1.567881 0.000000
0.498670 4.095052 1.262012 -0.166640
-0.457234 1.657347 0.329701 0.366237

