# vtk DataFile Version 2.0
Unstructured Grid Example
ASCII
DATASET UNSTRUCTURED_GRID

POINTS 1089 float
0.006954 -0.167386 0.000000 
0.993046 -0.167386 0.000000 
1.000000 1.000000 0.000000 
0.000000 1.000000 0.000000 
0.500000 -0.099844 0.000000 
0.977061 0.380574 0.000000 
0.500000 1.000000 0.000000 
0.022939 0.380574 0.000000 
0.500000 0.382372 0.000000 
0.258510 -0.149522 0.000000 
0.500000 0.120272 0.000000 
0.248612 0.105159 0.000000 
0.741490 -0.149522 0.000000 
0.751388 0.105159 0.000000 
0.993276 0.098170 0.000000 
0.740800 0.378059 0.000000 
0.964972 0.675052 0.000000 
0.735651 0.678470 0.000000 
0.750000 1.000000 0.000000 
0.500000 0.680207 0.000000 
0.250000 1.000000 0.000000 
0.264349 0.678470 0.000000 
0.035028 0.675052 0.000000 
0.259200 0.378059 0.000000 
0.006724 0.098170 0.000000 
0.132364 -0.163003 0.000000 
0.247689 -0.023179 0.000000 
0.126415 -0.034907 0.000000 
0.500000 0.005151 0.000000 
0.371548 -0.003886 0.000000 
0.378560 -0.114599 0.000000 
0.375819 0.243863 0.000000 
0.372737 0.115447 0.000000 
0.500000 0.246374 0.000000 
0.621440 -0.114599 0.000000 
0.628452 -0.003886 0.000000 
0.873585 -0.034907 0.000000 
0.752311 -0.023179 0.000000 
0.867636 -0.163003 0.000000 
0.627263 0.115447 0.000000 
0.624181 0.243863 0.000000 
0.995606 -0.037902 0.000000 
0.872782 0.097824 0.000000 
0.859223 0.376302 0.000000 
0.866891 0.234670 0.000000 
0.986135 0.237943 0.000000 
0.746521 0.238345 0.000000 
0.621001 0.381182 0.000000 
0.968959 0.525937 0.000000 
0.852823 0.523362 0.000000 
0.857264 0.836467 0.000000 
0.850742 0.676561 0.000000 
0.969909 0.829263 0.000000 
0.736462 0.524827 0.000000 
0.618756 0.526825 0.000000 
0.875000 1.000000 0.000000 
0.740296 0.837758 0.000000 
0.500000 0.838245 0.000000 
0.620688 0.838107 0.000000 
0.625000 1.000000 0.000000 
0.618461 0.679717 0.000000 
0.500000 0.527678 0.000000 
0.375000 1.000000 0.000000 
0.379312 0.838107 0.000000 
0.142736 0.836467 0.000000 
0.259704 0.837758 0.000000 
0.125000 1.000000 0.000000 
0.381539 0.679717 0.000000 
0.381244 0.526825 0.000000 
0.030091 0.829263 0.000000 
0.149258 0.676561 0.000000 
0.140777 0.376302 0.000000 
0.147177 0.523362 0.000000 
0.031041 0.525937 0.000000 
0.263538 0.524827 0.000000 
0.378999 0.381182 0.000000 
0.013865 0.237943 0.000000 
0.133109 0.234670 0.000000 
0.127218 0.097824 0.000000 
0.004394 -0.037902 0.000000 
0.253479 0.238345 0.000000 
0.069406 -0.165609 0.000000 
0.128718 -0.099711 0.000000 
0.067048 -0.102229 0.000000 
0.250680 -0.086499 0.000000 
0.190003 -0.094887 0.000000 
0.195628 -0.158176 0.000000 
0.186562 0.034741 0.000000 
0.187108 -0.030422 0.000000 
0.247370 0.040554 0.000000 
0.500000 -0.048385 0.000000 
0.436401 -0.051448 0.000000 
0.438858 -0.103584 0.000000 
0.435551 0.059518 0.000000 
0.435478 0.002746 0.000000 
0.500000 0.061308 0.000000 
0.319295 -0.132506 0.000000 
0.373262 -0.060150 0.000000 
0.311222 -0.073461 0.000000 
0.438608 0.312789 0.000000 
0.437760 0.245718 0.000000 
0.500000 0.313231 0.000000 
0.310205 0.110455 0.000000 
0.374192 0.178525 0.000000 
0.312127 0.174898 0.000000 
0.500000 0.182004 0.000000 
0.436904 0.181080 0.000000 
0.436120 0.118980 0.000000 
0.308877 -0.013467 0.000000 
0.371699 0.054642 0.000000 
0.308933 0.047740 0.000000 
0.561142 -0.103584 0.000000 
0.563599 -0.051448 0.000000 
0.688778 -0.073461 0.000000 
0.626738 -0.060150 0.000000 
0.680705 -0.132506 0.000000 
0.564522 0.002746 0.000000 
0.564449 0.059518 0.000000 
0.932952 -0.102229 0.000000 
0.871282 -0.099711 0.000000 
0.930594 -0.165609 0.000000 
0.752630 0.040554 0.000000 
0.812892 -0.030422 0.000000 
0.813438 0.034741 0.000000 
0.804372 -0.158176 0.000000 
0.809997 -0.094887 0.000000 
0.749320 -0.086499 0.000000 
0.562240 0.245718 0.000000 
0.561392 0.312789 0.000000 
0.563880 0.118980 0.000000 
0.563096 0.181080 0.000000 
0.687873 0.174898 0.000000 
0.625808 0.178525 0.000000 
0.689795 0.110455 0.000000 
0.691123 -0.013467 0.000000 
0.691067 0.047740 0.000000 
0.628301 0.054642 0.000000 
0.994699 -0.103657 0.000000 
0.934558 -0.037167 0.000000 
0.933127 0.096886 0.000000 
0.934637 0.029283 0.000000 
0.995172 0.029528 0.000000 
0.874025 0.030974 0.000000 
0.812271 0.100705 0.000000 
0.918147 0.377317 0.000000 
0.922437 0.305713 0.000000 
0.981646 0.308885 0.000000 
0.803525 0.305597 0.000000 
0.863092 0.304846 0.000000 
0.800150 0.376755 0.000000 
0.990142 0.167694 0.000000 
0.926617 0.235122 0.000000 
0.930317 0.165515 0.000000 
0.622538 0.311434 0.000000 
0.560594 0.382191 0.000000 
0.749213 0.171006 0.000000 
0.685633 0.241208 0.000000 
0.681090 0.379684 0.000000 
0.683306 0.309462 0.000000 
0.743627 0.307333 0.000000 
0.870258 0.165692 0.000000 
0.806899 0.235949 0.000000 
0.809941 0.167704 0.000000 
0.972698 0.452815 0.000000 
0.914149 0.449984 0.000000 
0.908497 0.598946 0.000000 
0.910801 0.523820 0.000000 
0.966221 0.599983 0.000000 
0.855690 0.449112 0.000000 
0.797134 0.449494 0.000000 
0.923528 0.916897 0.000000 
0.913963 0.834180 0.000000 
0.978882 0.910119 0.000000 
0.793462 0.677591 0.000000 
0.852598 0.755692 0.000000 
0.795304 0.756842 0.000000 
0.965869 0.751333 0.000000 
0.909216 0.753818 0.000000 
0.907738 0.675529 0.000000 
0.619685 0.453015 0.000000 
0.559905 0.453795 0.000000 
0.738328 0.450556 0.000000 
0.679183 0.451847 0.000000 
0.677099 0.601728 0.000000 
0.677789 0.525896 0.000000 
0.735478 0.600831 0.000000 
0.851016 0.599145 0.000000 
0.793421 0.599900 0.000000 
0.794775 0.523865 0.000000 
0.937500 1.000000 0.000000 
0.865090 0.918298 0.000000 
0.744715 0.918691 0.000000 
0.805233 0.918615 0.000000 
0.812500 1.000000 0.000000 
0.799255 0.837366 0.000000 
0.737222 0.757550 0.000000 
0.500000 0.918745 0.000000 
0.561371 0.918730 0.000000 
0.562500 1.000000 0.000000 
0.559706 0.758564 0.000000 
0.560409 0.838195 0.000000 
0.500000 0.758659 0.000000 
0.687500 1.000000 0.000000 
0.622667 0.918719 0.000000 
0.683813 0.918710 0.000000 
0.559446 0.527447 0.000000 
0.500000 0.454047 0.000000 
0.677287 0.679181 0.000000 
0.618316 0.602460 0.000000 
0.500000 0.603134 0.000000 
0.559235 0.602943 0.000000 
0.559312 0.680063 0.000000 
0.680703 0.837971 0.000000 
0.619253 0.758355 0.000000 
0.678481 0.758025 0.000000 
0.437500 1.000000 0.000000 
0.438629 0.918730 0.000000 
0.316187 0.918710 0.000000 
0.377333 0.918719 0.000000 
0.312500 1.000000 0.000000 
0.439591 0.838195 0.000000 
0.440294 0.758564 0.000000 
0.076472 0.916897 0.000000 
0.134910 0.918298 0.000000 
0.062500 1.000000 0.000000 
0.262778 0.757550 0.000000 
0.200745 0.837366 0.000000 
0.204696 0.756842 0.000000 
0.187500 1.000000 0.000000 
0.194767 0.918615 0.000000 
0.255285 0.918691 0.000000 
0.440554 0.527447 0.000000 
0.440095 0.453795 0.000000 
0.440688 0.680063 0.000000 
0.440765 0.602943 0.000000 
0.322901 0.601728 0.000000 
0.381684 0.602460 0.000000 
0.322713 0.679181 0.000000 
0.319297 0.837971 0.000000 
0.321519 0.758025 0.000000 
0.380747 0.758355 0.000000 
0.021118 0.910119 0.000000 
0.086037 0.834180 0.000000 
0.092262 0.675529 0.000000 
0.090784 0.753818 0.000000 
0.034131 0.751333 0.000000 
0.147402 0.755692 0.000000 
0.206538 0.677591 0.000000 
0.081853 0.377317 0.000000 
0.085851 0.449984 0.000000 
0.027302 0.452815 0.000000 
0.202866 0.449494 0.000000 
0.144310 0.449112 0.000000 
0.199850 0.376755 0.000000 
0.033779 0.599983 0.000000 
0.089199 0.523820 0.000000 
0.091503 0.598946 0.000000 
0.380315 0.453015 0.000000 
0.439406 0.382191 0.000000 
0.264522 0.600831 0.000000 
0.322211 0.525896 0.000000 
0.318910 0.379684 0.000000 
0.320817 0.451847 0.000000 
0.261672 0.450556 0.000000 
0.148984 0.599145 0.000000 
0.205225 0.523865 0.000000 
0.206579 0.599900 0.000000 
0.018354 0.308885 0.000000 
0.077563 0.305713 0.000000 
0.069683 0.165515 0.000000 
0.073383 0.235122 0.000000 
0.009858 0.167694 0.000000 
0.136908 0.304846 0.000000 
0.196475 0.305597 0.000000 
0.065442 -0.037167 0.000000 
0.005301 -0.103657 0.000000 
0.187729 0.100705 0.000000 
0.125975 0.030974 0.000000 
0.004828 0.029528 0.000000 
0.065363 0.029283 0.000000 
0.066873 0.096886 0.000000 
0.377462 0.311434 0.000000 
0.256373 0.307333 0.000000 
0.316694 0.309462 0.000000 
0.314367 0.241208 0.000000 
0.250787 0.171006 0.000000 
0.129742 0.165692 0.000000 
0.190059 0.167704 0.000000 
0.193101 0.235949 0.000000 
0.038130 -0.166490 0.000000 
0.068224 -0.134142 0.000000 
0.037128 -0.134982 0.000000 
0.130457 -0.131589 0.000000 
0.099342 -0.133071 0.000000 
0.100823 -0.164504 0.000000 
0.096747 -0.068901 0.000000 
0.097913 -0.101184 0.000000 
0.127341 -0.067462 0.000000 
0.253791 -0.118095 0.000000 
0.223275 -0.123024 0.000000 
0.227191 -0.154471 0.000000 
0.218510 -0.059251 0.000000 
0.220419 -0.091224 0.000000 
0.248749 -0.054864 0.000000 
0.163987 -0.160950 0.000000 
0.192493 -0.126750 0.000000 
0.161528 -0.129539 0.000000 
0.217341 0.069972 0.000000 
0.216910 0.037412 0.000000 
0.247842 0.072721 0.000000 
0.156797 -0.032984 0.000000 
0.186582 0.002072 0.000000 
0.156288 -0.000300 0.000000 
0.247281 0.008606 0.000000 
0.216891 0.005048 0.000000 
0.217383 -0.027162 0.000000 
0.159427 -0.097662 0.000000 
0.188222 -0.062750 0.000000 
0.157837 -0.065450 0.000000 
0.500000 -0.074328 0.000000 
0.468679 -0.075214 0.000000 
0.469395 -0.100781 0.000000 
0.467856 -0.022646 0.000000 
0.468172 -0.049196 0.000000 
0.500000 -0.021919 0.000000 
0.408549 -0.108212 0.000000 
0.437420 -0.077722 0.000000 
0.406296 -0.081837 0.000000 
0.467860 0.090039 0.000000 
0.467735 0.060836 0.000000 
0.500000 0.090438 0.000000 
0.403399 -0.000091 0.000000 
0.435426 0.030797 0.000000 
0.403332 0.028346 0.000000 
0.500000 0.032883 0.000000 
0.467673 0.032330 0.000000 
0.467702 0.004512 0.000000 
0.289303 -0.142769 0.000000 
0.314122 -0.103101 0.000000 
0.284007 -0.111597 0.000000 
0.375352 -0.087513 0.000000 
0.344602 -0.094680 0.000000 
0.348883 -0.122690 0.000000 
0.340643 -0.037641 0.000000 
0.342039 -0.066382 0.000000 
0.372079 -0.032296 0.000000 
0.435776 -0.024653 0.000000 
0.403824 -0.027902 0.000000 
0.404745 -0.055121 0.000000 
0.469481 0.347483 0.000000 
[...]
POINT_DATA 1089

SCALARS u_h float 2
LOOKUP_TABLE default
0.006954 -0.167386 
-0.006954 -0.167386 
0.000000 0.000000 
0.000000 0.000000 
-0.000000 -0.099844 
-0.022939 -0.119426 
0.000000 0.000000 
0.022939 -0.119426 
-0.000000 -0.117628 
0.008510 -0.149522 
-0.000000 -0.129728 
-0.001388 -0.144841 
-0.008510 -0.149522 
0.001388 -0.144841 
-0.006724 -0.151830 
-0.009200 -0.121941 
-0.035028 -0.074948 
-0.014349 -0.071530 
0.000000 0.000000 
-0.000000 -0.069793 
0.000000 0.000000 
0.014349 -0.071530 
0.035028 -0.074948 
0.009200 -0.121941 
0.006724 -0.151830 
0.007364 -0.163003 
-0.002311 -0.148179 
0.001415 -0.159907 
-0.000000 -0.119849 
-0.003452 -0.128886 
0.003560 -0.114599 
0.000819 -0.131137 
-0.002263 -0.134553 
-0.000000 -0.128626 
-0.003560 -0.114599 
0.003452 -0.128886 
-0.001415 -0.159907 
0.002311 -0.148179 
-0.007364 -0.163003 
0.002263 -0.134553 
-0.000819 -0.131137 
-0.004394 -0.162902 
-0.002218 -0.152176 
-0.015777 -0.123698 
-0.008109 -0.140330 
-0.013865 -0.137057 
-0.003479 -0.136655 
-0.003999 -0.118818 
-0.031041 -0.099063 
-0.022177 -0.101638 
-0.017736 -0.038533 
-0.024258 -0.073439 
-0.030091 -0.045737 
-0.013538 -0.100173 
-0.006244 -0.098175 
0.000000 0.000000 
-0.009704 -0.037242 
-0.000000 -0.036755 
-0.004312 -0.036893 
0.000000 0.000000 
-0.006539 -0.070283 
-0.000000 -0.097322 
0.000000 0.000000 
0.004312 -0.036893 
0.017736 -0.038533 
0.009704 -0.037242 
0.000000 0.000000 
0.006539 -0.070283 
0.006244 -0.098175 
0.030091 -0.045737 
0.024258 -0.073439 
0.015777 -0.123698 
0.022177 -0.101638 
0.031041 -0.099063 
0.013538 -0.100173 
0.003999 -0.118818 
0.013865 -0.137057 
0.008109 -0.140330 
0.002218 -0.152176 
0.004394 -0.162902 
0.003479 -0.136655 
0.006906 -0.165609 
0.003718 -0.162211 
0.004548 -0.164729 
0.000680 -0.148999 
0.002503 -0.157387 
0.008128 -0.158176 
-0.000938 -0.152759 
-0.000392 -0.155422 
-0.002630 -0.146946 
-0.000000 -0.110885 
-0.001099 -0.113948 
0.001358 -0.103584 
-0.001949 -0.127982 
-0.002022 -0.122254 
-0.000000 -0.126192 
0.006795 -0.132506 
-0.001738 -0.122650 
-0.001278 -0.135961 
0.001108 -0.124711 
0.000260 -0.129282 
-0.000000 -0.124269 
-0.002295 -0.139545 
-0.000808 -0.133975 
-0.000373 -0.137602 
-0.000000 -0.130496 
-0.000596 -0.131420 
-0.001380 -0.131020 
-0.003623 -0.138467 
-0.003301 -0.132858 
-0.003567 -0.139760 
-0.001358 -0.103584 
0.001099 -0.113948 
0.001278 -0.135961 
0.001738 -0.122650 
-0.006795 -0.132506 
0.002022 -0.122254 
0.001949 -0.127982 
-0.004548 -0.164729 
-0.003718 -0.162211 
-0.006906 -0.165609 
0.002630 -0.146946 
0.000392 -0.155422 
0.000938 -0.152759 
-0.008128 -0.158176 
-0.002503 -0.157387 
-0.000680 -0.148999 
-0.000260 -0.129282 
-0.001108 -0.124711 
0.001380 -0.131020 
0.000596 -0.131420 
0.000373 -0.137602 
0.000808 -0.133975 
0.002295 -0.139545 
0.003623 -0.138467 
0.003567 -0.139760 
0.003301 -0.132858 
-0.005301 -0.166157 
-0.002942 -0.162167 
-0.004373 -0.153114 
-0.002863 -0.158217 
-0.004828 -0.157972 
-0.000975 -0.156526 
-0.000229 -0.149295 
-0.019353 -0.122683 
-0.015063 -0.131787 
-0.018354 -0.128615 
-0.008975 -0.131903 
-0.011908 -0.132654 
-0.012350 -0.123245 
-0.009858 -0.144806 
-0.010883 -0.139878 
-0.007183 -0.146985 
-0.002462 -0.126066 
-0.001906 -0.117809 
-0.000787 -0.141494 
-0.001867 -0.133792 
-0.006410 -0.120316 
-0.004194 -0.128038 
-0.006373 -0.130167 
-0.004742 -0.146808 
-0.005601 -0.139051 
-0.002559 -0.144796 
-0.027302 -0.109685 
-0.023351 -0.112516 
-0.029003 -0.088554 
-0.026699 -0.101180 
-0.033779 -0.087517 
-0.019310 -0.113388 
-0.015366 -0.113006 
-0.013972 -0.020603 
-0.023537 -0.040820 
-0.021118 -0.027381 
-0.019038 -0.072409 
-0.022402 -0.056808 
-0.017196 -0.055658 
-0.034131 -0.061167 
-0.028284 -0.058682 
-0.029762 -0.074471 
-0.005315 -0.109485 
-0.002595 -0.108705 
-0.011672 -0.111944 
-0.008317 -0.110653 
-0.010401 -0.085772 
-0.009711 -0.099104 
-0.014522 -0.086669 
-0.023984 -0.088355 
-0.019079 -0.087600 
-0.017725 -0.101135 
0.000000 0.000000 
-0.009910 -0.019202 
-0.005285 -0.018809 
-0.007267 -0.018885 
0.000000 0.000000 
-0.013245 -0.037634 
-0.012778 -0.054950 
-0.000000 -0.018755 
-0.001129 -0.018770 
0.000000 0.000000 
-0.002794 -0.053936 
-0.002091 -0.036805 
-0.000000 -0.053841 
0.000000 0.000000 
-0.002333 -0.018781 
-0.003687 -0.018790 
-0.003054 -0.097553 
-0.000000 -0.108453 
-0.010213 -0.070819 
-0.006684 -0.085040 
-0.000000 -0.084366 
-0.003265 -0.084557 
-0.003188 -0.069937 
-0.006797 -0.037029 
-0.005747 -0.054145 
-0.009019 -0.054475 
0.000000 0.000000 
0.001129 -0.018770 
0.003687 -0.018790 
0.002333 -0.018781 
0.000000 0.000000 
0.002091 -0.036805 
0.002794 -0.053936 
0.013972 -0.020603 
0.009910 -0.019202 
0.000000 0.000000 
0.012778 -0.054950 
0.013245 -0.037634 
0.017196 -0.055658 
0.000000 0.000000 
0.007267 -0.018885 
0.005285 -0.018809 
0.003054 -0.097553 
0.002595 -0.108705 
0.003188 -0.069937 
0.003265 -0.084557 
0.010401 -0.085772 
0.006684 -0.085040 
0.010213 -0.070819 
0.006797 -0.037029 
0.009019 -0.054475 
0.005747 -0.054145 
0.021118 -0.027381 
0.023537 -0.040820 
0.029762 -0.074471 
0.028284 -0.058682 
0.034131 -0.061167 
0.022402 -0.056808 
0.019038 -0.072409 
0.019353 -0.122683 
0.023351 -0.112516 
0.027302 -0.109685 
0.015366 -0.113006 
0.019310 -0.113388 
0.012350 -0.123245 
0.033779 -0.087517 
0.026699 -0.101180 
0.029003 -0.088554 
0.005315 -0.109485 
0.001906 -0.117809 
0.014522 -0.086669 
0.009711 -0.099104 
0.006410 -0.120316 
0.008317 -0.110653 
0.011672 -0.111944 
0.023984 -0.088355 
0.017725 -0.101135 
0.019079 -0.087600 
0.018354 -0.128615 
0.015063 -0.131787 
0.007183 -0.146985 
0.010883 -0.139878 
0.009858 -0.144806 
0.011908 -0.132654 
0.008975 -0.131903 
0.002942 -0.162167 
0.005301 -0.166157 
0.000229 -0.149295 
0.000975 -0.156526 
0.004828 -0.157972 
0.002863 -0.158217 
0.004373 -0.153114 
0.002462 -0.126066 
0.006373 -0.130167 
0.004194 -0.128038 
0.001867 -0.133792 
0.000787 -0.141494 
0.004742 -0.146808 
0.002559 -0.144796 
0.005601 -0.139051 
0.006880 -0.166490 
0.005724 -0.165392 
0.005878 -0.166232 
0.005457 -0.162839 
0.005592 -0.164321 
0.007073 -0.164504 
0.002997 -0.162651 
0.004163 -0.163684 
0.002341 -0.161212 
0.003791 -0.149345 
0.004525 -0.154274 
0.008441 -0.154471 
-0.000240 -0.153001 
0.001669 -0.153724 
-0.001251 -0.148614 
0.007737 -0.160950 
0.004993 -0.158000 
0.005278 -0.160789 
-0.001409 -0.148778 
-0.001840 -0.150088 
-0.002158 -0.146029 
0.000547 -0.157984 
-0.000918 -0.154178 
0.000038 -0.156550 
-0.002719 -0.147644 
-0.001859 -0.151202 
-0.001367 -0.152162 
0.003177 -0.160162 
0.000722 -0.156500 
0.001587 -0.159200 
-0.000000 -0.105578 
-0.000071 -0.106464 
0.000645 -0.100781 
-0.000894 -0.116396 
-0.000578 -0.111696 
-0.000000 -0.115669 
0.002299 -0.108212 
-0.000080 -0.108972 
0.000046 -0.113087 
-0.000890 -0.128711 
-0.001015 -0.126664 
-0.000000 -0.128312 
-0.002851 -0.125091 
-0.002074 -0.125453 
-0.002918 -0.127904 
-0.000000 -0.123367 
-0.001077 -0.123920 
-0.001048 -0.120488 
0.008053 -0.142769 
0.001622 -0.134351 
0.002757 -0.142847 
0.000352 -0.118763 
0.000852 -0.125930 
0.005133 -0.122690 
-0.003107 -0.131391 
-0.001711 -0.128882 
-0.002921 -0.126046 
-0.001724 -0.118403 
-0.002426 -0.121652 
-0.001505 -0.117621 
0.000731 -0.121267 
0.000532 -0.124367 
-0.000000 -0.121217 
0.000488 -0.130079 
0.000689 -0.127294 
0.001122 -0.127972 
-0.000000 -0.126748 
0.000324 -0.126880 
0.000109 -0.128789 
-0.001951 -0.142233 
-0.001391 -0.138800 
-0.000988 -0.141100 
-0.001569 -0.134548 
-0.001584 -0.136573 
-0.002399 -0.136933 
0.000280 -0.134311 
-0.000681 -0.135701 
-0.000005 -0.132837 
-0.000000 -0.130451 
-0.000533 -0.130733 
-0.000724 -0.130063 
-0.000109 -0.130080 
-0.000325 -0.130733 
-0.000000 -0.129882 
-0.001910 -0.132544 
-0.001004 -0.131544 
-0.001364 -0.132840 
-0.000147 -0.131598 
-0.000770 -0.132521 
-0.000171 -0.130662 
-0.000382 -0.143059 
-0.003734 -0.133443 
-0.002871 -0.137344 
-0.002192 -0.143326 
-0.003111 -0.143538 
-0.001705 -0.129836 
-0.002856 -0.133990 
-0.002380 -0.131628 
-0.002734 -0.130083 
-0.003532 -0.131157 
-0.002720 -0.143002 
-0.003400 -0.143601 
-0.003231 -0.143442 
-0.003040 -0.139857 
-0.003085 -0.136789 
-0.003843 -0.135033 
-0.003591 -0.136152 
-0.003799 -0.139285 
-0.000645 -0.100781 
0.000071 -0.106464 
-0.000046 -0.113087 
0.000080 -0.108972 
-0.002299 -0.108212 
0.000578 -0.111696 
0.000894 -0.116396 
-0.002757 -0.142847 
-0.001622 -0.134351 
-0.008053 -0.142769 
0.002921 -0.126046 
0.001711 -0.128882 
0.003107 -0.131391 
-0.005133 -0.122690 
-0.000852 -0.125930 
-0.000352 -0.118763 
0.001015 -0.126664 
0.000890 -0.128711 
0.001048 -0.120488 
0.001077 -0.123920 
0.002918 -0.127904 
0.002074 -0.125453 
0.002851 -0.125091 
0.001505 -0.117621 
0.002426 -0.121652 
0.001724 -0.118403 
-0.005878 -0.166232 
-0.005724 -0.165392 
-0.006880 -0.166490 
-0.002341 -0.161212 
-0.004163 -0.163684 
-0.002997 -0.162651 
-0.007073 -0.164504 
-0.005592 -0.164321 
-0.005457 -0.162839 
0.002158 -0.146029 
0.001840 -0.150088 
0.001409 -0.148778 
0.001367 -0.152162 
0.001859 -0.151202 
0.002719 -0.147644 
-0.000038 -0.156550 
0.000918 -0.154178 
-0.000547 -0.157984 
-0.008441 -0.154471 
-0.004525 -0.154274 
-0.003791 -0.149345 
-0.005278 -0.160789 
-0.004993 -0.158000 
-0.007737 -0.160950 
0.001251 -0.148614 
-0.001669 -0.153724 
0.000240 -0.153001 
-0.001587 -0.159200 
-0.000722 -0.156500 
-0.003177 -0.160162 
-0.000532 -0.124367 
-0.000731 -0.121267 
-0.000109 -0.128789 
-0.000324 -0.126880 
-0.001122 -0.127972 
-0.000689 -0.127294 
-0.000488 -0.130079 
0.000724 -0.130063 
0.000533 -0.130733 
0.001364 -0.132840 
0.001004 -0.131544 
0.001910 -0.132544 
0.000325 -0.130733 
0.000109 -0.130080 
0.000988 -0.141100 
0.001391 -0.138800 
0.001951 -0.142233 
0.000005 -0.132837 
0.000681 -0.135701 
-0.000280 -0.134311 
0.002399 -0.136933 
0.001584 -0.136573 
0.001569 -0.134548 
0.000171 -0.130662 
0.000770 -0.132521 
0.000147 -0.131598 
0.000382 -0.143059 
0.003111 -0.143538 
0.002192 -0.143326 
0.002871 -0.137344 
0.003734 -0.133443 
0.002720 -0.143002 
0.003085 -0.136789 
0.003040 -0.139857 
0.003231 -0.143442 
0.003400 -0.143601 
0.001705 -0.129836 
0.003532 -0.131157 
0.002734 -0.130083 
0.002380 -0.131628 
0.002856 -0.133990 
0.003799 -0.139285 
0.003591 -0.136152 
0.003843 -0.135033 
-0.006077 -0.167031 
-0.004911 -0.165500 
-0.003651 -0.162680 
-0.004131 -0.164304 
-0.004708 -0.164769 
-0.003580 -0.163641 
-0.002208 -0.161273 
-0.005512 -0.152772 
-0.004483 -0.155685 
-0.005602 -0.155028 
-0.002414 -0.155392 
-0.003433 -0.155799 
-0.003279 -0.152904 
-0.004425 -0.160616 
-0.003815 -0.158330 
-0.003536 -0.160674 
0.000532 -0.151141 
0.000646 -0.147230 
-0.000965 -0.158339 
-0.000014 -0.154909 
-0.001194 -0.150961 
-0.000420 -0.153051 
-0.001409 -0.154473 
-0.002696 -0.160348 
-0.001924 -0.157622 
-0.001849 -0.159588 
-0.021154 -0.121397 
-0.018930 -0.126074 
-0.020661 -0.124120 
-0.015519 -0.128089 
-0.017215 -0.127364 
-0.017555 -0.123417 
-0.016074 -0.132924 
-0.016695 -0.130534 
-0.014486 -0.134777 
-0.009202 -0.127100 
-0.010682 -0.127768 
-0.010734 -0.122664 
-0.009978 -0.136647 
-0.010407 -0.132440 
-0.008586 -0.136323 
-0.014036 -0.123614 
-0.012238 -0.128207 
-0.013855 -0.128341 
-0.008158 -0.148415 
-0.008487 -0.146228 
-0.006863 -0.149614 
-0.012349 -0.138807 
-0.010333 -0.142624 
-0.011777 -0.141017 
-0.007619 -0.143892 
-0.008948 -0.143553 
-0.009468 -0.140359 
-0.013464 -0.132464 
-0.011432 -0.136552 
-0.012938 -0.135957 
-0.001514 -0.121544 
-0.000939 -0.117582 
-0.001646 -0.128878 
-0.001745 -0.125288 
-0.002920 -0.118233 
-0.002348 -0.122037 
-0.003252 -0.122709 
0.000388 -0.143341 
-0.000119 -0.139570 
-0.002603 -0.135240 
-0.001328 -0.137623 
-0.002089 -0.139273 
-0.000723 -0.135937 
-0.001274 -0.132398 
-0.007757 -0.121139 
-0.006518 -0.125361 
-0.007811 -0.126275 
-0.004241 -0.123521 
-0.005328 -0.124423 
-0.005159 -0.119526 
-0.004918 -0.133624 
-0.005227 -0.129116 
-0.003913 -0.132407 
-0.002279 -0.129961 
-0.003033 -0.131161 
-0.003274 -0.127001 
-0.005640 -0.150173 
-0.006347 -0.143713 
-0.005935 -0.147157 
-0.004470 -0.150159 
-0.003347 -0.149624 
-0.007626 -0.131121 
-0.004483 -0.137953 
-0.006041 -0.134735 
-0.007268 -0.135660 
-0.006815 -0.139869 
-0.000379 -0.145404 
-0.002278 -0.148617 
-0.001279 -0.147190 
-0.001609 -0.143268 
-0.002992 -0.140792 
-0.005141 -0.143089 
-0.004016 -0.142091 
-0.003611 -0.146000 
-0.025180 -0.114666 
-0.023312 -0.116515 
-0.027230 -0.106020 
-0.025349 -0.111394 
-0.029271 -0.104485 
-0.021411 -0.117740 
-0.019502 -0.118442 
-0.032181 -0.081716 
-0.031445 -0.088248 
-0.034625 -0.081369 
-0.024444 -0.101568 
-0.028009 -0.095038 
-0.025633 -0.095250 
-0.032563 -0.093410 
-0.030332 -0.094463 
-0.028908 -0.100381 
-0.013919 -0.118327 
-0.012167 -0.117809 
-0.017604 -0.118718 
-0.015737 -0.118653 
-0.018727 -0.107590 
-0.017315 -0.113315 
-0.020850 -0.107698 
-0.025128 -0.107001 
-0.022993 -0.107530 
-0.021329 -0.113150 
-0.009178 -0.011199 
-0.017183 -0.022852 
-0.013493 -0.015843 
-0.020463 -0.039418 
-0.019466 -0.030992 
-0.016579 -0.029651 
-0.026394 -0.037081 
-0.022855 -0.033358 
-0.026843 -0.042906 
-0.016622 -0.071949 
-0.018366 -0.064217 
-0.015975 -0.063778 
-0.023638 -0.065340 
-0.020925 -0.064733 
-0.021590 -0.072909 
-0.017850 -0.047223 
-0.019698 -0.056160 
-0.020461 -0.047858 
-0.034899 -0.068227 
-0.032203 -0.067583 
-0.032465 -0.074840 
-0.029562 -0.051703 
-0.031284 -0.059894 
-0.032587 -0.053704 
-0.027001 -0.073976 
-0.029356 -0.066810 
-0.026470 -0.066040 
-0.023327 -0.048768 
-0.025286 -0.057643 
-0.026403 -0.050036 
-0.002281 -0.113524 
-0.001144 -0.113321 
-0.004699 -0.114406 
-0.003459 -0.113894 
-0.004317 -0.103668 
-0.003927 -0.109034 
-0.005834 -0.104069 
-0.010494 -0.117165 
-0.008909 -0.116452 
-0.010848 -0.105694 
-0.009949 -0.111303 
-0.012697 -0.106279 
-0.007416 -0.115724 
-0.006014 -0.115028 
-0.012452 -0.078872 
-0.012407 -0.086207 
-0.014597 -0.079295 
-0.007936 -0.098610 
-0.010155 -0.092653 
-0.008300 -0.092210 
-0.014158 -0.093633 
-0.012106 -0.093134 
-0.011577 -0.099635 
-0.006775 -0.110035 
-0.009090 -0.105109 
-0.007421 -0.104557 
-0.029613 -0.081708 
-0.024347 -0.081107 
-0.026981 -0.081474 
-0.026500 -0.088558 
-0.023240 -0.095194 
-0.016867 -0.079744 
-0.016309 -0.094125 
-0.016748 -0.087141 
-0.019258 -0.080209 
-0.021760 -0.080672 
-0.013480 -0.112529 
-0.019928 -0.101471 
-0.016649 -0.107277 
-0.014634 -0.106822 
-0.015590 -0.100687 
-0.021499 -0.088018 
-0.018551 -0.094576 
-0.020870 -0.094949 
0.000000 0.000000 
-0.007218 -0.010078 
-0.005073 -0.009523 
-0.005983 -0.009683 
0.000000 0.000000 
-0.011673 -0.019643 
-0.014197 -0.028929 
-0.002711 -0.009438 
-0.003187 -0.009433 
0.000000 0.000000 
-0.008977 -0.028175 
-0.006216 -0.018834 
-0.007640 -0.028091 
0.000000 0.000000 
-0.003724 -0.009436 
-0.004341 -0.009458 
-0.014894 -0.055265 
-0.013749 -0.063404 
-0.015347 -0.037983 
-0.015493 -0.046777 
-0.011427 -0.046212 
-0.013361 -0.046455 
-0.011379 -0.037403 
-0.008478 -0.018990 
-0.010480 -0.028309 
-0.012197 -0.028534 
-0.000000 -0.009465 
-0.000286 -0.009469 
0.000000 0.000000 
-0.000812 -0.027872 
-0.000559 -0.018764 
-0.000000 -0.027857 
0.000000 0.000000 
-0.000578 -0.009470 
-0.000880 -0.009469 
-0.001505 -0.062014 
-0.001387 -0.053875 
-0.000000 -0.061974 
-0.003177 -0.036844 
-0.002479 -0.045497 
-0.003765 -0.045560 
-0.000000 -0.045425 
-0.001230 -0.045452 
-0.001037 -0.036776 
0.000000 0.000000 
-0.001891 -0.009454 
-0.002282 -0.009446 
-0.001196 -0.009466 
-0.001531 -0.009460 
0.000000 0.000000 
-0.004325 -0.027958 
-0.002986 -0.018785 
-0.003380 -0.027930 
-0.001637 -0.027888 
-0.002489 -0.027908 
-0.001717 -0.018776 
-0.001296 -0.108511 
-0.000000 -0.113288 
-0.004622 -0.097818 
-0.002853 -0.103372 
-0.000000 -0.103127 
-0.001421 -0.103191 
-0.001519 -0.097387 
-0.012216 -0.071154 
-0.010426 -0.078486 
-0.006690 -0.077850 
-0.008510 -0.078143 
-0.008326 -0.070528 
-0.008497 -0.085379 
-0.006532 -0.091824 
-0.000000 -0.077267 
-0.001623 -0.077320 
-0.001584 -0.069840 
-0.001588 -0.091122 
-0.001623 -0.084424 
-0.000000 -0.091061 
-0.004833 -0.070085 
-0.003265 -0.077435 
-0.004947 -0.077613 
-0.004835 -0.091508 
-0.004946 -0.084763 
-0.003193 -0.091272 
-0.004449 -0.018797 
-0.005512 -0.036954 
-0.005337 -0.027991 
-0.006435 -0.028033 
-0.008186 -0.037122 
-0.003031 -0.062094 
-0.006225 -0.062370 
-0.004597 -0.062212 
-0.004240 -0.054026 
-0.005106 -0.045642 
-0.011678 -0.063081 
-0.009659 -0.046023 
-0.010827 -0.054691 
-0.009746 -0.062804 
-0.007935 -0.062567 
-0.006521 -0.045744 
-0.007333 -0.054294 
-0.008032 -0.045870 
0.000000 0.000000 
0.000286 -0.009469 
0.000880 -0.009469 
0.000578 -0.009470 
0.000000 0.000000 
0.000559 -0.018764 
0.000812 -0.027872 
0.002282 -0.009446 
0.001891 -0.009454 
0.000000 0.000000 
0.003380 -0.027930 
0.002986 -0.018785 
0.004325 -0.027958 
0.000000 0.000000 
0.001531 -0.009460 
0.001196 -0.009466 
0.001387 -0.053875 
0.001505 -0.062014 
0.001037 -0.036776 
0.001230 -0.045452 
0.003765 -0.045560 
0.002479 -0.045497 
0.003177 -0.036844 
0.001717 -0.018776 
0.002489 -0.027908 
0.001637 -0.027888 
0.009178 -0.011199 
0.007218 -0.010078 
0.000000 0.000000 
0.014197 -0.028929 
0.011673 -0.019643 
0.016579 -0.029651 
0.000000 0.000000 
0.005983 -0.009683 
0.005073 -0.009523 
0.013749 -0.063404 
0.014894 -0.055265 
0.015975 -0.063778 
0.011379 -0.037403 
0.013361 -0.046455 
0.011427 -0.046212 
0.017850 -0.047223 
0.015493 -0.046777 
0.015347 -0.037983 
0.000000 0.000000 
0.003187 -0.009433 
0.002711 -0.009438 
0.004341 -0.009458 
0.003724 -0.009436 
0.000000 0.000000 
0.007640 -0.028091 
0.006216 -0.018834 
0.008977 -0.028175 
0.012197 -0.028534 
0.010480 -0.028309 
0.008478 -0.018990 
0.001296 -0.108511 
0.001144 -0.113321 
0.001519 -0.097387 
0.001421 -0.103191 
0.004317 -0.103668 
0.002853 -0.103372 
0.004622 -0.097818 
0.001584 -0.069840 
0.001623 -0.077320 
0.004947 -0.077613 
0.003265 -0.077435 
0.004833 -0.070085 
0.001623 -0.084424 
0.001588 -0.091122 
0.012452 -0.078872 
0.010426 -0.078486 
0.012216 -0.071154 
0.006532 -0.091824 
0.008497 -0.085379 
0.008300 -0.092210 
0.008326 -0.070528 
0.008510 -0.078143 
0.006690 -0.077850 
0.003193 -0.091272 
0.004946 -0.084763 
0.004835 -0.091508 
0.004449 -0.018797 
0.008186 -0.037122 
0.006435 -0.028033 
0.005337 -0.027991 
0.005512 -0.036954 
0.011678 -0.063081 
0.007935 -0.062567 
0.009746 -0.062804 
0.010827 -0.054691 
0.009659 -0.046023 
0.003031 -0.062094 
0.005106 -0.045642 
0.004240 -0.054026 
0.004597 -0.062212 
0.006225 -0.062370 
0.008032 -0.045870 
0.007333 -0.054294 
0.006521 -0.045744 
0.013493 -0.015843 
0.017183 -0.022852 
0.026843 -0.042906 
0.022855 -0.033358 
0.026394 -0.037081 
0.019466 -0.030992 
0.020463 -0.039418 
0.032465 -0.074840 
0.032203 -0.067583 
0.034899 -0.068227 
0.026470 -0.066040 
0.029356 -0.066810 
0.027001 -0.073976 
0.032587 -0.053704 
0.031284 -0.059894 
0.029562 -0.051703 
0.018366 -0.064217 
0.016622 -0.071949 
0.020461 -0.047858 
0.019698 -0.056160 
0.021590 -0.072909 
0.020925 -0.064733 
0.023638 -0.065340 
0.026403 -0.050036 
0.025286 -0.057643 
0.023327 -0.048768 
0.021154 -0.121397 
0.023312 -0.116515 
0.025180 -0.114666 
0.019502 -0.118442 
0.021411 -0.117740 
0.017555 -0.123417 
0.029271 -0.104485 
0.025349 -0.111394 
0.027230 -0.106020 
0.012167 -0.117809 
0.013919 -0.118327 
0.010734 -0.122664 
0.020850 -0.107698 
0.017315 -0.113315 
0.018727 -0.107590 
0.014036 -0.123614 
0.015737 -0.118653 
0.017604 -0.118718 
0.034625 -0.081369 
0.031445 -0.088248 
0.032181 -0.081716 
0.028908 -0.100381 
0.030332 -0.094463 
0.032563 -0.093410 
0.025633 -0.095250 
0.028009 -0.095038 
0.024444 -0.101568 
0.021329 -0.113150 
0.022993 -0.107530 
0.025128 -0.107001 
0.002281 -0.113524 
0.000939 -0.117582 
0.005834 -0.104069 
0.003927 -0.109034 
0.002920 -0.118233 
0.003459 -0.113894 
0.004699 -0.114406 
0.014597 -0.079295 
0.012407 -0.086207 
0.011577 -0.099635 
0.012106 -0.093134 
0.014158 -0.093633 
0.010155 -0.092653 
0.007936 -0.098610 
0.007757 -0.121139 
0.008909 -0.116452 
0.010494 -0.117165 
0.006014 -0.115028 