# vtk DataFile Version 2.0
Unstructured Grid Example
ASCII
DATASET UNSTRUCTURED_GRID

POINTS 16641 float
0.006558 -0.167208 0.000000 
0.993442 -0.167208 0.000000 
1.000000 1.000000 0.000000 
0.000000 1.000000 0.000000 
0.500000 -0.099990 0.000000 
0.977041 0.380394 0.000000 
0.500000 1.000000 0.000000 
0.022959 0.380394 0.000000 
0.500000 0.382372 0.000000 
0.259019 -0.150048 0.000000 
0.500000 0.119955 0.000000 
0.248541 0.105021 0.000000 
0.740981 -0.150048 0.000000 
0.751459 0.105021 0.000000 
0.993319 0.098003 0.000000 
0.740788 0.377860 0.000000 
0.964739 0.675051 0.000000 
0.735518 0.678318 0.000000 
0.750000 1.000000 0.000000 
0.500000 0.680043 0.000000 
0.250000 1.000000 0.000000 
0.264482 0.678318 0.000000 
0.035261 0.675051 0.000000 
0.259212 0.377860 0.000000 
0.006681 0.098003 0.000000 
0.132207 -0.163270 0.000000 
0.247548 -0.023298 0.000000 
0.126447 -0.035172 0.000000 
0.500000 0.004776 0.000000 
0.371508 -0.004073 0.000000 
0.378405 -0.114776 0.000000 
0.375844 0.243636 0.000000 
0.372729 0.115211 0.000000 
0.500000 0.246151 0.000000 
0.621595 -0.114776 0.000000 
0.628492 -0.004073 0.000000 
0.873553 -0.035172 0.000000 
0.752452 -0.023298 0.000000 
0.867793 -0.163270 0.000000 
0.627271 0.115211 0.000000 
0.624156 0.243636 0.000000 
0.995554 -0.038095 0.000000 
0.872842 0.097666 0.000000 
0.859232 0.376134 0.000000 
0.866932 0.234516 0.000000 
0.986192 0.237843 0.000000 
0.746531 0.238166 0.000000 
0.620972 0.380973 0.000000 
0.968850 0.525908 0.000000 
0.852743 0.523200 0.000000 
0.856943 0.836327 0.000000 
0.850544 0.676403 0.000000 
0.969468 0.829110 0.000000 
0.736400 0.524640 0.000000 
0.618734 0.526649 0.000000 
0.875000 1.000000 0.000000 
0.740156 0.837680 0.000000 
0.500000 0.838154 0.000000 
0.620635 0.838043 0.000000 
0.625000 1.000000 0.000000 
0.618404 0.679584 0.000000 
0.500000 0.527505 0.000000 
0.375000 1.000000 0.000000 
0.379365 0.838043 0.000000 
0.143057 0.836327 0.000000 
0.259844 0.837680 0.000000 
0.125000 1.000000 0.000000 
0.381596 0.679584 0.000000 
0.381266 0.526649 0.000000 
0.030532 0.829110 0.000000 
0.149456 0.676403 0.000000 
0.140768 0.376134 0.000000 
0.147257 0.523200 0.000000 
0.031150 0.525908 0.000000 
0.263600 0.524640 0.000000 
0.379028 0.380973 0.000000 
0.013808 0.237843 0.000000 
0.133068 0.234516 0.000000 
0.127158 0.097666 0.000000 
0.004446 -0.038095 0.000000 
0.253469 0.238166 0.000000 
0.069130 -0.165748 0.000000 
0.128772 -0.100030 0.000000 
0.067060 -0.102426 0.000000 
0.250637 -0.086744 0.000000 
0.190085 -0.095282 0.000000 
0.195659 -0.158577 0.000000 
0.186478 0.034578 0.000000 
0.187063 -0.030672 0.000000 
0.247258 0.040437 0.000000 
0.500000 -0.048738 0.000000 
0.436369 -0.051692 0.000000 
0.438637 -0.103756 0.000000 
0.435550 0.059235 0.000000 
0.435468 0.002476 0.000000 
0.500000 0.060956 0.000000 
0.319817 -0.132457 0.000000 
0.373233 -0.060293 0.000000 
0.311128 -0.073475 0.000000 
0.438641 0.312592 0.000000 
0.437785 0.245486 0.000000 
0.500000 0.313083 0.000000 
0.310166 0.110274 0.000000 
0.374203 0.178289 0.000000 
0.312116 0.174700 0.000000 
0.500000 0.181728 0.000000 
0.436920 0.180818 0.000000 
0.436127 0.118700 0.000000 
0.308768 -0.013570 0.000000 
0.371671 0.054420 0.000000 
0.308858 0.047587 0.000000 
0.561363 -0.103756 0.000000 
0.563631 -0.051692 0.000000 
0.688872 -0.073475 0.000000 
0.626767 -0.060293 0.000000 
0.680183 -0.132457 0.000000 
0.564532 0.002476 0.000000 
0.564450 0.059235 0.000000 
0.932940 -0.102426 0.000000 
0.871228 -0.100030 0.000000 
0.930870 -0.165748 0.000000 
0.752742 0.040437 0.000000 
0.812937 -0.030672 0.000000 
0.813522 0.034578 0.000000 
0.804341 -0.158577 0.000000 
0.809915 -0.095282 0.000000 
0.749363 -0.086744 0.000000 
0.562215 0.245486 0.000000 
0.561359 0.312592 0.000000 
0.563873 0.118700 0.000000 
0.563080 0.180818 0.000000 
0.687884 0.174700 0.000000 
0.625797 0.178289 0.000000 
0.689834 0.110274 0.000000 
0.691232 -0.013570 0.000000 
0.691142 0.047587 0.000000 
0.628329 0.054420 0.000000 
0.994718 -0.103710 0.000000 
0.934499 -0.037373 0.000000 
0.933173 0.096720 0.000000 
0.934633 0.029094 0.000000 
0.995165 0.029321 0.000000 
0.874053 0.030778 0.000000 
0.812348 0.100565 0.000000 
0.918151 0.377165 0.000000 
0.922458 0.305563 0.000000 
0.981676 0.308771 0.000000 
0.803533 0.305422 0.000000 
0.863109 0.304684 0.000000 
0.800150 0.376572 0.000000 
0.990207 0.167572 0.000000 
0.926665 0.234976 0.000000 
0.930379 0.165364 0.000000 
0.622506 0.311216 0.000000 
0.560572 0.382017 0.000000 
0.749250 0.170845 0.000000 
0.685622 0.241001 0.000000 
0.681065 0.379474 0.000000 
0.683284 0.309251 0.000000 
0.743620 0.307141 0.000000 
0.870318 0.165543 0.000000 
0.806928 0.235788 0.000000 
0.809995 0.167558 0.000000 
0.972643 0.452738 0.000000 
0.914114 0.449849 0.000000 
0.908350 0.598829 0.000000 
0.910713 0.523699 0.000000 
0.966055 0.599978 0.000000 
0.855658 0.448946 0.000000 
0.797100 0.449309 0.000000 
0.923038 0.916705 0.000000 
0.913549 0.833995 0.000000 
0.978339 0.909480 0.000000 
0.793292 0.677431 0.000000 
0.852330 0.755535 0.000000 
0.795091 0.756701 0.000000 
0.965549 0.751306 0.000000 
0.908913 0.753664 0.000000 
0.907523 0.675402 0.000000 
0.619673 0.452822 0.000000 
0.559913 0.453631 0.000000 
0.738294 0.450360 0.000000 
0.679155 0.451647 0.000000 
0.677029 0.601563 0.000000 
0.677745 0.525711 0.000000 
0.735380 0.600660 0.000000 
0.850880 0.598986 0.000000 
0.793302 0.599728 0.000000 
0.794701 0.523685 0.000000 
0.937500 1.000000 0.000000 
0.864844 0.918231 0.000000 
0.744633 0.918660 0.000000 
0.805096 0.918575 0.000000 
0.812500 1.000000 0.000000 
0.799039 0.837265 0.000000 
0.737068 0.757429 0.000000 
0.500000 0.918700 0.000000 
0.561356 0.918697 0.000000 
0.562500 1.000000 0.000000 
0.559677 0.758457 0.000000 
0.560384 0.838125 0.000000 
0.500000 0.758527 0.000000 
0.687500 1.000000 0.000000 
0.622637 0.918691 0.000000 
0.683763 0.918682 0.000000 
0.559443 0.527282 0.000000 
0.500000 0.453918 0.000000 
0.677194 0.679041 0.000000 
0.618275 0.602302 0.000000 
0.500000 0.602954 0.000000 
0.559218 0.602785 0.000000 
0.559286 0.679925 0.000000 
0.680615 0.837904 0.000000 
0.619191 0.758254 0.000000 
0.678378 0.757919 0.000000 
0.437500 1.000000 0.000000 
0.438644 0.918697 0.000000 
0.316237 0.918682 0.000000 
0.377363 0.918691 0.000000 
0.312500 1.000000 0.000000 
0.439616 0.838125 0.000000 
0.440323 0.758457 0.000000 
0.076962 0.916705 0.000000 
0.135156 0.918231 0.000000 
0.062500 1.000000 0.000000 
0.262932 0.757429 0.000000 
0.200961 0.837265 0.000000 
0.204909 0.756701 0.000000 
0.187500 1.000000 0.000000 
0.194904 0.918575 0.000000 
0.255367 0.918660 0.000000 
0.440557 0.527282 0.000000 
0.440087 0.453631 0.000000 
0.440714 0.679925 0.000000 
0.440782 0.602785 0.000000 
0.322971 0.601563 0.000000 
0.381725 0.602302 0.000000 
0.322806 0.679041 0.000000 
0.319385 0.837904 0.000000 
0.321622 0.757919 0.000000 
0.380809 0.758254 0.000000 
0.021661 0.909480 0.000000 
0.086451 0.833995 0.000000 
0.092477 0.675402 0.000000 
0.091087 0.753664 0.000000 
0.034451 0.751306 0.000000 
0.147670 0.755535 0.000000 
0.206708 0.677431 0.000000 
0.081849 0.377165 0.000000 
0.085886 0.449849 0.000000 
0.027357 0.452738 0.000000 
0.202900 0.449309 0.000000 
0.144342 0.448946 0.000000 
0.199850 0.376572 0.000000 
0.033945 0.599978 0.000000 
0.089287 0.523699 0.000000 
0.091650 0.598829 0.000000 
0.380327 0.452822 0.000000 
0.439428 0.382017 0.000000 
0.264620 0.600660 0.000000 
0.322255 0.525711 0.000000 
0.318935 0.379474 0.000000 
0.320845 0.451647 0.000000 
0.261706 0.450360 0.000000 
0.149120 0.598986 0.000000 
0.205299 0.523685 0.000000 
0.206698 0.599728 0.000000 
0.018324 0.308771 0.000000 
0.077542 0.305563 0.000000 
0.069621 0.165364 0.000000 
0.073335 0.234976 0.000000 
0.009793 0.167572 0.000000 
0.136891 0.304684 0.000000 
0.196467 0.305422 0.000000 
0.065501 -0.037373 0.000000 
0.005282 -0.103710 0.000000 
0.187652 0.100565 0.000000 
0.125947 0.030778 0.000000 
0.004835 0.029321 0.000000 
0.065367 0.029094 0.000000 
0.066827 0.096720 0.000000 
0.377494 0.311216 0.000000 
0.256380 0.307141 0.000000 
0.316716 0.309251 0.000000 
0.314378 0.241001 0.000000 
0.250750 0.170845 0.000000 
0.129682 0.165543 0.000000 
0.190005 0.167558 0.000000 
0.193072 0.235788 0.000000 
0.037795 -0.166530 0.000000 
0.068124 -0.134320 0.000000 
0.037002 -0.135065 0.000000 
0.130450 -0.131897 0.000000 
0.099281 -0.133316 0.000000 
0.100604 -0.164711 0.000000 
0.096806 -0.069158 0.000000 
0.097943 -0.101446 0.000000 
0.127397 -0.067761 0.000000 
0.253979 -0.118510 0.000000 
0.223472 -0.123501 0.000000 
0.227398 -0.154948 0.000000 
0.218455 -0.059517 0.000000 
0.220466 -0.091596 0.000000 
0.248624 -0.055017 0.000000 
0.163908 -0.161280 0.000000 
0.192627 -0.127186 0.000000 
0.161587 -0.129911 0.000000 
0.217248 0.069841 0.000000 
0.216804 0.037276 0.000000 
0.247751 0.072595 0.000000 
0.156796 -0.033255 0.000000 
0.186509 0.001875 0.000000 
0.156254 -0.000522 0.000000 
0.247151 0.008494 0.000000 
0.216780 0.004894 0.000000 
0.217284 -0.027356 0.000000 
0.159503 -0.098029 0.000000 
0.188230 -0.063071 0.000000 
0.157879 -0.065776 0.000000 
0.500000 -0.074620 0.000000 
0.468625 -0.075457 0.000000 
0.469244 -0.100936 0.000000 
0.467848 -0.022954 0.000000 
0.468152 -0.049483 0.000000 
0.500000 -0.022293 0.000000 
0.408323 -0.108395 0.000000 
0.437341 -0.077942 0.000000 
0.406222 -0.082032 0.000000 
0.467865 0.089729 0.000000 
0.467739 0.060519 0.000000 
0.500000 0.090103 0.000000 
0.403377 -0.000319 0.000000 
0.435421 0.030518 0.000000 
0.403315 0.028104 0.000000 
0.500000 0.032517 0.000000 
0.467674 0.032010 0.000000 
0.467700 0.004195 0.000000 
0.290213 -0.143087 0.000000 
0.314147 -0.103042 0.000000 
0.284055 -0.111668 0.000000 
0.375316 -0.087658 0.000000 
0.344625 -0.094724 0.000000 
0.348928 -0.122814 0.000000 
0.340577 -0.037758 0.000000 
0.342000 -0.066457 0.000000 
0.372042 -0.032460 0.000000 
0.435760 -0.024912 0.000000 
0.403800 -0.028114 0.000000 
0.404712 -0.055322 0.000000 
0.469510 0.347340 0.000000 
[...]
POINT_DATA 16641

SCALARS u_h float 2
LOOKUP_TABLE default
0.006558 -0.167208 
-0.006558 -0.167208 
0.000000 0.000000 
0.000000 0.000000 
0.000000 -0.099990 
-0.022959 -0.119606 
0.000000 0.000000 
0.022959 -0.119606 
0.000000 -0.117628 
0.009019 -0.150048 
0.000000 -0.130045 
-0.001459 -0.144979 
-0.009019 -0.150048 
0.001459 -0.144979 
-0.006681 -0.151997 
-0.009212 -0.122140 
-0.035261 -0.074949 
-0.014482 -0.071682 
0.000000 0.000000 
0.000000 -0.069957 
0.000000 0.000000 
0.014482 -0.071682 
0.035261 -0.074949 
0.009212 -0.122140 
0.006681 -0.151997 
0.007207 -0.163270 
-0.002452 -0.148298 
0.001447 -0.160172 
0.000000 -0.120224 
-0.003492 -0.129073 
0.003405 -0.114776 
0.000844 -0.131364 
-0.002271 -0.134789 
0.000000 -0.128849 
-0.003405 -0.114776 
0.003492 -0.129073 
-0.001447 -0.160172 
0.002452 -0.148298 
-0.007207 -0.163270 
0.002271 -0.134789 
-0.000844 -0.131364 
-0.004446 -0.163095 
-0.002158 -0.152334 
-0.015768 -0.123866 
-0.008068 -0.140484 
-0.013808 -0.137157 
-0.003469 -0.136834 
-0.004028 -0.119027 
-0.031150 -0.099092 
-0.022257 -0.101800 
-0.018057 -0.038673 
-0.024456 -0.073597 
-0.030532 -0.045890 
-0.013600 -0.100360 
-0.006266 -0.098351 
0.000000 0.000000 
-0.009844 -0.037320 
-0.000000 -0.036846 
-0.004365 -0.036957 
0.000000 0.000000 
-0.006596 -0.070416 
0.000000 -0.097495 
0.000000 0.000000 
0.004365 -0.036957 
0.018057 -0.038673 
0.009844 -0.037320 
0.000000 0.000000 
0.006596 -0.070416 
0.006266 -0.098351 
0.030532 -0.045890 
0.024456 -0.073597 
0.015768 -0.123866 
0.022257 -0.101800 
0.031150 -0.099092 
0.013600 -0.100360 
0.004028 -0.119027 
0.013808 -0.137157 
0.008068 -0.140484 
0.002158 -0.152334 
0.004446 -0.163095 
0.003469 -0.136834 
0.006630 -0.165748 
0.003772 -0.162530 
0.004560 -0.164926 
0.000637 -0.149244 
0.002585 -0.157782 
0.008159 -0.158577 
-0.001022 -0.152922 
-0.000437 -0.155672 
-0.002742 -0.147063 
0.000000 -0.111238 
-0.001131 -0.114192 
0.001137 -0.103756 
-0.001950 -0.128265 
-0.002032 -0.122524 
0.000000 -0.126544 
0.007317 -0.132457 
-0.001767 -0.122793 
-0.001372 -0.135975 
0.001141 -0.124908 
0.000285 -0.129514 
0.000000 -0.124417 
-0.002334 -0.139726 
-0.000797 -0.134211 
-0.000384 -0.137800 
0.000000 -0.130772 
-0.000580 -0.131682 
-0.001373 -0.131300 
-0.003732 -0.138570 
-0.003329 -0.133080 
-0.003642 -0.139913 
-0.001137 -0.103756 
0.001131 -0.114192 
0.001372 -0.135975 
0.001767 -0.122793 
-0.007317 -0.132457 
0.002032 -0.122524 
0.001950 -0.128265 
-0.004560 -0.164926 
-0.003772 -0.162530 
-0.006630 -0.165748 
0.002742 -0.147063 
0.000437 -0.155672 
0.001022 -0.152922 
-0.008159 -0.158577 
-0.002585 -0.157782 
-0.000637 -0.149244 
-0.000285 -0.129514 
-0.001141 -0.124908 
0.001373 -0.131300 
0.000580 -0.131682 
0.000384 -0.137800 
0.000797 -0.134211 
0.002334 -0.139726 
0.003732 -0.138570 
0.003642 -0.139913 
0.003329 -0.133080 
-0.005282 -0.166210 
-0.003001 -0.162373 
-0.004327 -0.153280 
-0.002867 -0.158406 
-0.004835 -0.158179 
-0.000947 -0.156722 
-0.000152 -0.149435 
-0.019349 -0.122835 
-0.015042 -0.131937 
-0.018324 -0.128729 
-0.008967 -0.132078 
-0.011891 -0.132816 
-0.012350 -0.123428 
-0.009793 -0.144928 
-0.010835 -0.140024 
-0.007121 -0.147136 
-0.002494 -0.126284 
-0.001928 -0.117983 
-0.000750 -0.141655 
-0.001878 -0.133999 
-0.006435 -0.120526 
-0.004216 -0.128249 
-0.006380 -0.130359 
-0.004682 -0.146957 
-0.005572 -0.139212 
-0.002505 -0.144942 
-0.027357 -0.109762 
-0.023386 -0.112651 
-0.029150 -0.088671 
-0.026787 -0.101301 
-0.033945 -0.087522 
-0.019342 -0.113554 
-0.015400 -0.113191 
-0.014462 -0.020795 
-0.023951 -0.041005 
-0.021661 -0.028020 
-0.019208 -0.072569 
-0.022670 -0.056965 
-0.017409 -0.055799 
-0.034451 -0.061194 
-0.028587 -0.058836 
-0.029977 -0.074598 
-0.005327 -0.109678 
-0.002587 -0.108869 
-0.011706 -0.112140 
-0.008345 -0.110853 
-0.010471 -0.085937 
-0.009755 -0.099289 
-0.014620 -0.086840 
-0.024120 -0.088514 
-0.019198 -0.087772 
-0.017799 -0.101315 
0.000000 0.000000 
-0.010156 -0.019269 
-0.005367 -0.018840 
-0.007404 -0.018925 
0.000000 0.000000 
-0.013461 -0.037735 
-0.012932 -0.055071 
0.000000 -0.018800 
-0.001144 -0.018803 
0.000000 0.000000 
-0.002823 -0.054043 
-0.002116 -0.036875 
-0.000000 -0.053973 
0.000000 0.000000 
-0.002363 -0.018809 
-0.003737 -0.018818 
-0.003057 -0.097718 
0.000000 -0.108582 
-0.010306 -0.070959 
-0.006725 -0.085198 
0.000000 -0.084546 
-0.003282 -0.084715 
-0.003214 -0.070075 
-0.006885 -0.037096 
-0.005809 -0.054246 
-0.009122 -0.054581 
0.000000 0.000000 
0.001144 -0.018803 
0.003737 -0.018818 
0.002363 -0.018809 
0.000000 0.000000 
0.002116 -0.036875 
0.002823 -0.054043 
0.014462 -0.020795 
0.010156 -0.019269 
0.000000 0.000000 
0.012932 -0.055071 
0.013461 -0.037735 
0.017409 -0.055799 
0.000000 0.000000 
0.007404 -0.018925 
0.005367 -0.018840 
0.003057 -0.097718 
0.002587 -0.108869 
0.003214 -0.070075 
0.003282 -0.084715 
0.010471 -0.085937 
0.006725 -0.085198 
0.010306 -0.070959 
0.006885 -0.037096 
0.009122 -0.054581 
0.005809 -0.054246 
0.021661 -0.028020 
0.023951 -0.041005 
0.029977 -0.074598 
0.028587 -0.058836 
0.034451 -0.061194 
0.022670 -0.056965 
0.019208 -0.072569 
0.019349 -0.122835 
0.023386 -0.112651 
0.027357 -0.109762 
0.015400 -0.113191 
0.019342 -0.113554 
0.012350 -0.123428 
0.033945 -0.087522 
0.026787 -0.101301 
0.029150 -0.088671 
0.005327 -0.109678 
0.001928 -0.117983 
0.014620 -0.086840 
0.009755 -0.099289 
0.006435 -0.120526 
0.008345 -0.110853 
0.011706 -0.112140 
0.024120 -0.088514 
0.017799 -0.101315 
0.019198 -0.087772 
0.018324 -0.128729 
0.015042 -0.131937 
0.007121 -0.147136 
0.010835 -0.140024 
0.009793 -0.144928 
0.011891 -0.132816 
0.008967 -0.132078 
0.003001 -0.162373 
0.005282 -0.166210 
0.000152 -0.149435 
0.000947 -0.156722 
0.004835 -0.158179 
0.002867 -0.158406 
0.004327 -0.153280 
0.002494 -0.126284 
0.006380 -0.130359 
0.004216 -0.128249 
0.001878 -0.133999 
0.000750 -0.141655 
0.004682 -0.146957 
0.002505 -0.144942 
0.005572 -0.139212 
0.006545 -0.166530 
0.005624 -0.165570 
0.005752 -0.166315 
0.005450 -0.163147 
0.005531 -0.164566 
0.006854 -0.164711 
0.003056 -0.162908 
0.004193 -0.163946 
0.002397 -0.161511 
0.003979 -0.149760 
0.004722 -0.154751 
0.008648 -0.154948 
-0.000295 -0.153267 
0.001716 -0.154096 
-0.001376 -0.148767 
0.007658 -0.161280 
0.005127 -0.158436 
0.005337 -0.161161 
-0.001502 -0.148909 
-0.001946 -0.150224 
-0.002249 -0.146155 
0.000546 -0.158255 
-0.000991 -0.154375 
0.000004 -0.156772 
-0.002849 -0.147756 
-0.001970 -0.151356 
-0.001466 -0.152356 
0.003253 -0.160529 
0.000730 -0.156821 
0.001629 -0.159526 
0.000000 -0.105870 
-0.000125 -0.106707 
0.000494 -0.100936 
-0.000902 -0.116704 
-0.000598 -0.111983 
0.000000 -0.116043 
0.002073 -0.108395 
-0.000159 -0.109192 
-0.000028 -0.113282 
-0.000885 -0.129021 
-0.001011 -0.126981 
0.000000 -0.128647 
-0.002873 -0.125319 
-0.002079 -0.125732 
-0.002935 -0.128146 
0.000000 -0.123733 
-0.001076 -0.124240 
-0.001050 -0.120805 
0.008963 -0.143087 
0.001647 -0.134292 
0.002805 -0.142918 
0.000316 -0.118908 
0.000875 -0.125974 
0.005178 -0.122814 
-0.003173 -0.131508 
-0.001750 -0.128957 
-0.002958 -0.126210 
-0.001740 -0.118662 
-0.002450 -0.121864 
-0.001538 -0.117822 
0.000760 -0.121410 
0.000556 -0.124541 
0.000000 -0.121305 
0.000515 -0.130310 
0.000718 -0.127508 
0.001154 -0.128193 
0.000000 -0.126938 
0.000343 -0.127082 
0.000124 -0.129018 
-0.002008 -0.142388 
-0.001415 -0.138991 
-0.001027 -0.141267 
-0.001567 -0.134785 
-0.001594 -0.136788 
-0.002421 -0.137143 
0.000291 -0.134530 
-0.000679 -0.135920 
0.000014 -0.133070 
0.000000 -0.130748 
-0.000524 -0.131019 
-0.000717 -0.130363 
-0.000096 -0.130330 
-0.000314 -0.131002 
0.000000 -0.130133 
-0.001908 -0.132803 
-0.000993 -0.131816 
-0.001355 -0.133096 
-0.000125 -0.131840 
-0.000754 -0.132771 
-0.000151 -0.130909 
-0.000512 -0.143079 
-0.003804 -0.133592 
-0.002987 -0.137410 
-0.002349 -0.143366 
-0.003256 -0.143609 
-0.001702 -0.130120 
-0.002874 -0.134221 
-0.002385 -0.131885 
-0.002746 -0.130335 
-0.003568 -0.131364 
-0.002797 -0.143142 
-0.003523 -0.143700 
-0.003330 -0.143564 
-0.003096 -0.140026 
-0.003121 -0.136990 
-0.003905 -0.135205 
-0.003641 -0.136341 
-0.003893 -0.139417 
-0.000494 -0.100936 
0.000125 -0.106707 
0.000028 -0.113282 
0.000159 -0.109192 
-0.002073 -0.108395 
0.000598 -0.111983 
0.000902 -0.116704 
-0.002805 -0.142918 
-0.001647 -0.134292 
-0.008963 -0.143087 
0.002958 -0.126210 
0.001750 -0.128957 
0.003173 -0.131508 
-0.005178 -0.122814 
-0.000875 -0.125974 
-0.000316 -0.118908 
0.001011 -0.126981 
0.000885 -0.129021 
0.001050 -0.120805 
0.001076 -0.124240 
0.002935 -0.128146 
0.002079 -0.125732 
0.002873 -0.125319 
0.001538 -0.117822 
0.002450 -0.121864 
0.001740 -0.118662 
-0.005752 -0.166315 
-0.005624 -0.165570 
-0.006545 -0.166530 
-0.002397 -0.161511 
-0.004193 -0.163946 
-0.003056 -0.162908 
-0.006854 -0.164711 
-0.005531 -0.164566 
-0.005450 -0.163147 
0.002249 -0.146155 
0.001946 -0.150224 
0.001502 -0.148909 
0.001466 -0.152356 
0.001970 -0.151356 
0.002849 -0.147756 
-0.000004 -0.156772 
0.000991 -0.154375 
-0.000546 -0.158255 
-0.008648 -0.154948 
-0.004722 -0.154751 
-0.003979 -0.149760 
-0.005337 -0.161161 
-0.005127 -0.158436 
-0.007658 -0.161280 
0.001376 -0.148767 
-0.001716 -0.154096 
0.000295 -0.153267 
-0.001629 -0.159526 
-0.000730 -0.156821 
-0.003253 -0.160529 
-0.000556 -0.124541 
-0.000760 -0.121410 
-0.000124 -0.129018 
-0.000343 -0.127082 
-0.001154 -0.128193 
-0.000718 -0.127508 
-0.000515 -0.130310 
0.000717 -0.130363 
0.000524 -0.131019 
0.001355 -0.133096 
0.000993 -0.131816 
0.001908 -0.132803 
0.000314 -0.131002 
0.000096 -0.130330 
0.001027 -0.141267 
0.001415 -0.138991 
0.002008 -0.142388 
-0.000014 -0.133070 
0.000679 -0.135920 
-0.000291 -0.134530 
0.002421 -0.137143 
0.001594 -0.136788 
0.001567 -0.134785 
0.000151 -0.130909 
0.000754 -0.132771 
0.000125 -0.131840 
0.000512 -0.143079 
0.003256 -0.143609 
0.002349 -0.143366 
0.002987 -0.137410 
0.003804 -0.133592 
0.002797 -0.143142 
0.003121 -0.136990 
0.003096 -0.140026 
0.003330 -0.143564 
0.003523 -0.143700 
0.001702 -0.130120 
0.003568 -0.131364 
0.002746 -0.130335 
0.002385 -0.131885 
0.002874 -0.134221 
0.003893 -0.139417 
0.003641 -0.136341 
0.003905 -0.135205 
-0.005920 -0.166962 
-0.004912 -0.165624 
-0.003710 -0.162861 
-0.004186 -0.164461 
-0.004749 -0.164911 
-0.003639 -0.163847 
-0.002259 -0.161512 
-0.005468 -0.152939 
-0.004461 -0.155865 
-0.005581 -0.155218 
-0.002381 -0.155569 
-0.003408 -0.155977 
-0.003228 -0.153067 
-0.004459 -0.160827 
-0.003823 -0.158519 
-0.003574 -0.160865 
0.000615 -0.151287 
0.000724 -0.147364 
-0.000964 -0.158566 
0.000041 -0.155094 
-0.001125 -0.151110 
-0.000353 -0.153213 
-0.001361 -0.154646 
-0.002731 -0.160547 
-0.001917 -0.157817 
-0.001871 -0.159804 
-0.021159 -0.121547 
-0.018924 -0.126220 
-0.020650 -0.124260 
-0.015508 -0.128248 
-0.017206 -0.127516 
-0.017546 -0.123576 
-0.016028 -0.133026 
-0.016672 -0.130672 
-0.014447 -0.134910 
-0.009207 -0.127288 
-0.010680 -0.127948 
-0.010740 -0.122856 
-0.009949 -0.136805 
-0.010394 -0.132608 
-0.008562 -0.136486 
-0.014031 -0.123790 
-0.012231 -0.128379 
-0.013845 -0.128506 
-0.008099 -0.148558 
-0.008424 -0.146370 
-0.006805 -0.149768 
-0.012297 -0.138938 
-0.010272 -0.142758 
-0.011713 -0.141125 
-0.007564 -0.144042 
-0.008890 -0.143700 
-0.009423 -0.140510 
-0.013444 -0.132621 
-0.011400 -0.136706 
-0.012902 -0.136104 
-0.001547 -0.121728 
-0.000952 -0.117707 
-0.001676 -0.129100 
-0.001780 -0.125500 
-0.002947 -0.118431 
-0.002381 -0.122241 
-0.003283 -0.122923 
0.000441 -0.143491 
-0.000095 -0.139748 
-0.002604 -0.135432 
-0.001318 -0.137809 
-0.002067 -0.139443 
-0.000724 -0.136140 
-0.001293 -0.132617 
-0.007776 -0.121344 
-0.006536 -0.125565 
-0.007823 -0.126471 
-0.004270 -0.123735 
-0.005352 -0.124634 
-0.005187 -0.119739 
-0.004918 -0.133810 
-0.005242 -0.129318 
-0.003922 -0.132605 
-0.002304 -0.130179 
-0.003050 -0.131370 
-0.003302 -0.127218 
-0.005582 -0.150330 
-0.006295 -0.143864 
-0.005875 -0.147308 
-0.004411 -0.150315 
-0.003285 -0.149775 
-0.007625 -0.131303 
-0.004463 -0.138122 
-0.006032 -0.134910 
-0.007251 -0.135828 
-0.006779 -0.140026 
-0.000316 -0.145545 
-0.002211 -0.148762 
-0.001212 -0.147330 
-0.001561 -0.143418 
-0.002959 -0.140951 
-0.005093 -0.143240 
-0.003975 -0.142244 
-0.003553 -0.146146 
-0.025212 -0.114785 
-0.023330 -0.116645 
-0.027298 -0.106115 
-0.025391 -0.111505 
-0.029353 -0.104534 
-0.021423 -0.117883 
-0.019512 -0.118598 
-0.032368 -0.081790 
-0.031600 -0.088320 
-0.034823 -0.081370 
-0.024528 -0.101713 
-0.028127 -0.095154 
-0.025744 -0.095393 
-0.032700 -0.093425 
-0.030457 -0.094538 
-0.029004 -0.100464 
-0.013936 -0.118512 
-0.012187 -0.118001 
-0.017615 -0.118885 
-0.015750 -0.118830 
-0.018782 -0.107765 
-0.017348 -0.113491 
-0.020905 -0.107862 
-0.025190 -0.107128 
-0.023050 -0.107678 
-0.021362 -0.113302 
-0.009789 -0.011577 
-0.017757 -0.023158 
-0.013999 -0.017023 
-0.020837 -0.039580 
-0.019933 -0.031185 
-0.016973 -0.029801 
-0.026901 -0.037400 
-0.023368 -0.033622 
-0.027280 -0.043117 
-0.016774 -0.072105 
-0.018560 -0.064369 
-0.016145 -0.063924 
-0.023871 -0.065498 
-0.021140 -0.064890 
-0.021776 -0.073070 
-0.018112 -0.047361 
-0.019940 -0.056310 
-0.020761 -0.048010 
-0.035173 -0.068235 
-0.032466 -0.067682 
-0.032686 -0.074923 
-0.029930 -0.051865 
-0.031594 -0.060019 
-0.032964 -0.053774 
-0.027209 -0.074125 
-0.029612 -0.066949 
-0.026717 -0.066194 
-0.023660 -0.048931 
-0.025574 -0.057802 
-0.026759 -0.050207 
-0.002278 -0.113690 
-0.001129 -0.113448 
-0.004715 -0.114607 
-0.003467 -0.114084 
-0.004321 -0.103843 
-0.003929 -0.109215 
-0.005849 -0.104253 
-0.010517 -0.117364 
-0.008933 -0.116656 
-0.010890 -0.105888 
-0.009981 -0.111502 
-0.012744 -0.106471 
-0.007440 -0.115931 
-0.006036 -0.115235 
-0.012551 -0.079030 
-0.012491 -0.086376 
-0.014713 -0.079457 
-0.007969 -0.098791 
-0.010212 -0.092828 
-0.008344 -0.092381 
-0.014237 -0.093813 
-0.012175 -0.093312 
-0.011631 -0.099821 
-0.006795 -0.110233 
-0.009125 -0.105302 
-0.007447 -0.104747 
-0.029792 -0.081828 
-0.024513 -0.081266 
-0.027155 -0.081619 
-0.026641 -0.088702 
-0.023347 -0.095355 
-0.016998 -0.079909 
-0.016397 -0.094304 
-0.016857 -0.087313 
-0.019403 -0.080375 
-0.021916 -0.080837 
-0.013515 -0.112720 
-0.020005 -0.101644 
-0.016702 -0.107460 
-0.014685 -0.107010 
-0.015658 -0.100871 
-0.021627 -0.088186 
-0.018647 -0.094752 
-0.020971 -0.095120 
0.000000 0.000000 
-0.007519 -0.010177 
-0.005202 -0.009544 
-0.006168 -0.009721 
0.000000 0.000000 
-0.012019 -0.019750 
-0.014508 -0.029042 
-0.002753 -0.009450 
-0.003242 -0.009445 
0.000000 0.000000 
-0.009123 -0.028236 
-0.006321 -0.018868 
-0.007755 -0.028144 
0.000000 0.000000 
-0.003796 -0.009449 
-0.004436 -0.009474 
-0.015077 -0.055396 
-0.013896 -0.063541 
-0.015613 -0.038102 
-0.015715 -0.046901 
-0.011579 -0.046314 
-0.013547 -0.046566 
-0.011553 -0.037491 
-0.008658 -0.019039 
-0.010667 -0.028380 
-0.012438 -0.028621 
-0.000000 -0.009487 
-0.000291 -0.009487 
0.000000 0.000000 
-0.000823 -0.027929 
-0.000567 -0.018801 
0.000000 -0.027925 
0.000000 0.000000 
-0.000586 -0.009485 
-0.000891 -0.009482 
-0.001519 -0.062148 
-0.001402 -0.053992 
-0.000000 -0.062123 
-0.003216 -0.036909 
-0.002507 -0.045586 
-0.003808 -0.045643 
-0.000000 -0.045537 
-0.001244 -0.045550 
-0.001050 -0.036854 
0.000000 0.000000 
-0.001917 -0.009466 
-0.002315 -0.009458 
-0.001211 -0.009478 
-0.001551 -0.009473 
0.000000 0.000000 
-0.004380 -0.028003 
-0.003025 -0.018812 
-0.003423 -0.027975 
-0.001658 -0.027939 
-0.002521 -0.027954 
-0.001739 -0.018805 
-0.001284 -0.108655 
0.000000 -0.113368 
-0.004634 -0.097988 
-0.002849 -0.103537 
0.000000 -0.103284 
-0.001415 -0.103348 
-0.001519 -0.097552 
-0.012329 -0.071299 
-0.010509 -0.078639 
-0.006740 -0.077997 
-0.008576 -0.078292 
-0.008401 -0.070664 
-0.008553 -0.085541 
-0.006563 -0.091991 
0.000000 -0.077441 
-0.001633 -0.077478 
-0.001596 -0.069987 
-0.001592 -0.091290 
-0.001631 -0.084589 
0.000000 -0.091240 
-0.004874 -0.070219 
-0.003287 -0.077585 
-0.004983 -0.077759 
-0.004855 -0.091672 
-0.004974 -0.084920 
-0.003204 -0.091435 
-0.004512 -0.018826 
-0.005581 -0.037018 
-0.005409 -0.028037 
-0.006526 -0.028082 
-0.008298 -0.037193 
-0.003060 -0.062217 
-0.006287 -0.062488 
-0.004642 -0.062331 
-0.004286 -0.054128 
-0.005165 -0.045724 
-0.011801 -0.063212 
-0.009783 -0.046116 
-0.010954 -0.054804 
-0.009847 -0.062928 
-0.008015 -0.062687 
-0.006599 -0.045828 
-0.007414 -0.054396 
-0.008131 -0.045957 
0.000000 0.000000 
0.000291 -0.009487 
0.000891 -0.009482 
0.000586 -0.009485 
0.000000 0.000000 
0.000567 -0.018801 
0.000823 -0.027929 
0.002315 -0.009458 
0.001917 -0.009466 
0.000000 0.000000 
0.003423 -0.027975 
0.003025 -0.018812 
0.004380 -0.028003 
0.000000 0.000000 
0.001551 -0.009473 
0.001211 -0.009478 
0.001402 -0.053992 
0.001519 -0.062148 
0.001050 -0.036854 
0.001244 -0.045550 
0.003808 -0.045643 
0.002507 -0.045586 
0.003216 -0.036909 
0.001739 -0.018805 
0.002521 -0.027954 
0.001658 -0.027939 
0.009789 -0.011577 
0.007519 -0.010177 
0.000000 0.000000 
0.014508 -0.029042 
0.012019 -0.019750 
0.016973 -0.029801 
0.000000 0.000000 
0.006168 -0.009721 
0.005202 -0.009544 
0.013896 -0.063541 
0.015077 -0.055396 
0.016145 -0.063924 
0.011553 -0.037491 
0.013547 -0.046566 
0.011579 -0.046314 
0.018112 -0.047361 
0.015715 -0.046901 
0.015613 -0.038102 
0.000000 0.000000 
0.003242 -0.009445 
0.002753 -0.009450 
0.004436 -0.009474 
0.003796 -0.009449 
0.000000 0.000000 
0.007755 -0.028144 
0.006321 -0.018868 
0.009123 -0.028236 
0.012438 -0.028621 
0.010667 -0.028380 
0.008658 -0.019039 
0.001284 -0.108655 
0.001129 -0.113448 
0.001519 -0.097552 
0.001415 -0.103348 
0.004321 -0.103843 
0.002849 -0.103537 
0.004634 -0.097988 
0.001596 -0.069987 
0.001633 -0.077478 
0.004983 -0.077759 
0.003287 -0.077585 
0.004874 -0.070219 
0.001631 -0.084589 
0.001592 -0.091290 
0.012551 -0.079030 
0.010509 -0.078639 
0.012329 -0.071299 
0.006563 -0.091991 
0.008553 -0.085541 
0.008344 -0.092381 
0.008401 -0.070664 
0.008576 -0.078292 
0.006740 -0.077997 
0.003204 -0.091435 
0.004974 -0.084920 
0.004855 -0.091672 
0.004512 -0.018826 
0.008298 -0.037193 
0.006526 -0.028082 
0.005409 -0.028037 
0.005581 -0.037018 
0.011801 -0.063212 
0.008015 -0.062687 
0.009847 -0.062928 
0.010954 -0.054804 
0.009783 -0.046116 
0.003060 -0.062217 
0.005165 -0.045724 
0.004286 -0.054128 
0.004642 -0.062331 
0.006287 -0.062488 
0.008131 -0.045957 
0.007414 -0.054396 
0.006599 -0.045828 
0.013999 -0.017023 
0.017757 -0.023158 
0.027280 -0.043117 
0.023368 -0.033622 
0.026901 -0.037400 
0.019933 -0.031185 
0.020837 -0.039580 
0.032686 -0.074923 
0.032466 -0.067682 
0.035173 -0.068235 
0.026717 -0.066194 
0.029612 -0.066949 
0.027209 -0.074125 
0.032964 -0.053774 
0.031594 -0.060019 
0.029930 -0.051865 
0.018560 -0.064369 
0.016774 -0.072105 
0.020761 -0.048010 
0.019940 -0.056310 
0.021776 -0.073070 
0.021140 -0.064890 
0.023871 -0.065498 
0.026759 -0.050207 
0.025574 -0.057802 
0.023660 -0.048931 
0.021159 -0.121547 
0.023330 -0.116645 
0.025212 -0.114785 
0.019512 -0.118598 
0.021423 -0.117883 
0.017546 -0.123576 
0.029353 -0.104534 
0.025391 -0.111505 
0.027298 -0.106115 
0.012187 -0.118001 
0.013936 -0.118512 
0.010740 -0.122856 
0.020905 -0.107862 
0.017348 -0.113491 
0.018782 -0.107765 
0.014031 -0.123790 
0.015750 -0.118830 
0.017615 -0.118885 
0.034823 -0.081370 
0.031600 -0.088320 
0.032368 -0.081790 
0.029004 -0.100464 
0.030457 -0.094538 
0.032700 -0.093425 
0.025744 -0.095393 
0.028127 -0.095154 
0.024528 -0.101713 
0.021362 -0.113302 
0.023050 -0.107678 
0.025190 -0.107128 
0.002278 -0.113690 
0.000952 -0.117707 
0.005849 -0.104253 
0.003929 -0.109215 
0.002947 -0.118431 
0.003467 -0.114084 
0.004715 -0.114607 
0.014713 -0.079457 
0.012491 -0.086376 
0.011631 -0.099821 
0.012175 -0.093312 
0.014237 -0.093813 
0.010212 -0.092828 
0.007969 -0.098791 
0.007776 -0.121344 
0.008933 -0.116656 
0.010517 -0.117364 
0.006036 -0.115235 
0.007440 -0.115931 
0.005187 -0.119739 