# vtk DataFile Version 2.0
Unstructured Grid Example
ASCII
DATASET UNSTRUCTURED_GRID

POINTS 4225 float
0.006652 -0.167248 0.000000 
0.993348 -0.167248 0.000000 
1.000000 1.000000 0.000000 
0.000000 1.000000 0.000000 
0.500000 -0.099961 0.000000 
0.977049 0.380450 0.000000 
0.500000 1.000000 0.000000 
0.022951 0.380450 0.000000 
0.500000 0.382373 0.000000 
0.258906 -0.149883 0.000000 
0.500000 0.120026 0.000000 
0.248554 0.105065 0.000000 
0.741094 -0.149883 0.000000 
0.751446 0.105065 0.000000 
0.993315 0.098057 0.000000 
0.740792 0.377913 0.000000 
0.964795 0.675061 0.000000 
0.735553 0.678359 0.000000 
0.750000 1.000000 0.000000 
0.500000 0.680083 0.000000 
0.250000 1.000000 0.000000 
0.264447 0.678359 0.000000 
0.035205 0.675061 0.000000 
0.259208 0.377913 0.000000 
0.006685 0.098057 0.000000 
0.132235 -0.163196 0.000000 
0.247576 -0.023254 0.000000 
0.126432 -0.035096 0.000000 
0.500000 0.004856 0.000000 
0.371515 -0.004028 0.000000 
0.378444 -0.114739 0.000000 
0.375839 0.243692 0.000000 
0.372731 0.115269 0.000000 
0.500000 0.246205 0.000000 
0.621556 -0.114739 0.000000 
0.628485 -0.004028 0.000000 
0.873568 -0.035096 0.000000 
0.752424 -0.023254 0.000000 
0.867765 -0.163196 0.000000 
0.627269 0.115269 0.000000 
0.624161 0.243692 0.000000 
0.995574 -0.038034 0.000000 
0.872833 0.097716 0.000000 
0.859232 0.376182 0.000000 
0.866926 0.234563 0.000000 
0.986183 0.237879 0.000000 
0.746530 0.238216 0.000000 
0.620978 0.381026 0.000000 
0.968877 0.525925 0.000000 
0.852764 0.523246 0.000000 
0.857029 0.836369 0.000000 
0.850594 0.676448 0.000000 
0.969582 0.829139 0.000000 
0.736417 0.524690 0.000000 
0.618741 0.526695 0.000000 
0.875000 1.000000 0.000000 
0.740194 0.837702 0.000000 
0.500000 0.838175 0.000000 
0.620650 0.838059 0.000000 
0.625000 1.000000 0.000000 
0.618419 0.679618 0.000000 
0.500000 0.527549 0.000000 
0.375000 1.000000 0.000000 
0.379350 0.838059 0.000000 
0.142971 0.836369 0.000000 
0.259806 0.837702 0.000000 
0.125000 1.000000 0.000000 
0.381581 0.679618 0.000000 
0.381259 0.526695 0.000000 
0.030418 0.829139 0.000000 
0.149406 0.676448 0.000000 
0.140768 0.376182 0.000000 
0.147236 0.523246 0.000000 
0.031123 0.525925 0.000000 
0.263583 0.524690 0.000000 
0.379022 0.381026 0.000000 
0.013817 0.237879 0.000000 
0.133074 0.234563 0.000000 
0.127167 0.097716 0.000000 
0.004426 -0.038034 0.000000 
0.253470 0.238216 0.000000 
0.069183 -0.165699 0.000000 
0.128752 -0.099943 0.000000 
0.067050 -0.102367 0.000000 
0.250642 -0.086662 0.000000 
0.190054 -0.095172 0.000000 
0.195656 -0.158474 0.000000 
0.186492 0.034630 0.000000 
0.187066 -0.030598 0.000000 
0.247280 0.040479 0.000000 
0.500000 -0.048665 0.000000 
0.436374 -0.051640 0.000000 
0.438684 -0.103721 0.000000 
0.435550 0.059298 0.000000 
0.435469 0.002535 0.000000 
0.500000 0.061032 0.000000 
0.319696 -0.132474 0.000000 
0.373235 -0.060259 0.000000 
0.311144 -0.073463 0.000000 
0.438634 0.312641 0.000000 
0.437780 0.245543 0.000000 
0.500000 0.313123 0.000000 
0.310174 0.110324 0.000000 
0.374201 0.178347 0.000000 
0.312119 0.174752 0.000000 
0.500000 0.181792 0.000000 
0.436917 0.180880 0.000000 
0.436126 0.118765 0.000000 
0.308790 -0.013535 0.000000 
0.371677 0.054474 0.000000 
0.308873 0.047632 0.000000 
0.561316 -0.103721 0.000000 
0.563626 -0.051640 0.000000 
0.688856 -0.073463 0.000000 
0.626765 -0.060259 0.000000 
0.680304 -0.132474 0.000000 
0.564531 0.002535 0.000000 
0.564450 0.059298 0.000000 
0.932950 -0.102367 0.000000 
0.871248 -0.099943 0.000000 
0.930817 -0.165699 0.000000 
0.752720 0.040479 0.000000 
0.812934 -0.030598 0.000000 
0.813508 0.034630 0.000000 
0.804344 -0.158474 0.000000 
0.809946 -0.095172 0.000000 
0.749358 -0.086662 0.000000 
0.562220 0.245543 0.000000 
0.561366 0.312641 0.000000 
0.563874 0.118765 0.000000 
0.563083 0.180880 0.000000 
0.687881 0.174752 0.000000 
0.625799 0.178347 0.000000 
0.689826 0.110324 0.000000 
0.691210 -0.013535 0.000000 
0.691127 0.047632 0.000000 
0.628323 0.054474 0.000000 
0.994723 -0.103682 0.000000 
0.934520 -0.037311 0.000000 
0.933167 0.096772 0.000000 
0.934640 0.029152 0.000000 
0.995173 0.029384 0.000000 
0.874053 0.030838 0.000000 
0.812335 0.100611 0.000000 
0.918153 0.377210 0.000000 
0.922457 0.305608 0.000000 
0.981673 0.308808 0.000000 
0.803533 0.305472 0.000000 
0.863108 0.304731 0.000000 
0.800152 0.376622 0.000000 
0.990197 0.167614 0.000000 
0.926658 0.235022 0.000000 
0.930369 0.165412 0.000000 
0.622512 0.311271 0.000000 
0.560577 0.382063 0.000000 
0.749243 0.170893 0.000000 
0.685624 0.241055 0.000000 
0.681072 0.379528 0.000000 
0.683289 0.309306 0.000000 
0.743622 0.307193 0.000000 
0.870308 0.165590 0.000000 
0.806923 0.235836 0.000000 
0.809986 0.167603 0.000000 
0.972657 0.452765 0.000000 
0.914125 0.449889 0.000000 
0.908386 0.598865 0.000000 
0.910736 0.523736 0.000000 
0.966095 0.599989 0.000000 
0.855667 0.448993 0.000000 
0.797110 0.449360 0.000000 
0.923181 0.916758 0.000000 
0.913658 0.834051 0.000000 
0.978522 0.909611 0.000000 
0.793335 0.677475 0.000000 
0.852398 0.755581 0.000000 
0.795146 0.756741 0.000000 
0.965626 0.751318 0.000000 
0.908989 0.753709 0.000000 
0.907576 0.675440 0.000000 
0.619677 0.452871 0.000000 
0.559912 0.453674 0.000000 
0.738304 0.450412 0.000000 
0.679163 0.451699 0.000000 
0.677048 0.601606 0.000000 
0.677757 0.525759 0.000000 
0.735406 0.600705 0.000000 
0.850914 0.599031 0.000000 
0.793332 0.599775 0.000000 
0.794720 0.523734 0.000000 
0.937500 1.000000 0.000000 
0.864915 0.918252 0.000000 
0.744656 0.918668 0.000000 
0.805135 0.918587 0.000000 
0.812500 1.000000 0.000000 
0.799097 0.837294 0.000000 
0.737108 0.757462 0.000000 
0.500000 0.918711 0.000000 
0.561360 0.918705 0.000000 
0.562500 1.000000 0.000000 
0.559684 0.758483 0.000000 
0.560390 0.838142 0.000000 
0.500000 0.758558 0.000000 
0.687500 1.000000 0.000000 
0.622645 0.918698 0.000000 
0.683777 0.918690 0.000000 
0.559445 0.527324 0.000000 
0.500000 0.453954 0.000000 
0.677218 0.679078 0.000000 
0.618286 0.602343 0.000000 
0.500000 0.602999 0.000000 
0.559223 0.602825 0.000000 
0.559293 0.679959 0.000000 
0.680638 0.837922 0.000000 
0.619208 0.758280 0.000000 
0.678405 0.757947 0.000000 
0.437500 1.000000 0.000000 
0.438640 0.918705 0.000000 
0.316223 0.918690 0.000000 
0.377355 0.918698 0.000000 
0.312500 1.000000 0.000000 
0.439610 0.838142 0.000000 
0.440316 0.758483 0.000000 
0.076819 0.916758 0.000000 
0.135085 0.918252 0.000000 
0.062500 1.000000 0.000000 
0.262892 0.757462 0.000000 
0.200903 0.837294 0.000000 
0.204854 0.756741 0.000000 
0.187500 1.000000 0.000000 
0.194865 0.918587 0.000000 
0.255344 0.918668 0.000000 
0.440555 0.527324 0.000000 
0.440088 0.453674 0.000000 
0.440707 0.679959 0.000000 
0.440777 0.602825 0.000000 
0.322952 0.601606 0.000000 
0.381714 0.602343 0.000000 
0.322782 0.679078 0.000000 
0.319362 0.837922 0.000000 
0.321595 0.757947 0.000000 
0.380792 0.758280 0.000000 
0.021478 0.909611 0.000000 
0.086342 0.834051 0.000000 
0.092424 0.675440 0.000000 
0.091011 0.753709 0.000000 
0.034374 0.751318 0.000000 
0.147602 0.755581 0.000000 
0.206665 0.677475 0.000000 
0.081847 0.377210 0.000000 
0.085875 0.449889 0.000000 
0.027343 0.452765 0.000000 
0.202890 0.449360 0.000000 
0.144333 0.448993 0.000000 
0.199848 0.376622 0.000000 
0.033905 0.599989 0.000000 
0.089264 0.523736 0.000000 
0.091614 0.598865 0.000000 
0.380323 0.452871 0.000000 
0.439423 0.382063 0.000000 
0.264594 0.600705 0.000000 
0.322243 0.525759 0.000000 
0.318928 0.379528 0.000000 
0.320837 0.451699 0.000000 
0.261696 0.450412 0.000000 
0.149086 0.599031 0.000000 
0.205280 0.523734 0.000000 
0.206668 0.599775 0.000000 
0.018327 0.308808 0.000000 
0.077543 0.305608 0.000000 
0.069631 0.165412 0.000000 
0.073342 0.235022 0.000000 
0.009803 0.167614 0.000000 
0.136892 0.304731 0.000000 
0.196467 0.305472 0.000000 
0.065480 -0.037311 0.000000 
0.005277 -0.103682 0.000000 
0.187665 0.100611 0.000000 
0.125947 0.030838 0.000000 
0.004827 0.029384 0.000000 
0.065360 0.029152 0.000000 
0.066833 0.096772 0.000000 
0.377488 0.311271 0.000000 
0.256378 0.307193 0.000000 
0.316711 0.309306 0.000000 
0.314376 0.241055 0.000000 
0.250757 0.170893 0.000000 
0.129692 0.165590 0.000000 
0.190014 0.167603 0.000000 
0.193077 0.235836 0.000000 
0.037865 -0.166504 0.000000 
0.068139 -0.134263 0.000000 
0.037021 -0.135030 0.000000 
0.130446 -0.131814 0.000000 
0.099288 -0.133246 0.000000 
0.100644 -0.164648 0.000000 
0.096785 -0.069085 0.000000 
0.097929 -0.101372 0.000000 
0.127376 -0.067677 0.000000 
0.253919 -0.118371 0.000000 
0.223412 -0.123364 0.000000 
0.227364 -0.154820 0.000000 
0.218461 -0.059436 0.000000 
0.220444 -0.091485 0.000000 
0.248649 -0.054963 0.000000 
0.163923 -0.161193 0.000000 
0.192588 -0.127070 0.000000 
0.161567 -0.129813 0.000000 
0.217265 0.069885 0.000000 
0.216824 0.037322 0.000000 
0.247768 0.072638 0.000000 
0.156789 -0.033176 0.000000 
0.186520 0.001936 0.000000 
0.156255 -0.000456 0.000000 
0.247176 0.008536 0.000000 
0.216800 0.004945 0.000000 
0.217301 -0.027294 0.000000 
0.159476 -0.097930 0.000000 
0.188219 -0.062979 0.000000 
0.157860 -0.065684 0.000000 
0.500000 -0.074560 0.000000 
0.468636 -0.075406 0.000000 
0.469277 -0.100905 0.000000 
0.467849 -0.022889 0.000000 
0.468155 -0.049422 0.000000 
0.500000 -0.022214 0.000000 
0.408372 -0.108358 0.000000 
0.437356 -0.077896 0.000000 
0.406235 -0.081990 0.000000 
0.467864 0.089798 0.000000 
0.467738 0.060589 0.000000 
0.500000 0.090177 0.000000 
0.403381 -0.000267 0.000000 
0.435422 0.030580 0.000000 
0.403318 0.028159 0.000000 
0.500000 0.032595 0.000000 
0.467674 0.032080 0.000000 
0.467700 0.004263 0.000000 
0.289913 -0.142929 0.000000 
0.314133 -0.103060 0.000000 
0.284048 -0.111624 0.000000 
0.375319 -0.087624 0.000000 
0.344611 -0.094710 0.000000 
0.348932 -0.122786 0.000000 
0.340588 -0.037726 0.000000 
0.342002 -0.066436 0.000000 
0.372047 -0.032421 0.000000 
0.435762 -0.024856 0.000000 
0.403803 -0.028067 0.000000 
0.404716 -0.055278 0.000000 
0.469504 0.347378 0.000000 
[...]
POINT_DATA 4225

SCALARS u_h float 2
LOOKUP_TABLE default
0.006652 -0.167248 
-0.006652 -0.167248 
0.000000 0.000000 
0.000000 0.000000 
0.000000 -0.099961 
-0.022951 -0.119550 
0.000000 0.000000 
0.022951 -0.119550 
0.000000 -0.117627 
0.008906 -0.149883 
0.000000 -0.129974 
-0.001446 -0.144935 
-0.008906 -0.149883 
0.001446 -0.144935 
-0.006685 -0.151943 
-0.009208 -0.122087 
-0.035205 -0.074939 
-0.014447 -0.071641 
0.000000 0.000000 
0.000000 -0.069917 
0.000000 0.000000 
0.014447 -0.071641 
0.035205 -0.074939 
0.009208 -0.122087 
0.006685 -0.151943 
0.007235 -0.163196 
-0.002424 -0.148254 
0.001432 -0.160096 
0.000000 -0.120144 
-0.003485 -0.129028 
0.003444 -0.114739 
0.000839 -0.131308 
-0.002269 -0.134731 
0.000000 -0.128795 
-0.003444 -0.114739 
0.003485 -0.129028 
-0.001432 -0.160096 
0.002424 -0.148254 
-0.007235 -0.163196 
0.002269 -0.134731 
-0.000839 -0.131308 
-0.004426 -0.163034 
-0.002167 -0.152284 
-0.015768 -0.123818 
-0.008074 -0.140437 
-0.013817 -0.137121 
-0.003470 -0.136784 
-0.004022 -0.118974 
-0.031123 -0.099075 
-0.022236 -0.101754 
-0.017971 -0.038631 
-0.024406 -0.073552 
-0.030418 -0.045861 
-0.013583 -0.100310 
-0.006259 -0.098305 
0.000000 0.000000 
-0.009806 -0.037298 
0.000000 -0.036825 
-0.004350 -0.036941 
0.000000 0.000000 
-0.006581 -0.070382 
0.000000 -0.097451 
0.000000 0.000000 
0.004350 -0.036941 
0.017971 -0.038631 
0.009806 -0.037298 
0.000000 0.000000 
0.006581 -0.070382 
0.006259 -0.098305 
0.030418 -0.045861 
0.024406 -0.073552 
0.015768 -0.123818 
0.022236 -0.101754 
0.031123 -0.099075 
0.013583 -0.100310 
0.004022 -0.118974 
0.013817 -0.137121 
0.008074 -0.140437 
0.002167 -0.152284 
0.004426 -0.163034 
0.003470 -0.136784 
0.006683 -0.165699 
0.003752 -0.162443 
0.004550 -0.164867 
0.000642 -0.149162 
0.002554 -0.157672 
0.008156 -0.158474 
-0.001008 -0.152870 
-0.000434 -0.155598 
-0.002720 -0.147021 
0.000000 -0.111165 
-0.001126 -0.114140 
0.001184 -0.103721 
-0.001950 -0.128202 
-0.002031 -0.122465 
0.000000 -0.126468 
0.007196 -0.132474 
-0.001765 -0.122759 
-0.001356 -0.135963 
0.001134 -0.124859 
0.000280 -0.129457 
0.000000 -0.124377 
-0.002326 -0.139676 
-0.000799 -0.134153 
-0.000381 -0.137748 
0.000000 -0.130708 
-0.000583 -0.131620 
-0.001374 -0.131235 
-0.003710 -0.138535 
-0.003323 -0.133026 
-0.003627 -0.139868 
-0.001184 -0.103721 
0.001126 -0.114140 
0.001356 -0.135963 
0.001765 -0.122759 
-0.007196 -0.132474 
0.002031 -0.122465 
0.001950 -0.128202 
-0.004550 -0.164867 
-0.003752 -0.162443 
-0.006683 -0.165699 
0.002720 -0.147021 
0.000434 -0.155598 
0.001008 -0.152870 
-0.008156 -0.158474 
-0.002554 -0.157672 
-0.000642 -0.149162 
-0.000280 -0.129457 
-0.001134 -0.124859 
0.001374 -0.131235 
0.000583 -0.131620 
0.000381 -0.137748 
0.000799 -0.134153 
0.002326 -0.139676 
0.003710 -0.138535 
0.003627 -0.139868 
0.003323 -0.133026 
-0.005277 -0.166182 
-0.002980 -0.162311 
-0.004333 -0.153228 
-0.002860 -0.158348 
-0.004827 -0.158116 
-0.000947 -0.156662 
-0.000165 -0.149389 
-0.019347 -0.122790 
-0.015043 -0.131892 
-0.018327 -0.128692 
-0.008967 -0.132028 
-0.011892 -0.132769 
-0.012348 -0.123378 
-0.009803 -0.144886 
-0.010842 -0.139978 
-0.007131 -0.147088 
-0.002488 -0.126229 
-0.001923 -0.117937 
-0.000757 -0.141607 
-0.001876 -0.133945 
-0.006428 -0.120472 
-0.004211 -0.128194 
-0.006378 -0.130307 
-0.004692 -0.146910 
-0.005577 -0.139164 
-0.002514 -0.144897 
-0.027343 -0.109735 
-0.023375 -0.112611 
-0.029114 -0.088635 
-0.026764 -0.101264 
-0.033905 -0.087511 
-0.019333 -0.113507 
-0.015390 -0.113140 
-0.014319 -0.020742 
-0.023842 -0.040949 
-0.021478 -0.027889 
-0.019165 -0.072525 
-0.022602 -0.056919 
-0.017354 -0.055759 
-0.034374 -0.061182 
-0.028511 -0.058791 
-0.029924 -0.074560 
-0.005323 -0.109629 
-0.002588 -0.108826 
-0.011696 -0.112088 
-0.008337 -0.110801 
-0.010452 -0.085894 
-0.009743 -0.099241 
-0.014594 -0.086795 
-0.024086 -0.088469 
-0.019168 -0.087725 
-0.017780 -0.101266 
0.000000 0.000000 
-0.010085 -0.019248 
-0.005344 -0.018832 
-0.007365 -0.018913 
0.000000 0.000000 
-0.013403 -0.037706 
-0.012892 -0.055038 
0.000000 -0.018789 
-0.001140 -0.018795 
0.000000 0.000000 
-0.002816 -0.054017 
-0.002110 -0.036858 
0.000000 -0.053942 
0.000000 0.000000 
-0.002355 -0.018802 
-0.003723 -0.018810 
-0.003055 -0.097676 
0.000000 -0.108546 
-0.010282 -0.070922 
-0.006714 -0.085157 
0.000000 -0.084501 
-0.003277 -0.084675 
-0.003207 -0.070041 
-0.006862 -0.037078 
-0.005792 -0.054220 
-0.009095 -0.054553 
0.000000 0.000000 
0.001140 -0.018795 
0.003723 -0.018810 
0.002355 -0.018802 
0.000000 0.000000 
0.002110 -0.036858 
0.002816 -0.054017 
0.014319 -0.020742 
0.010085 -0.019248 
0.000000 0.000000 
0.012892 -0.055038 
0.013403 -0.037706 
0.017354 -0.055759 
0.000000 0.000000 
0.007365 -0.018913 
0.005344 -0.018832 
0.003055 -0.097676 
0.002588 -0.108826 
0.003207 -0.070041 
0.003277 -0.084675 
0.010452 -0.085894 
0.006714 -0.085157 
0.010282 -0.070922 
0.006862 -0.037078 
0.009095 -0.054553 
0.005792 -0.054220 
0.021478 -0.027889 
0.023842 -0.040949 
0.029924 -0.074560 
0.028511 -0.058791 
0.034374 -0.061182 
0.022602 -0.056919 
0.019165 -0.072525 
0.019347 -0.122790 
0.023375 -0.112611 
0.027343 -0.109735 
0.015390 -0.113140 
0.019333 -0.113507 
0.012348 -0.123378 
0.033905 -0.087511 
0.026764 -0.101264 
0.029114 -0.088635 
0.005323 -0.109629 
0.001923 -0.117937 
0.014594 -0.086795 
0.009743 -0.099241 
0.006428 -0.120472 
0.008337 -0.110801 
0.011696 -0.112088 
0.024086 -0.088469 
0.017780 -0.101266 
0.019168 -0.087725 
0.018327 -0.128692 
0.015043 -0.131892 
0.007131 -0.147088 
0.010842 -0.139978 
0.009803 -0.144886 
0.011892 -0.132769 
0.008967 -0.132028 
0.002980 -0.162311 
0.005277 -0.166182 
0.000165 -0.149389 
0.000947 -0.156662 
0.004827 -0.158116 
0.002860 -0.158348 
0.004333 -0.153228 
0.002488 -0.126229 
0.006378 -0.130307 
0.004211 -0.128194 
0.001876 -0.133945 
0.000757 -0.141607 
0.004692 -0.146910 
0.002514 -0.144897 
0.005577 -0.139164 
0.006615 -0.166504 
0.005639 -0.165513 
0.005771 -0.166280 
0.005446 -0.163064 
0.005538 -0.164496 
0.006894 -0.164648 
0.003035 -0.162835 
0.004179 -0.163872 
0.002376 -0.161427 
0.003919 -0.149621 
0.004662 -0.154614 
0.008614 -0.154820 
-0.000289 -0.153186 
0.001694 -0.153985 
-0.001351 -0.148713 
0.007673 -0.161193 
0.005088 -0.158320 
0.005317 -0.161063 
-0.001485 -0.148865 
-0.001926 -0.150178 
-0.002232 -0.146112 
0.000539 -0.158176 
-0.000980 -0.154314 
0.000005 -0.156706 
-0.002824 -0.147714 
-0.001950 -0.151305 
-0.001449 -0.152294 
0.003226 -0.160430 
0.000719 -0.156729 
0.001610 -0.159434 
0.000000 -0.105810 
-0.000114 -0.106656 
0.000527 -0.100905 
-0.000901 -0.116639 
-0.000595 -0.111922 
0.000000 -0.115964 
0.002122 -0.108358 
-0.000144 -0.109146 
-0.000015 -0.113240 
-0.000886 -0.128952 
-0.001012 -0.126911 
0.000000 -0.128573 
-0.002869 -0.125267 
-0.002078 -0.125670 
-0.002932 -0.128091 
0.000000 -0.123655 
-0.001076 -0.124170 
-0.001050 -0.120737 
0.008663 -0.142929 
0.001633 -0.134310 
0.002798 -0.142874 
0.000319 -0.118874 
0.000861 -0.125960 
0.005182 -0.122786 
-0.003162 -0.131476 
-0.001748 -0.128936 
-0.002953 -0.126171 
-0.001738 -0.118606 
-0.002447 -0.121817 
-0.001534 -0.117778 
0.000754 -0.121372 
0.000552 -0.124497 
0.000000 -0.121278 
0.000510 -0.130254 
0.000712 -0.127455 
0.001148 -0.128138 
0.000000 -0.126890 
0.000340 -0.127032 
0.000121 -0.128962 
-0.001997 -0.142342 
-0.001410 -0.138939 
-0.001019 -0.141218 
-0.001567 -0.134727 
-0.001592 -0.136733 
-0.002416 -0.137089 
0.000289 -0.134474 
-0.000679 -0.135864 
0.000010 -0.133012 
0.000000 -0.130680 
-0.000525 -0.130953 
-0.000719 -0.130296 
-0.000099 -0.130270 
-0.000316 -0.130940 
0.000000 -0.130073 
-0.001908 -0.132742 
-0.000995 -0.131753 
-0.001357 -0.133035 
-0.000129 -0.131781 
-0.000757 -0.132711 
-0.000155 -0.130850 
-0.000481 -0.143055 
-0.003791 -0.133552 
-0.002965 -0.137384 
-0.002317 -0.143338 
-0.003227 -0.143575 
-0.001702 -0.130055 
-0.002870 -0.134165 
-0.002383 -0.131825 
-0.002743 -0.130277 
-0.003561 -0.131314 
-0.002782 -0.143097 
-0.003499 -0.143662 
-0.003311 -0.143522 
-0.003085 -0.139978 
-0.003113 -0.136938 
-0.003892 -0.135159 
-0.003630 -0.136292 
-0.003874 -0.139376 
-0.000527 -0.100905 
0.000114 -0.106656 
0.000015 -0.113240 
0.000144 -0.109146 
-0.002122 -0.108358 
0.000595 -0.111922 
0.000901 -0.116639 
-0.002798 -0.142874 
-0.001633 -0.134310 
-0.008663 -0.142929 
0.002953 -0.126171 
0.001748 -0.128936 
0.003162 -0.131476 
-0.005182 -0.122786 
-0.000861 -0.125960 
-0.000319 -0.118874 
0.001012 -0.126911 
0.000886 -0.128952 
0.001050 -0.120737 
0.001076 -0.124170 
0.002932 -0.128091 
0.002078 -0.125670 
0.002869 -0.125267 
0.001534 -0.117778 
0.002447 -0.121817 
0.001738 -0.118606 
-0.005771 -0.166280 
-0.005639 -0.165513 
-0.006615 -0.166504 
-0.002376 -0.161427 
-0.004179 -0.163872 
-0.003035 -0.162835 
-0.006894 -0.164648 
-0.005538 -0.164496 
-0.005446 -0.163064 
0.002232 -0.146112 
0.001926 -0.150178 
0.001485 -0.148865 
0.001449 -0.152294 
0.001950 -0.151305 
0.002824 -0.147714 
-0.000005 -0.156706 
0.000980 -0.154314 
-0.000539 -0.158176 
-0.008614 -0.154820 
-0.004662 -0.154614 
-0.003919 -0.149621 
-0.005317 -0.161063 
-0.005088 -0.158320 
-0.007673 -0.161193 
0.001351 -0.148713 
-0.001694 -0.153985 
0.000289 -0.153186 
-0.001610 -0.159434 
-0.000719 -0.156729 
-0.003226 -0.160430 
-0.000552 -0.124497 
-0.000754 -0.121372 
-0.000121 -0.128962 
-0.000340 -0.127032 
-0.001148 -0.128138 
-0.000712 -0.127455 
-0.000510 -0.130254 
0.000719 -0.130296 
0.000525 -0.130953 
0.001357 -0.133035 
0.000995 -0.131753 
0.001908 -0.132742 
0.000316 -0.130940 
0.000099 -0.130270 
0.001019 -0.141218 
0.001410 -0.138939 
0.001997 -0.142342 
-0.000010 -0.133012 
0.000679 -0.135864 
-0.000289 -0.134474 
0.002416 -0.137089 
0.001592 -0.136733 
0.001567 -0.134727 
0.000155 -0.130850 
0.000757 -0.132711 
0.000129 -0.131781 
0.000481 -0.143055 
0.003227 -0.143575 
0.002317 -0.143338 
0.002965 -0.137384 
0.003791 -0.133552 
0.002782 -0.143097 
0.003113 -0.136938 
0.003085 -0.139978 
0.003311 -0.143522 
0.003499 -0.143662 
0.001702 -0.130055 
0.003561 -0.131314 
0.002743 -0.130277 
0.002383 -0.131825 
0.002870 -0.134165 
0.003874 -0.139376 
0.003630 -0.136292 
0.003892 -0.135159 
-0.005946 -0.166967 
-0.004903 -0.165581 
-0.003689 -0.162805 
-0.004166 -0.164411 
-0.004731 -0.164861 
-0.003618 -0.163785 
-0.002240 -0.161442 
-0.005473 -0.152886 
-0.004460 -0.155809 
-0.005580 -0.155159 
-0.002383 -0.155514 
-0.003408 -0.155921 
-0.003235 -0.153016 
-0.004445 -0.160763 
-0.003815 -0.158460 
-0.003559 -0.160806 
0.000601 -0.151240 
0.000710 -0.147320 
-0.000958 -0.158499 
0.000034 -0.155037 
-0.001137 -0.151062 
-0.000364 -0.153162 
-0.001366 -0.154592 
-0.002716 -0.160487 
-0.001912 -0.157758 
-0.001859 -0.159739 
-0.021155 -0.121503 
-0.018921 -0.126176 
-0.020648 -0.124217 
-0.015508 -0.128201 
-0.017204 -0.127471 
-0.017546 -0.123530 
-0.016034 -0.132991 
-0.016673 -0.130629 
-0.014452 -0.134868 
-0.009204 -0.127236 
-0.010679 -0.127898 
-0.010737 -0.122804 
-0.009953 -0.136758 
-0.010394 -0.132559 
-0.008565 -0.136438 
-0.014030 -0.123740 
-0.012230 -0.128330 
-0.013845 -0.128459 
-0.008107 -0.148510 
-0.008433 -0.146324 
-0.006813 -0.149718 
-0.012305 -0.138895 
-0.010282 -0.142714 
-0.011723 -0.141087 
-0.007573 -0.143995 
-0.008900 -0.143654 
-0.009430 -0.140464 
-0.013446 -0.132574 
-0.011404 -0.136659 
-0.012907 -0.136059 
-0.001540 -0.121681 
-0.000950 -0.117672 
-0.001670 -0.129044 
-0.001773 -0.125447 
-0.002941 -0.118381 
-0.002374 -0.122189 
-0.003276 -0.122869 
0.000431 -0.143445 
-0.000100 -0.139698 
-0.002603 -0.135380 
-0.001319 -0.137758 
-0.002071 -0.139394 
-0.000724 -0.136086 
-0.001289 -0.132561 
-0.007771 -0.121291 
-0.006532 -0.125511 
-0.007819 -0.126418 
-0.004264 -0.123681 
-0.005347 -0.124579 
-0.005181 -0.119684 
-0.004917 -0.133759 
-0.005239 -0.129264 
-0.003920 -0.132552 
-0.002299 -0.130124 
-0.003046 -0.131316 
-0.003296 -0.127162 
-0.005591 -0.150281 
-0.006303 -0.143817 
-0.005884 -0.147260 
-0.004420 -0.150266 
-0.003295 -0.149728 
-0.007624 -0.131252 
-0.004466 -0.138073 
-0.006032 -0.134861 
-0.007253 -0.135780 
-0.006785 -0.139978 
-0.000328 -0.145501 
-0.002223 -0.148716 
-0.001224 -0.147285 
-0.001570 -0.143372 
-0.002964 -0.140904 
-0.005101 -0.143194 
-0.003982 -0.142197 
-0.003563 -0.146100 
-0.025203 -0.114747 
-0.023324 -0.116605 
-0.027280 -0.106084 
-0.025379 -0.111469 
-0.029332 -0.104513 
-0.021418 -0.117840 
-0.019507 -0.118553 
-0.032322 -0.081764 
-0.031561 -0.088294 
-0.034776 -0.081359 
-0.024506 -0.101671 
-0.028097 -0.095119 
-0.025716 -0.095352 
-0.032666 -0.093411 
-0.030426 -0.094511 
-0.028980 -0.100435 
-0.013930 -0.118461 
-0.012181 -0.117950 
-0.017610 -0.118838 
-0.015745 -0.118781 
-0.018767 -0.107717 
-0.017338 -0.113442 
-0.020890 -0.107816 
-0.025173 -0.107090 
-0.023034 -0.107635 
-0.021352 -0.113258 
-0.009593 -0.011487 
-0.017579 -0.023071 
-0.013807 -0.016664 
-0.020738 -0.039531 
-0.019804 -0.031127 
-0.016865 -0.029756 
-0.026757 -0.037344 
-0.023225 -0.033548 
-0.027168 -0.043059 
-0.016735 -0.072063 
-0.018510 -0.064326 
-0.016101 -0.063884 
-0.023812 -0.065452 
-0.021085 -0.064845 
-0.021729 -0.073025 
-0.018044 -0.047321 
-0.019878 -0.056267 
-0.020683 -0.047965 
-0.035107 -0.068225 
-0.032402 -0.067651 
-0.032632 -0.074895 
-0.029839 -0.051819 
-0.031518 -0.059982 
-0.032871 -0.053756 
-0.027157 -0.074081 
-0.029549 -0.066908 
-0.026655 -0.066149 
-0.023574 -0.048882 
-0.025501 -0.057755 
-0.026669 -0.050157 
-0.002278 -0.113647 
-0.001132 -0.113413 
-0.004711 -0.114556 
-0.003465 -0.114035 
-0.004319 -0.103798 
-0.003927 -0.109169 
-0.005844 -0.104206 
-0.010510 -0.117311 
-0.008927 -0.116603 
-0.010879 -0.105837 
-0.009972 -0.111450 
-0.012732 -0.106420 
-0.007433 -0.115878 
-0.006030 -0.115182 
-0.012525 -0.078988 
-0.012469 -0.086331 
-0.014683 -0.079413 
-0.007960 -0.098744 
-0.010197 -0.092782 
-0.008332 -0.092337 
-0.014216 -0.093765 
-0.012157 -0.093265 
-0.011616 -0.099772 
-0.006789 -0.110182 
-0.009115 -0.105252 
-0.007439 -0.104698 
-0.029748 -0.081791 
-0.024471 -0.081221 
-0.027112 -0.081577 
-0.026606 -0.088660 
-0.023320 -0.095309 
-0.016964 -0.079864 
-0.016374 -0.094255 
-0.016829 -0.087267 
-0.019366 -0.080329 
-0.021877 -0.080791 
-0.013505 -0.112669 
-0.019985 -0.101596 
-0.016687 -0.107410 
-0.014671 -0.106960 
-0.015640 -0.100821 
-0.021595 -0.088139 
-0.018622 -0.094704 
-0.020945 -0.095072 
0.000000 0.000000 
-0.007418 -0.010152 
-0.005161 -0.009538 
-0.006108 -0.009710 
0.000000 0.000000 
-0.011918 -0.019718 
-0.014422 -0.029008 
-0.002741 -0.009446 
-0.003226 -0.009441 
0.000000 0.000000 
-0.009083 -0.028219 
-0.006291 -0.018859 
-0.007724 -0.028130 
0.000000 0.000000 
-0.003775 -0.009445 
-0.004407 -0.009469 
-0.015030 -0.055360 
-0.013858 -0.063504 
-0.015542 -0.038067 
-0.015657 -0.046866 
-0.011539 -0.046286 
-0.013498 -0.046535 
-0.011506 -0.037466 
-0.008606 -0.019024 
-0.010616 -0.028359 
-0.012372 -0.028595 
0.000000 -0.009482 
-0.000289 -0.009483 
0.000000 0.000000 
-0.000820 -0.027916 
-0.000565 -0.018792 
0.000000 -0.027910 
0.000000 0.000000 
-0.000584 -0.009482 
-0.000888 -0.009479 
-0.001515 -0.062115 
-0.001398 -0.053963 
0.000000 -0.062088 
-0.003205 -0.036893 
-0.002500 -0.045564 
-0.003796 -0.045623 
0.000000 -0.045511 
-0.001241 -0.045527 
-0.001047 -0.036835 
0.000000 0.000000 
-0.001910 -0.009462 
-0.002306 -0.009454 
-0.001207 -0.009475 
-0.001546 -0.009470 
0.000000 0.000000 
-0.004365 -0.027991 
-0.003014 -0.018806 
-0.003412 -0.027964 
-0.001653 -0.027927 
-0.002512 -0.027943 
-0.001733 -0.018798 
-0.001286 -0.108616 
0.000000 -0.113343 
-0.004630 -0.097944 
-0.002849 -0.103495 
0.000000 -0.103242 
-0.001416 -0.103307 
-0.001518 -0.097509 
-0.012299 -0.071260 
-0.010487 -0.078599 
-0.006726 -0.077959 
-0.008559 -0.078253 
-0.008381 -0.070629 
-0.008538 -0.085499 
-0.006554 -0.091948 
0.000000 -0.077399 
-0.001630 -0.077439 
-0.001593 -0.069951 
-0.001590 -0.091247 
-0.001629 -0.084548 
0.000000 -0.091195 
-0.004863 -0.070185 
-0.003281 -0.077547 
-0.004973 -0.077722 
-0.004849 -0.091630 
-0.004966 -0.084880 
-0.003200 -0.091394 
-0.004495 -0.018818 
-0.005563 -0.037002 
-0.005389 -0.028025 
-0.006502 -0.028069 
-0.008268 -0.037174 
-0.003052 -0.062186 
-0.006271 -0.062458 
-0.004630 -0.062301 
-0.004274 -0.054103 
-0.005149 -0.045703 
-0.011769 -0.063177 
-0.009750 -0.046091 
-0.010921 -0.054773 
-0.009821 -0.062895 
-0.007994 -0.062656 
-0.006578 -0.045806 
-0.007392 -0.054370 
-0.008105 -0.045934 
0.000000 0.000000 
0.000289 -0.009483 
0.000888 -0.009479 
0.000584 -0.009482 
0.000000 0.000000 
0.000565 -0.018792 
0.000820 -0.027916 
0.002306 -0.009454 
0.001910 -0.009462 
0.000000 0.000000 
0.003412 -0.027964 
0.003014 -0.018806 
0.004365 -0.027991 
0.000000 0.000000 
0.001546 -0.009470 
0.001207 -0.009475 
0.001398 -0.053963 
0.001515 -0.062115 
0.001047 -0.036835 
0.001241 -0.045527 
0.003796 -0.045623 
0.002500 -0.045564 
0.003205 -0.036893 
0.001733 -0.018798 
0.002512 -0.027943 
0.001653 -0.027927 
0.009593 -0.011487 
0.007418 -0.010152 
0.000000 0.000000 
0.014422 -0.029008 
0.011918 -0.019718 
0.016865 -0.029756 
0.000000 0.000000 
0.006108 -0.009710 
0.005161 -0.009538 
0.013858 -0.063504 
0.015030 -0.055360 
0.016101 -0.063884 
0.011506 -0.037466 
0.013498 -0.046535 
0.011539 -0.046286 
0.018044 -0.047321 
0.015657 -0.046866 
0.015542 -0.038067 
0.000000 0.000000 
0.003226 -0.009441 
0.002741 -0.009446 
0.004407 -0.009469 
0.003775 -0.009445 
0.000000 0.000000 
0.007724 -0.028130 
0.006291 -0.018859 
0.009083 -0.028219 
0.012372 -0.028595 
0.010616 -0.028359 
0.008606 -0.019024 
0.001286 -0.108616 
0.001132 -0.113413 
0.001518 -0.097509 
0.001416 -0.103307 
0.004319 -0.103798 
0.002849 -0.103495 
0.004630 -0.097944 
0.001593 -0.069951 
0.001630 -0.077439 
0.004973 -0.077722 
0.003281 -0.077547 
0.004863 -0.070185 
0.001629 -0.084548 
0.001590 -0.091247 
0.012525 -0.078988 
0.010487 -0.078599 
0.012299 -0.071260 
0.006554 -0.091948 
0.008538 -0.085499 
0.008332 -0.092337 
0.008381 -0.070629 
0.008559 -0.078253 
0.006726 -0.077959 
0.003200 -0.091394 
0.004966 -0.084880 
0.004849 -0.091630 
0.004495 -0.018818 
0.008268 -0.037174 
0.006502 -0.028069 
0.005389 -0.028025 
0.005563 -0.037002 
0.011769 -0.063177 
0.007994 -0.062656 
0.009821 -0.062895 
0.010921 -0.054773 
0.009750 -0.046091 
0.003052 -0.062186 
0.005149 -0.045703 
0.004274 -0.054103 
0.004630 -0.062301 
0.006271 -0.062458 
0.008105 -0.045934 
0.007392 -0.054370 
0.006578 -0.045806 
0.013807 -0.016664 
0.017579 -0.023071 
0.027168 -0.043059 
0.023225 -0.033548 
0.026757 -0.037344 
0.019804 -0.031127 
0.020738 -0.039531 
0.032632 -0.074895 
0.032402 -0.067651 
0.035107 -0.068225 
0.026655 -0.066149 
0.029549 -0.066908 
0.027157 -0.074081 
0.032871 -0.053756 
0.031518 -0.059982 
0.029839 -0.051819 
0.018510 -0.064326 
0.016735 -0.072063 
0.020683 -0.047965 
0.019878 -0.056267 
0.021729 -0.073025 
0.021085 -0.064845 
0.023812 -0.065452 
0.026669 -0.050157 
0.025501 -0.057755 
0.023574 -0.048882 
0.021155 -0.121503 
0.023324 -0.116605 
0.025203 -0.114747 
0.019507 -0.118553 
0.021418 -0.117840 
0.017546 -0.123530 
0.029332 -0.104513 
0.025379 -0.111469 
0.027280 -0.106084 
0.012181 -0.117950 
0.013930 -0.118461 
0.010737 -0.122804 
0.020890 -0.107816 
0.017338 -0.113442 
0.018767 -0.107717 
0.014030 -0.123740 
0.015745 -0.118781 
0.017610 -0.118838 
0.034776 -0.081359 
0.031561 -0.088294 
0.032322 -0.081764 
0.028980 -0.100435 
0.030426 -0.094511 
0.032666 -0.093411 
0.025716 -0.095352 
0.028097 -0.095119 
0.024506 -0.101671 
0.021352 -0.113258 
0.023034 -0.107635 
0.025173 -0.107090 
0.002278 -0.113647 
0.000950 -0.117672 
0.005844 -0.104206 
0.003927 -0.109169 
0.002941 -0.118381 
0.003465 -0.114035 
0.004711 -0.114556 
0.014683 -0.079413 
0.012469 -0.086331 
0.011616 -0.099772 
0.012157 -0.093265 
0.014216 -0.093765 
0.010197 -0.092782 
0.007960 -0.098744 
0.007771 -0.121291 
0.008927 -0.116603 
0.010510 -0.117311 
0.006030 -0.115182 
0.007433 -0.115878 
0.005181 -0.119684 