# vtk DataFile Version 2.0
Unstructured Grid Example
ASCII
DATASET UNSTRUCTURED_GRID

POINTS 25 float
0.008617 -0.166863 0.000000 
0.991383 -0.166863 0.000000 
1.000000 1.000000 0.000000 
0.000000 1.000000 0.000000 
0.500000 -0.089978 0.000000 
0.975577 0.381227 0.000000 
0.500000 1.000000 0.000000 
0.024423 0.381227 0.000000 
0.500000 0.385341 0.000000 
0.254778 -0.150073 0.000000 
0.500000 0.128999 0.000000 
0.251738 0.103588 0.000000 
0.745222 -0.150073 0.000000 
0.748262 0.103588 0.000000 
0.989738 0.097878 0.000000 
0.739020 0.379605 0.000000 
0.968706 0.674833 0.000000 
0.737845 0.680671 0.000000 
0.750000 1.000000 0.000000 
0.500000 0.683991 0.000000 
0.250000 1.000000 0.000000 
0.262155 0.680671 0.000000 
0.031294 0.674833 0.000000 
0.260980 0.379605 0.000000 
0.010262 0.097878 0.000000 

CELLS 32 128
3  0 9 11 
3  4 10 9 
3  8 11 10 
3  9 10 11 
3  4 12 10 
3  1 13 12 
3  8 10 13 
3  12 13 10 
3  1 14 13 
3  5 15 14 
3  8 13 15 
3  14 15 13 
3  5 16 15 
3  2 17 16 
3  8 15 17 
3  16 17 15 
3  2 18 17 
3  6 19 18 
3  8 17 19 
3  18 19 17 
3  6 20 19 
3  3 21 20 
3  8 19 21 
3  20 21 19 
3  3 22 21 
3  7 23 22 
3  8 21 23 
3  22 23 21 
3  7 24 23 
3  0 11 24 
3  8 23 11 
3  24 11 23 

CELL_TYPES 32
5
5
5
5
5
5
5
5
5
5
5
5
5
5
5
5
5
5
5
5
5
5
5
5
5
5
5
5
5
5
5
5

POINT_DATA 25

SCALARS u_h float 2
LOOKUP_TABLE default
0.008617 -0.166863 
-0.008617 -0.166863 
0.000000 0.000000 
0.000000 0.000000 
0.000000 -0.089978 
-0.024423 -0.118773 
0.000000 0.000000 
0.024423 -0.118773 
0.000000 -0.114659 
0.004778 -0.150073 
0.000000 -0.121001 
0.001738 -0.146412 
-0.004778 -0.150073 
-0.001738 -0.146412 
-0.010262 -0.152122 
-0.010980 -0.120395 
-0.031294 -0.075167 
-0.012155 -0.069329 
0.000000 0.000000 
0.000000 -0.066009 
0.000000 0.000000 
0.012155 -0.069329 
0.031294 -0.075167 
0.010980 -0.120395 
0.010262 -0.152122 

CELL_DATA 32

SCALARS epsilon float 4
LOOKUP_TABLE default
-0.014581 0.017610 0.000000 0.026915
-0.019296 -0.092497 0.000000 0.137166
-0.006976 0.030026 0.000000 0.049563
-0.005678 0.020839 0.000000 0.043966
-0.019296 -0.092497 0.000000 -0.137166
-0.014581 0.017610 0.000000 -0.026915
-0.006976 0.030026 0.000000 -0.049563
-0.005678 0.020839 0.000000 -0.043966
-0.034804 0.057334 0.000000 -0.014168
-0.053476 0.124977 0.000000 -0.026663
-0.045072 0.098142 0.000000 -0.029531
-0.034867 0.098147 0.000000 -0.029301
-0.054746 0.159723 0.000000 -0.011449
-0.071648 0.260371 0.000000 0.055176
-0.044970 0.184108 0.000000 -0.011890
-0.079556 0.184125 0.000000 -0.012098
0.000724 0.240677 0.000000 0.023163
0.000000 0.230698 0.000000 -0.000000
-0.049797 0.176239 0.000000 -0.005545
-0.048467 0.241242 0.000000 0.019156
0.000000 0.230698 0.000000 -0.000000
0.000724 0.240677 0.000000 -0.023163
-0.049797 0.176239 0.000000 0.005545
-0.048467 0.241242 0.000000 -0.019156
-0.071648 0.260371 0.000000 -0.055176
-0.054746 0.159723 0.000000 0.011449
-0.044970 0.184108 0.000000 0.011890
-0.079556 0.184125 0.000000 0.012098
-0.053476 0.124977 0.000000 0.026663
-0.034804 0.057334 0.000000 0.014168
-0.045072 0.098142 0.000000 0.029531
-0.034867 0.098147 0.000000 0.029301

SCALARS sigma float 4
LOOKUP_TABLE default
-0.237390 0.254650 0.004742 0.451053
-1.931137 -3.934982 -1.611571 2.294224
0.062553 0.583063 0.177367 0.818561
0.004161 0.355249 0.098739 0.727347
-1.931137 -3.934982 -1.611571 -2.294224
-0.237390 0.254650 0.004742 -0.451053
0.062553 0.583063 0.177367 -0.818561
0.004161 0.355249 0.098739 -0.727347
-0.380552 1.111769 0.200884 -0.235921
-0.310684 2.550490 0.615331 -0.383381
-0.299700 2.001416 0.467504 -0.465777
-0.018195 2.108285 0.574201 -0.460272
-0.009175 3.357958 0.919995 -0.154913
0.211073 5.349276 1.527568 0.693466
0.479988 4.015427 1.235004 -0.196848
-0.496123 3.645594 0.865239 -0.206836
2.171086 5.731666 2.171086 0.312114
2.088821 5.514487 2.088821 -0.000000
0.279911 3.789583 1.117993 -0.095831
0.840874 5.237201 1.669801 0.238311
2.088821 5.514487 2.088821 -0.000000
2.171086 5.731666 2.171086 -0.312114
0.279911 3.789583 1.117993 0.095831
0.840874 5.237201 1.669801 -0.238311
0.211073 5.349276 1.527568 -0.693466
-0.009175 3.357958 0.919995 0.154913
0.479988 4.015427 1.235004 0.196848
-0.496123 3.645594 0.865239 0.206836
-0.310684 2.550490 0.615331 0.383381
-0.380552 1.111769 0.200884 0.235921
-0.299700 2.001416 0.467504 0.465777
-0.018195 2.108285 0.574201 0.460272

