# vtk DataFile Version 2.0
Unstructured Grid Example
ASCII
DATASET UNSTRUCTURED_GRID

POINTS 64 float
0.000000 -0.000000 0.000000 
0.031250 0.010019 0.000000 
0.031250 -0.010019 0.000000 
0.062500 0.040076 0.000000 
0.062500 -0.040076 0.000000 
0.093750 0.150285 0.000000 
0.093750 -0.150285 0.000000 
0.125000 0.561063 0.000000 
0.187500 -13.305964 0.000000 
0.218750 7.291754 0.000000 
0.218750 5.892096 0.000000 
0.250000 -10.506649 0.000000 
0.125000 2.126558 0.000000 
0.156250 -3.281276 0.000000 
0.156250 3.482729 0.000000 
0.187500 -11.401452 0.000000 
0.437500 -6.181112 0.000000 
0.468750 3.214800 0.000000 
0.468750 -0.029317 0.000000 
0.500000 0.307123 0.000000 
0.375000 0.047406 0.000000 
0.406250 -0.020925 0.000000 
0.406250 3.052846 0.000000 
0.437500 -6.100135 0.000000 
0.250000 -9.092119 0.000000 
0.281250 3.063036 0.000000 
0.281250 -2.362598 0.000000 
0.312500 1.759148 0.000000 
0.312500 0.666067 0.000000 
0.343750 -0.176435 0.000000 
0.343750 0.184169 0.000000 
0.375000 -0.055140 0.000000 
0.500000 0.307123 0.000000 
0.531250 -0.029317 0.000000 
0.531250 3.214800 0.000000 
0.562500 -6.181112 0.000000 
0.562500 -6.100135 0.000000 
0.593750 3.052846 0.000000 
0.593750 -0.020925 0.000000 
0.625000 0.047406 0.000000 
0.687500 1.759148 0.000000 
0.718750 -2.362598 0.000000 
0.718750 3.063036 0.000000 
0.750000 -9.092119 0.000000 
0.625000 -0.055140 0.000000 
0.656250 0.184169 0.000000 
0.656250 -0.176435 0.000000 
0.687500 0.666067 0.000000 
0.937500 0.040076 0.000000 
0.968750 -0.010019 0.000000 
0.968750 0.010019 0.000000 
1.000000 -0.000000 0.000000 
0.875000 0.561063 0.000000 
0.906250 -0.150285 0.000000 
0.906250 0.150285 0.000000 
0.937500 -0.040076 0.000000 
0.750000 -10.506649 0.000000 
0.781250 5.892096 0.000000 
0.781250 7.291754 0.000000 
0.812500 -13.305964 0.000000 
0.812500 -11.401452 0.000000 
0.843750 3.482729 0.000000 
0.843750 -3.281276 0.000000 
0.875000 2.126558 0.000000 

CELLS 32 96
2  0 1 
2  2 3 
2  4 5 
2  6 7 
2  8 9 
2  10 11 
2  12 13 
2  14 15 
2  16 17 
2  18 19 
2  20 21 
2  22 23 
2  24 25 
2  26 27 
2  28 29 
2  30 31 
2  32 33 
2  34 35 
2  36 37 
2  38 39 
2  40 41 
2  42 43 
2  44 45 
2  46 47 
2  48 49 
2  50 51 
2  52 53 
2  54 55 
2  56 57 
2  58 59 
2  60 61 
2  62 63 

CELL_TYPES 32
3
3
3
3
3
3
3
3
3
3
3
3
3
3
3
3
3
3
3
3
3
3
3
3
3
3
3
3
3
3
3
3

POINT_DATA 64

SCALARS lambda_h float 1
LOOKUP_TABLE default
-0.000000 
0.010019 
-0.010019 
0.040076 
-0.040076 
0.150285 
-0.150285 
0.561063 
-13.305964 
7.291754 
5.892096 
-10.506649 
2.126558 
-3.281276 
3.482729 
-11.401452 
-6.181112 
3.214800 
-0.029317 
0.307123 
0.047406 
-0.020925 
3.052846 
-6.100135 
-9.092119 
3.063036 
-2.362598 
1.759148 
0.666067 
-0.176435 
0.184169 
-0.055140 
0.307123 
-0.029317 
3.214800 
-6.181112 
-6.100135 
3.052846 
-0.020925 
0.047406 
1.759148 
-2.362598 
3.063036 
-9.092119 
-0.055140 
0.184169 
-0.176435 
0.666067 
0.040076 
-0.010019 
0.010019 
-0.000000 
0.561063 
-0.150285 
0.150285 
-0.040076 
-10.506649 
5.892096 
7.291754 
-13.305964 
-11.401452 
3.482729 
-3.281276 
2.126558 

