# vtk DataFile Version 2.0
Unstructured Grid Example
ASCII
DATASET UNSTRUCTURED_GRID

POINTS 128 float
0.000000 -0.000000 0.000000 
0.015625 0.006083 0.000000 
0.015625 0.003936 0.000000 
0.031250 0.004292 0.000000 
0.031250 -0.004292 0.000000 
0.046875 0.021106 0.000000 
0.046875 0.008951 0.000000 
0.062500 0.020019 0.000000 
0.093750 -0.115665 0.000000 
0.109375 0.483843 0.000000 
0.109375 -0.073065 0.000000 
0.125000 0.998150 0.000000 
0.062500 -0.020019 0.000000 
0.078125 0.089025 0.000000 
0.078125 0.021184 0.000000 
0.093750 0.115665 0.000000 
0.218750 6.201216 0.000000 
0.234375 -6.434894 0.000000 
0.234375 1.820341 0.000000 
0.250000 -10.309254 0.000000 
0.187500 -12.979871 0.000000 
0.203125 1.983521 0.000000 
0.203125 -7.997732 0.000000 
0.218750 6.982635 0.000000 
0.125000 1.689471 0.000000 
0.140625 -1.455706 0.000000 
0.140625 0.300988 0.000000 
0.156250 -1.823918 0.000000 
0.156250 2.025371 0.000000 
0.171875 -7.397590 0.000000 
0.171875 -0.521132 0.000000 
0.187500 -11.727545 0.000000 
0.468750 0.667264 0.000000 
0.484375 0.048867 0.000000 
0.484375 0.228938 0.000000 
0.500000 0.307123 0.000000 
0.437500 -6.161326 0.000000 
0.453125 0.686730 0.000000 
0.453125 -3.653042 0.000000 
0.468750 2.518219 0.000000 
0.375000 -0.026185 0.000000 
0.390625 0.180183 0.000000 
0.390625 -0.153701 0.000000 
0.406250 0.641584 0.000000 
0.406250 2.390338 0.000000 
0.421875 -3.651209 0.000000 
0.421875 0.603920 0.000000 
0.437500 -6.119921 0.000000 
0.250000 -9.289515 0.000000 
0.265625 -0.219138 0.000000 
0.265625 -5.809945 0.000000 
0.281250 1.892100 0.000000 
0.281250 -1.191665 0.000000 
0.296875 0.357585 0.000000 
0.296875 -0.961034 0.000000 
0.312500 1.445573 0.000000 
0.343750 0.124038 0.000000 
0.359375 0.038117 0.000000 
0.359375 0.090911 0.000000 
0.375000 0.018451 0.000000 
0.312500 0.979642 0.000000 
0.328125 -0.029170 0.000000 
0.328125 0.518802 0.000000 
0.343750 -0.116304 0.000000 
0.500000 0.307123 0.000000 
0.515625 0.228938 0.000000 
0.515625 0.048867 0.000000 
0.531250 0.667264 0.000000 
0.531250 2.518219 0.000000 
0.546875 -3.653042 0.000000 
0.546875 0.686730 0.000000 
0.562500 -6.161326 0.000000 
0.593750 0.641584 0.000000 
0.609375 -0.153701 0.000000 
0.609375 0.180183 0.000000 
0.625000 -0.026185 0.000000 
0.562500 -6.119921 0.000000 
0.578125 0.603920 0.000000 
0.578125 -3.651209 0.000000 
0.593750 2.390338 0.000000 
0.718750 1.892100 0.000000 
0.734375 -5.809945 0.000000 
0.734375 -0.219138 0.000000 
0.750000 -9.289515 0.000000 
0.687500 1.445573 0.000000 
0.703125 -0.961034 0.000000 
0.703125 0.357585 0.000000 
0.718750 -1.191665 0.000000 
0.625000 0.018451 0.000000 
0.640625 0.090911 0.000000 
0.640625 0.038117 0.000000 
0.656250 0.124038 0.000000 
0.656250 -0.116304 0.000000 
0.671875 0.518802 0.000000 
0.671875 -0.029170 0.000000 
0.687500 0.979642 0.000000 
0.968750 0.004292 0.000000 
0.984375 0.003936 0.000000 
0.984375 0.006083 0.000000 
1.000000 -0.000000 0.000000 
0.937500 0.020019 0.000000 
0.953125 0.008951 0.000000 
0.953125 0.021106 0.000000 
0.968750 -0.004292 0.000000 
0.875000 0.998150 0.000000 
0.890625 -0.073065 0.000000 
0.890625 0.483843 0.000000 
0.906250 -0.115665 0.000000 
0.906250 0.115665 0.000000 
0.921875 0.021184 0.000000 
0.921875 0.089025 0.000000 
0.937500 -0.020019 0.000000 
0.750000 -10.309254 0.000000 
0.765625 1.820341 0.000000 
0.765625 -6.434894 0.000000 
0.781250 6.201216 0.000000 
0.781250 6.982635 0.000000 
0.796875 -7.997732 0.000000 
0.796875 1.983521 0.000000 
0.812500 -12.979871 0.000000 
0.843750 -1.823918 0.000000 
0.859375 0.300988 0.000000 
0.859375 -1.455706 0.000000 
0.875000 1.689471 0.000000 
0.812500 -11.727545 0.000000 
0.828125 -0.521132 0.000000 
0.828125 -7.397590 0.000000 
0.843750 2.025371 0.000000 

CELLS 64 192
2  0 1 
2  2 3 
2  4 5 
2  6 7 
2  8 9 
2  10 11 
2  12 13 
2  14 15 
2  16 17 
2  18 19 
2  20 21 
2  22 23 
2  24 25 
2  26 27 
2  28 29 
2  30 31 
2  32 33 
2  34 35 
2  36 37 
2  38 39 
2  40 41 
2  42 43 
2  44 45 
2  46 47 
2  48 49 
2  50 51 
2  52 53 
2  54 55 
2  56 57 
2  58 59 
2  60 61 
2  62 63 
2  64 65 
2  66 67 
2  68 69 
2  70 71 
2  72 73 
2  74 75 
2  76 77 
2  78 79 
2  80 81 
2  82 83 
2  84 85 
2  86 87 
2  88 89 
2  90 91 
2  92 93 
2  94 95 
2  96 97 
2  98 99 
2  100 101 
2  102 103 
2  104 105 
2  106 107 
2  108 109 
2  110 111 
2  112 113 
2  114 115 
2  116 117 
2  118 119 
2  120 121 
2  122 123 
2  124 125 
2  126 127 

CELL_TYPES 64
3
3
3
3
3
3
3
3
3
3
3
3
3
3
3
3
3
3
3
3
3
3
3
3
3
3
3
3
3
3
3
3
3
3
3
3
3
3
3
3
3
3
3
3
3
3
3
3
3
3
3
3
3
3
3
3
3
3
3
3
3
3
3
3

POINT_DATA 128

SCALARS lambda_h float 1
LOOKUP_TABLE default
-0.000000 
0.006083 
0.003936 
0.004292 
-0.004292 
0.021106 
0.008951 
0.020019 
-0.115665 
0.483843 
-0.073065 
0.998150 
-0.020019 
0.089025 
0.021184 
0.115665 
6.201216 
-6.434894 
1.820341 
-10.309254 
-12.979871 
1.983521 
-7.997732 
6.982635 
1.689471 
-1.455706 
0.300988 
-1.823918 
2.025371 
-7.397590 
-0.521132 
-11.727545 
0.667264 
0.048867 
0.228938 
0.307123 
-6.161326 
0.686730 
-3.653042 
2.518219 
-0.026185 
0.180183 
-0.153701 
0.641584 
2.390338 
-3.651209 
0.603920 
-6.119921 
-9.289515 
-0.219138 
-5.809945 
1.892100 
-1.191665 
0.357585 
-0.961034 
1.445573 
0.124038 
0.038117 
0.090911 
0.018451 
0.979642 
-0.029170 
0.518802 
-0.116304 
0.307123 
0.228938 
0.048867 
0.667264 
2.518219 
-3.653042 
0.686730 
-6.161326 
0.641584 
-0.153701 
0.180183 
-0.026185 
-6.119921 
0.603920 
-3.651209 
2.390338 
1.892100 
-5.809945 
-0.219138 
-9.289515 
1.445573 
-0.961034 
0.357585 
-1.191665 
0.018451 
0.090911 
0.038117 
0.124038 
-0.116304 
0.518802 
-0.029170 
0.979642 
0.004292 
0.003936 
0.006083 
-0.000000 
0.020019 
0.008951 
0.021106 
-0.004292 
0.998150 
-0.073065 
0.483843 
-0.115665 
0.115665 
0.021184 
0.089025 
-0.020019 
-10.309254 
1.820341 
-6.434894 
6.201216 
6.982635 
-7.997732 
1.983521 
-12.979871 
-1.823918 
0.300988 
-1.455706 
1.689471 
-11.727545 
-0.521132 
-7.397590 
2.025371 

