# vtk DataFile Version 2.0
Unstructured Grid Example
ASCII
DATASET UNSTRUCTURED_GRID

POINTS 9 float
0.023838 -0.232711 0.000000 
0.976162 -0.232711 0.000000 
1.000000 1.000000 0.000000 
0.000000 1.000000 0.000000 
0.500000 0.009808 0.000000 
0.960404 0.347871 0.000000 
0.500000 1.000000 0.000000 
0.039596 0.347871 0.000000 
0.500000 0.362811 0.000000 

CELLS 8 32
3  0 4 8 
3  4 1 8 
3  1 5 8 
3  5 2 8 
3  2 6 8 
3  6 3 8 
3  3 7 8 
3  7 0 8 

CELL_TYPES 8
5
5
5
5
5
5
5
5

POINT_DATA 9

SCALARS u_h float 2
LOOKUP_TABLE default
0.023838 -0.232711 
-0.023838 -0.232711 
0.000000 0.000000 
0.000000 0.000000 
0.000000 0.009808 
-0.039596 -0.152129 
0.000000 0.000000 
0.039596 -0.152129 
0.000000 -0.137189 

CELL_DATA 8

SCALARS epsilon float 4
LOOKUP_TABLE default
-0.048809 -0.069501 0.000000 0.342647
-0.048809 -0.069501 0.000000 -0.342647
-0.082743 0.147953 0.000000 -0.029556
-0.078184 0.262660 0.000000 0.029257
0.000000 0.238482 0.000000 -0.000000
0.000000 0.238482 0.000000 -0.000000
-0.078184 0.262660 0.000000 -0.029257
-0.082743 0.147953 0.000000 0.029556

SCALARS sigma float 4
LOOKUP_TABLE default
2.169621 -1.355610 -1.183102 3.662314
2.169621 -1.355610 -1.183102 -3.662314
-0.630038 3.517781 0.652099 -0.528677
0.503436 7.628458 1.844753 0.286799
2.384820 7.651463 2.384820 -0.000000
2.384820 7.651463 2.384820 -0.000000
0.503436 7.628458 1.844753 -0.286799
-0.630038 3.517781 0.652099 0.528677

