# vtk DataFile Version 2.0
Unstructured Grid Example
ASCII
DATASET UNSTRUCTURED_GRID

POINTS 81 float
0.109701 -0.261896 0.000000 
0.890299 -0.261896 0.000000 
1.000000 1.000000 0.000000 
0.000000 1.000000 0.000000 
0.500000 -0.094505 0.000000 
0.948661 0.324607 0.000000 
0.500000 1.000000 0.000000 
0.051339 0.324607 0.000000 
0.500000 0.320571 0.000000 
0.285438 -0.045096 0.000000 
0.500000 0.012682 0.000000 
0.268769 0.027417 0.000000 
0.714562 -0.045096 0.000000 
0.731231 0.027417 0.000000 
0.961014 0.015145 0.000000 
0.725155 0.324678 0.000000 
0.946165 0.646696 0.000000 
0.729835 0.654231 0.000000 
0.750000 1.000000 0.000000 
0.500000 0.653779 0.000000 
0.250000 1.000000 0.000000 
0.270165 0.654231 0.000000 
0.053835 0.646696 0.000000 
0.274845 0.324678 0.000000 
0.038986 0.015145 0.000000 
0.228876 -0.201564 0.000000 
0.252424 -0.109159 0.000000 
0.157806 -0.105348 0.000000 
0.500000 -0.129041 0.000000 
0.378586 -0.123369 0.000000 
0.394865 -0.003711 0.000000 
0.387250 0.166065 0.000000 
0.384375 0.016464 0.000000 
0.500000 0.163222 0.000000 
0.605135 -0.003711 0.000000 
0.621414 -0.123369 0.000000 
0.842194 -0.105348 0.000000 
0.747576 -0.109159 0.000000 
0.771124 -0.201564 0.000000 
0.615625 0.016464 0.000000 
0.612750 0.166065 0.000000 
0.950116 -0.133776 0.000000 
0.847662 0.026963 0.000000 
0.837831 0.324282 0.000000 
0.843390 0.170970 0.000000 
0.955872 0.168201 0.000000 
0.727564 0.171331 0.000000 
0.611844 0.322533 0.000000 
0.944120 0.482854 0.000000 
0.835354 0.484840 0.000000 
0.855412 0.825877 0.000000 
0.840435 0.652408 0.000000 
0.960209 0.817938 0.000000 
0.724955 0.486295 0.000000 
0.612664 0.485741 0.000000 
0.875000 1.000000 0.000000 
0.738811 0.826042 0.000000 
0.500000 0.825613 0.000000 
0.619755 0.825665 0.000000 
0.625000 1.000000 0.000000 
0.615425 0.653924 0.000000 
0.500000 0.485156 0.000000 
0.375000 1.000000 0.000000 
0.380245 0.825665 0.000000 
0.144588 0.825877 0.000000 
0.261189 0.826042 0.000000 
0.125000 1.000000 0.000000 
0.384575 0.653924 0.000000 
0.387336 0.485741 0.000000 
0.039791 0.817938 0.000000 
0.159565 0.652408 0.000000 
0.162169 0.324282 0.000000 
0.164646 0.484840 0.000000 
0.055880 0.482854 0.000000 
0.275045 0.486295 0.000000 
0.388156 0.322533 0.000000 
0.044128 0.168201 0.000000 
0.156610 0.170970 0.000000 
0.152338 0.026963 0.000000 
0.049884 -0.133776 0.000000 
0.272436 0.171331 0.000000 

CELLS 128 512
3  0 25 27 
3  9 26 25 
3  11 27 26 
3  25 26 27 
3  4 28 30 
3  10 29 28 
3  9 30 29 
3  28 29 30 
3  8 31 33 
3  11 32 31 
3  10 33 32 
3  31 32 33 
3  9 29 26 
3  10 32 29 
3  11 26 32 
3  29 32 26 
3  4 34 28 
3  12 35 34 
3  10 28 35 
3  34 35 28 
3  1 36 38 
3  13 37 36 
3  12 38 37 
3  36 37 38 
3  8 33 40 
3  10 39 33 
3  13 40 39 
3  33 39 40 
3  12 37 35 
3  13 39 37 
3  10 35 39 
3  37 39 35 
3  1 41 36 
3  14 42 41 
3  13 36 42 
3  41 42 36 
3  5 43 45 
3  15 44 43 
3  14 45 44 
3  43 44 45 
3  8 40 47 
3  13 46 40 
3  15 47 46 
3  40 46 47 
3  14 44 42 
3  15 46 44 
3  13 42 46 
3  44 46 42 
3  5 48 43 
3  16 49 48 
3  15 43 49 
3  48 49 43 
3  2 50 52 
3  17 51 50 
3  16 52 51 
3  50 51 52 
3  8 47 54 
3  15 53 47 
3  17 54 53 
3  47 53 54 
3  16 51 49 
3  17 53 51 
3  15 49 53 
3  51 53 49 
3  2 55 50 
3  18 56 55 
3  17 50 56 
3  55 56 50 
3  6 57 59 
3  19 58 57 
3  18 59 58 
3  57 58 59 
3  8 54 61 
3  17 60 54 
3  19 61 60 
3  54 60 61 
3  18 58 56 
3  19 60 58 
3  17 56 60 
3  58 60 56 
3  6 62 57 
3  20 63 62 
3  19 57 63 
3  62 63 57 
3  3 64 66 
3  21 65 64 
3  20 66 65 
3  64 65 66 
3  8 61 68 
3  19 67 61 
3  21 68 67 
3  61 67 68 
3  20 65 63 
3  21 67 65 
3  19 63 67 
3  65 67 63 
3  3 69 64 
3  22 70 69 
3  21 64 70 
3  69 70 64 
3  7 71 73 
3  23 72 71 
3  22 73 72 
3  71 72 73 
3  8 68 75 
3  21 74 68 
3  23 75 74 
3  68 74 75 
3  22 72 70 
3  23 74 72 
3  21 70 74 
3  72 74 70 
3  7 76 71 
3  24 77 76 
3  23 71 77 
3  76 77 71 
3  0 27 79 
3  11 78 27 
3  24 79 78 
3  27 78 79 
3  8 75 31 
3  23 80 75 
3  11 31 80 
3  75 80 31 
3  24 78 77 
3  11 80 78 
3  23 77 80 
3  78 80 77 

CELL_TYPES 128
5
5
5
5
5
5
5
5
5
5
5
5
5
5
5
5
5
5
5
5
5
5
5
5
5
5
5
5
5
5
5
5
5
5
5
5
5
5
5
5
5
5
5
5
5
5
5
5
5
5
5
5
5
5
5
5
5
5
5
5
5
5
5
5
5
5
5
5
5
5
5
5
5
5
5
5
5
5
5
5
5
5
5
5
5
5
5
5
5
5
5
5
5
5
5
5
5
5
5
5
5
5
5
5
5
5
5
5
5
5
5
5
5
5
5
5
5
5
5
5
5
5
5
5
5
5
5
5

POINT_DATA 81

SCALARS u_h float 2
LOOKUP_TABLE default
0.109701 -0.261896 
-0.109701 -0.261896 
0.000000 0.000000 
0.000000 0.000000 
-0.000000 -0.094505 
-0.051339 -0.175393 
0.000000 0.000000 
0.051339 -0.175393 
-0.000000 -0.179429 
0.035438 -0.045096 
-0.000000 -0.237318 
0.018769 -0.222583 
-0.035438 -0.045096 
-0.018769 -0.222583 
-0.038986 -0.234855 
-0.024845 -0.175322 
-0.053835 -0.103304 
-0.020165 -0.095769 
0.000000 0.000000 
-0.000000 -0.096221 
0.000000 0.000000 
0.020165 -0.095769 
0.053835 -0.103304 
0.024845 -0.175322 
0.038986 -0.234855 
0.103876 -0.201564 
0.002424 -0.234159 
0.032806 -0.230348 
0.000000 -0.254041 
0.003586 -0.248369 
0.019865 -0.003711 
0.012250 -0.208935 
0.009375 -0.233536 
-0.000000 -0.211778 
-0.019865 -0.003711 
-0.003586 -0.248369 
-0.032806 -0.230348 
-0.002424 -0.234159 
-0.103876 -0.201564 
-0.009375 -0.233536 
-0.012250 -0.208935 
-0.049884 -0.258776 
-0.027338 -0.223037 
-0.037169 -0.175718 
-0.031610 -0.204030 
-0.044128 -0.206799 
-0.022436 -0.203669 
-0.013156 -0.177467 
-0.055880 -0.142146 
-0.039646 -0.140160 
-0.019588 -0.049123 
-0.034565 -0.097592 
-0.039791 -0.057062 
-0.025045 -0.138705 
-0.012336 -0.139259 
0.000000 0.000000 
-0.011189 -0.048958 
-0.000000 -0.049387 
-0.005245 -0.049335 
0.000000 0.000000 
-0.009575 -0.096076 
-0.000000 -0.139844 
0.000000 0.000000 
0.005245 -0.049335 
0.019588 -0.049123 
0.011189 -0.048958 
0.000000 0.000000 
0.009575 -0.096076 
0.012336 -0.139259 
0.039791 -0.057062 
0.034565 -0.097592 
0.037169 -0.175718 
0.039646 -0.140160 
0.055880 -0.142146 
0.025045 -0.138705 
0.013156 -0.177467 
0.044128 -0.206799 
0.031610 -0.204030 
0.027338 -0.223037 
0.049884 -0.258776 
0.022436 -0.203669 

CELL_DATA 128

SCALARS epsilon float 4
LOOKUP_TABLE default
0.423567 0.170487 0.000000 -0.001321
28.945471 83.257234 0.000000 49.065118
-0.252847 0.093792 0.000000 0.073117
0.209540 -0.280076 0.000000 -0.349623
-0.171094 20.173336 0.000000 1.267535
-0.029097 0.125813 0.000000 -0.019996
-0.169996 4.395807 0.000000 0.088339
-0.013080 4.116039 0.000000 0.235107
-0.102749 0.226923 0.000000 -0.008928
-0.075930 0.182858 0.000000 -0.024283
-0.077796 0.184415 0.000000 -0.012479
-0.102043 0.178659 0.000000 0.003012
0.182033 6.910417 0.000000 1.038039
-0.075453 0.113465 0.000000 0.011310
-0.058556 0.103205 0.000000 0.030148
0.014739 0.121320 0.000000 -0.028135
-0.171094 20.173336 0.000000 -1.267535
-0.169996 4.395807 0.000000 -0.088339
-0.029097 0.125813 0.000000 0.019996
-0.013080 4.116039 0.000000 -0.235107
0.423567 0.170487 0.000000 0.001321
-0.252847 0.093792 0.000000 -0.073117
28.945471 83.257234 0.000000 -49.065118
0.209540 -0.280076 0.000000 0.349623
-0.102749 0.226923 0.000000 0.008928
-0.077796 0.184415 0.000000 0.012479
-0.075930 0.182858 0.000000 0.024283
-0.102043 0.178659 0.000000 -0.003012
0.182033 6.910417 0.000000 -1.038039
-0.058556 0.103205 0.000000 -0.030148
-0.075453 0.113465 0.000000 -0.011310
0.014739 0.121320 0.000000 0.028135
0.085036 0.165998 0.000000 0.161526
-0.086743 0.184699 0.000000 0.007407
-0.069748 0.056947 0.000000 0.021703
-0.134026 0.097870 0.000000 -0.079925
-0.118194 0.221091 0.000000 -0.030195
-0.102716 0.201599 0.000000 -0.025109
-0.105219 0.199509 0.000000 -0.031027
-0.105169 0.201057 0.000000 -0.032794
-0.110586 0.221534 0.000000 0.002300
-0.083233 0.142001 0.000000 0.002464
-0.097395 0.202348 0.000000 -0.003348
-0.084493 0.222264 0.000000 0.012912
-0.100002 0.141773 0.000000 -0.059097
-0.075972 0.201898 0.000000 -0.011213
-0.070616 0.139970 0.000000 -0.017044
-0.075647 0.140610 0.000000 -0.019364
-0.119073 0.232244 0.000000 -0.018567
-0.137792 0.265484 0.000000 0.002946
-0.103307 0.245942 0.000000 -0.011670
-0.138236 0.245823 0.000000 -0.016874
-0.125449 0.378594 0.000000 0.148700
-0.115574 0.319824 0.000000 0.057216
-0.156709 0.311367 0.000000 0.045296
-0.162682 0.325916 0.000000 0.043591
-0.110778 0.261516 0.000000 0.009392
-0.097815 0.252366 0.000000 0.005727
-0.106392 0.288220 0.000000 0.021936
-0.106783 0.261493 0.000000 0.005127
-0.163422 0.288642 0.000000 0.005972
-0.120710 0.288869 0.000000 0.015278
-0.123527 0.252273 0.000000 -0.005284
-0.122530 0.286724 0.000000 0.017255
0.006328 0.321913 0.000000 0.072116
0.002069 0.321041 0.000000 0.041211
-0.067797 0.309642 0.000000 0.035157
-0.062011 0.322060 0.000000 0.076835
0.000000 0.323303 0.000000 0.000000
-0.042837 0.309697 0.000000 0.000151
0.000453 0.323029 0.000000 0.019299
-0.042357 0.323017 0.000000 0.020294
-0.103498 0.269441 0.000000 0.001758
-0.088167 0.289682 0.000000 0.012176
-0.079512 0.292170 0.000000 0.000425
-0.103416 0.289649 0.000000 0.013167
-0.046602 0.320856 0.000000 0.044351
-0.079170 0.309171 0.000000 0.017784
-0.086793 0.309445 0.000000 0.037205
-0.048410 0.309129 0.000000 0.017930
0.000000 0.323303 0.000000 0.000000
0.000453 0.323029 0.000000 -0.019299
-0.042837 0.309697 0.000000 -0.000151
-0.042357 0.323017 0.000000 -0.020294
0.006328 0.321913 0.000000 -0.072116
-0.067797 0.309642 0.000000 -0.035157
0.002069 0.321041 0.000000 -0.041211
-0.062011 0.322060 0.000000 -0.076835
-0.103498 0.269441 0.000000 -0.001758
-0.079512 0.292170 0.000000 -0.000425
-0.088167 0.289682 0.000000 -0.012176
-0.103416 0.289649 0.000000 -0.013167
-0.046602 0.320856 0.000000 -0.044351
-0.086793 0.309445 0.000000 -0.037205
-0.079170 0.309171 0.000000 -0.017784
-0.048410 0.309129 0.000000 -0.017930
-0.125449 0.378594 0.000000 -0.148700
-0.156709 0.311367 0.000000 -0.045296
-0.115574 0.319824 0.000000 -0.057216
-0.162682 0.325916 0.000000 -0.043591
-0.119073 0.232244 0.000000 0.018567
-0.103307 0.245942 0.000000 0.011670
-0.137792 0.265484 0.000000 -0.002946
-0.138236 0.245823 0.000000 0.016874
-0.110778 0.261516 0.000000 -0.009392
-0.106392 0.288220 0.000000 -0.021936
-0.097815 0.252366 0.000000 -0.005727
-0.106783 0.261493 0.000000 -0.005127
-0.163422 0.288642 0.000000 -0.005972
-0.123527 0.252273 0.000000 0.005284
-0.120710 0.288869 0.000000 -0.015278
-0.122530 0.286724 0.000000 -0.017255
-0.118194 0.221091 0.000000 0.030195
-0.105219 0.199509 0.000000 0.031027
-0.102716 0.201599 0.000000 0.025109
-0.105169 0.201057 0.000000 0.032794
0.085036 0.165998 0.000000 -0.161526
-0.069748 0.056947 0.000000 -0.021703
-0.086743 0.184699 0.000000 -0.007407
-0.134026 0.097870 0.000000 0.079925
-0.110586 0.221534 0.000000 -0.002300
-0.097395 0.202348 0.000000 0.003348
-0.083233 0.142001 0.000000 -0.002464
-0.084493 0.222264 0.000000 -0.012912
-0.100002 0.141773 0.000000 0.059097
-0.070616 0.139970 0.000000 0.017044
-0.075972 0.201898 0.000000 0.011213
-0.075647 0.140610 0.000000 0.019364

SCALARS sigma float 4
LOOKUP_TABLE default
15.925629 9.224318 5.940539 4.155282
21689.190776 -8581.924539 1122.027052 37333.459715
-3.975354 0.131640 -1.590551 0.823602
2.052744 2.264367 -0.705356 -3.374643
224.928193 2983.114563 200.022423 1676.153516
0.489003 3.388081 0.967153 -0.443138
30.803628 354.870081 42.258102 -46.476006
40.062086 330.263749 41.029585 9.030844
-0.392243 5.983657 1.241736 -0.229946
-0.130543 4.735050 1.069281 -0.688122
-0.187107 4.784592 1.066191 -0.299155
-0.810291 4.306543 0.766162 -0.033789
82.144090 716.525518 70.924502 56.378350
-0.794457 2.489648 0.380121 0.105283
-0.520696 2.405556 0.446490 0.276851
1.670675 3.700678 1.360590 -0.803538
224.928193 2983.114563 200.022423 -1676.153516
30.803628 354.870081 42.258102 46.476006
0.489003 3.388081 0.967153 0.443138
40.062086 330.263749 41.029585 -9.030844
15.925629 9.224318 5.940539 -4.155282
-3.975354 0.131640 -1.590551 -0.823602
21689.190775 -8581.924539 1122.027052 -37333.459715
2.052744 2.264367 -0.705356 3.374643
-0.392243 5.983657 1.241736 0.229946
-0.187107 4.784592 1.066191 0.299155
-0.130543 4.735050 1.069281 0.688122
-0.810291 4.306543 0.766162 0.033789
82.144090 716.525518 70.924502 -56.378350
-0.520696 2.405556 0.446490 -0.276851
-0.794457 2.489648 0.380121 -0.105283
1.670675 3.700678 1.360590 0.803538
3.176089 7.194891 2.510346 1.368318
-0.411756 4.687736 0.979558 -0.238135
-1.179789 0.866365 -0.128007 0.326829
-1.863789 1.262797 -0.361563 -1.425819
-0.794447 5.615803 1.028969 -0.421031
-0.618342 5.104318 0.988825 -0.378999
-0.684627 5.003626 0.942901 -0.536546
-0.669083 5.060788 0.958881 -0.562928
-0.620865 5.696583 1.109476 0.099752
-0.707769 3.301635 0.587678 0.152918
-0.492265 5.177498 1.049530 0.018107
0.000482 6.032723 1.377706 0.377002
-1.004571 3.129197 0.417703 -1.115262
0.012724 5.418172 1.259255 -0.180927
-0.429378 3.389279 0.693540 -0.269038
-0.543248 3.355662 0.649631 -0.300371
-0.716885 5.988666 1.131716 -0.254122
-0.837092 6.967449 1.276924 -0.037323
-0.238036 6.672021 1.426356 -0.185389
-1.009073 6.242285 1.075878 -0.307973
0.267128 12.202943 2.531451 1.568725
0.117053 9.422737 2.042503 0.731278
-0.871418 8.542711 1.546583 0.350124
-0.882786 9.032697 1.632336 0.204225
-0.270895 7.153653 1.507378 0.213786
-0.051229 6.972179 1.545511 0.167440
0.066438 8.229356 1.818273 0.343022
-0.180709 7.202090 1.547101 0.096614
-1.174381 7.517380 1.252200 -0.160574
-0.262472 8.070688 1.681596 0.139373
-0.639827 6.653875 1.287461 -0.130512
-0.321893 7.967477 1.641940 0.183310
3.386178 11.110255 3.282405 1.182705
3.265018 10.930776 3.231094 0.675857
1.211973 9.571758 2.418449 0.527372
1.468440 10.258840 2.600491 1.161535
3.233035 10.952399 3.233035 0.000000
1.879952 9.859260 2.668592 0.004823
3.242234 10.956592 3.234812 0.316509
2.019511 10.407792 2.806593 0.320765
-0.033660 7.540165 1.659436 0.049684
0.516898 8.506512 2.015153 0.194685
0.754364 8.707931 2.126582 0.012795
0.148913 8.313919 1.862328 0.217830
1.880729 10.305338 2.742543 0.709053
0.918768 9.384177 2.300013 0.274160
0.729834 9.324824 2.226517 0.567847
1.723270 9.773623 2.607194 0.297002
3.233035 10.952399 3.233035 0.000000
3.242234 10.956592 3.234812 -0.316509
1.879952 9.859260 2.668592 -0.004823
2.019511 10.407792 2.806593 -0.320765
3.386178 11.110255 3.282405 -1.182705
1.211973 9.571758 2.418449 -0.527372
3.265018 10.930776 3.231094 -0.675857
1.468440 10.258840 2.600491 -1.161535
-0.033660 7.540165 1.659436 -0.049684
0.754364 8.707931 2.126582 -0.012795
0.516898 8.506512 2.015153 -0.194685
0.148913 8.313919 1.862328 -0.217830
1.880729 10.305338 2.742543 -0.709053
0.729834 9.324824 2.226517 -0.567847
0.918768 9.384177 2.300013 -0.274160
1.723270 9.773623 2.607194 -0.297002
0.267128 12.202943 2.531451 -1.568725
-0.871418 8.542711 1.546583 -0.350124
0.117053 9.422737 2.042503 -0.731278
-0.882786 9.032697 1.632336 -0.204225
-0.716885 5.988666 1.131716 0.254122
-0.238036 6.672021 1.426356 0.185389
-0.837092 6.967449 1.276924 0.037323
-1.009073 6.242285 1.075878 0.307973
-0.270895 7.153653 1.507378 -0.213786
0.066438 8.229356 1.818273 -0.343022
-0.051229 6.972179 1.545511 -0.167440
-0.180709 7.202090 1.547101 -0.096614
-1.174381 7.517380 1.252200 0.160574
-0.639827 6.653875 1.287461 0.130512
-0.262472 8.070688 1.681596 -0.139373
-0.321893 7.967477 1.641940 -0.183310
-0.794447 5.615803 1.028969 0.421031
-0.684627 5.003626 0.942901 0.536546
-0.618342 5.104318 0.988825 0.378999
-0.669083 5.060788 0.958881 0.562928
3.176089 7.194891 2.510346 -1.368318
-1.179789 0.866365 -0.128007 -0.326829
-0.411756 4.687736 0.979558 0.238135
-1.863789 1.262797 -0.361563 1.425819
-0.620865 5.696583 1.109476 -0.099752
-0.492265 5.177498 1.049530 -0.018107
-0.707769 3.301635 0.587678 -0.152918
0.000482 6.032723 1.377706 -0.377002
-1.004571 3.129197 0.417703 1.115262
-0.429378 3.389279 0.693540 0.269038
0.012724 5.418172 1.259255 0.180927
-0.543248 3.355662 0.649631 0.300371

