# vtk DataFile Version 2.0
Unstructured Grid Example
ASCII
DATASET UNSTRUCTURED_GRID

POINTS 1089 float
0.066819 -0.269645 0.000000 
0.933181 -0.269645 0.000000 
1.000000 1.000000 0.000000 
0.000000 1.000000 0.000000 
0.500000 -0.088929 0.000000 
0.944567 0.320861 0.000000 
0.500000 1.000000 0.000000 
0.055433 0.320861 0.000000 
0.500000 0.324595 0.000000 
0.275570 -0.105064 0.000000 
0.500000 0.020376 0.000000 
0.275043 0.019851 0.000000 
0.724430 -0.105064 0.000000 
0.724957 0.019851 0.000000 
0.958070 0.014318 0.000000 
0.723596 0.322189 0.000000 
0.943240 0.644055 0.000000 
0.729573 0.653369 0.000000 
0.750000 1.000000 0.000000 
0.500000 0.654623 0.000000 
0.250000 1.000000 0.000000 
0.270427 0.653369 0.000000 
0.056760 0.644055 0.000000 
0.276404 0.322189 0.000000 
0.041930 0.014318 0.000000 
0.194447 -0.239851 0.000000 
0.279980 -0.118522 0.000000 
0.160414 -0.119626 0.000000 
0.500000 -0.121497 0.000000 
0.390624 -0.124972 0.000000 
0.351467 -0.074840 0.000000 
0.388060 0.168258 0.000000 
0.388574 0.019285 0.000000 
0.500000 0.168861 0.000000 
0.648533 -0.074840 0.000000 
0.609376 -0.124972 0.000000 
0.839586 -0.119626 0.000000 
0.720020 -0.118522 0.000000 
0.805553 -0.239851 0.000000 
0.611426 0.019285 0.000000 
0.611940 0.168258 0.000000 
0.956683 -0.133089 0.000000 
0.842232 0.017213 0.000000 
0.834239 0.319594 0.000000 
0.838576 0.164332 0.000000 
0.951491 0.165542 0.000000 
0.724772 0.166799 0.000000 
0.612010 0.324159 0.000000 
0.940496 0.479771 0.000000 
0.833258 0.481882 0.000000 
0.854002 0.824734 0.000000 
0.838923 0.650647 0.000000 
0.957474 0.815093 0.000000 
0.724547 0.484900 0.000000 
0.613011 0.486628 0.000000 
0.875000 1.000000 0.000000 
0.738777 0.825673 0.000000 
0.500000 0.825854 0.000000 
0.619973 0.825794 0.000000 
0.625000 1.000000 0.000000 
0.615704 0.654314 0.000000 
0.500000 0.487166 0.000000 
0.375000 1.000000 0.000000 
0.380027 0.825794 0.000000 
0.145998 0.824734 0.000000 
0.261223 0.825673 0.000000 
0.125000 1.000000 0.000000 
0.384296 0.654314 0.000000 
0.386989 0.486628 0.000000 
0.042526 0.815093 0.000000 
0.161077 0.650647 0.000000 
0.165761 0.319594 0.000000 
0.166742 0.481882 0.000000 
0.059504 0.479771 0.000000 
0.275453 0.484900 0.000000 
0.387990 0.324159 0.000000 
0.048509 0.165542 0.000000 
0.161424 0.164332 0.000000 
0.157768 0.017213 0.000000 
0.043317 -0.133089 0.000000 
0.275228 0.166799 0.000000 
0.128832 -0.257456 0.000000 
0.168031 -0.183808 0.000000 
0.110647 -0.194481 0.000000 
0.230146 -0.109019 0.000000 
0.221399 -0.174501 0.000000 
0.254951 -0.182507 0.000000 
0.217369 -0.049311 0.000000 
0.219979 -0.114101 0.000000 
0.276493 -0.050258 0.000000 
0.500000 -0.095482 0.000000 
0.430724 -0.062899 0.000000 
0.424500 -0.076308 0.000000 
0.444190 -0.051397 0.000000 
0.444832 -0.120751 0.000000 
0.500000 -0.050940 0.000000 
0.326535 -0.151988 0.000000 
0.358809 -0.082003 0.000000 
0.296823 -0.115580 0.000000 
0.444000 0.245809 0.000000 
0.444017 0.168720 0.000000 
0.500000 0.245889 0.000000 
0.332263 0.020329 0.000000 
0.388183 0.092948 0.000000 
0.331788 0.092983 0.000000 
0.500000 0.093646 0.000000 
0.444035 0.093438 0.000000 
0.444066 0.020024 0.000000 
0.333492 -0.118759 0.000000 
0.389298 -0.053154 0.000000 
0.333442 -0.050042 0.000000 
0.575500 -0.076308 0.000000 
0.569276 -0.062899 0.000000 
0.703177 -0.115580 0.000000 
0.641191 -0.082003 0.000000 
0.673465 -0.151988 0.000000 
0.555168 -0.120751 0.000000 
0.555810 -0.051397 0.000000 
0.889353 -0.194481 0.000000 
0.831969 -0.183808 0.000000 
0.871168 -0.257456 0.000000 
0.723507 -0.050258 0.000000 
0.780021 -0.114101 0.000000 
0.782631 -0.049311 0.000000 
0.745049 -0.182507 0.000000 
0.778601 -0.174501 0.000000 
0.769854 -0.109019 0.000000 
0.555983 0.168720 0.000000 
0.556000 0.245809 0.000000 
0.555934 0.020024 0.000000 
0.555965 0.093438 0.000000 
0.668212 0.092983 0.000000 
0.611817 0.092948 0.000000 
0.667737 0.020329 0.000000 
0.666508 -0.118759 0.000000 
0.666558 -0.050042 0.000000 
0.610702 -0.053154 0.000000 
0.948446 -0.203888 0.000000 
0.898201 -0.127069 0.000000 
0.900552 0.014749 0.000000 
0.901068 -0.057165 0.000000 
0.959135 -0.059961 0.000000 
0.842206 -0.052637 0.000000 
0.783416 0.019441 0.000000 
0.889295 0.319183 0.000000 
0.892090 0.240762 0.000000 
0.947750 0.242645 0.000000 
0.780234 0.242221 0.000000 
0.836257 0.241039 0.000000 
0.779051 0.320833 0.000000 
0.955166 0.089471 0.000000 
0.895226 0.163830 0.000000 
0.898268 0.088460 0.000000 
0.611946 0.245339 0.000000 
0.556035 0.324636 0.000000 
0.725207 0.092205 0.000000 
0.668196 0.167793 0.000000 
0.667900 0.323357 0.000000 
0.667993 0.244630 0.000000 
0.724103 0.243509 0.000000 
0.840762 0.089642 0.000000 
0.781660 0.165621 0.000000 
0.782893 0.091254 0.000000 
0.941860 0.399663 0.000000 
0.887369 0.399011 0.000000 
0.887910 0.563303 0.000000 
0.886766 0.480369 0.000000 
0.940800 0.561204 0.000000 
0.833112 0.399895 0.000000 
0.778613 0.401322 0.000000 
0.922369 0.911637 0.000000 
0.907741 0.822186 0.000000 
0.972370 0.904754 0.000000 
0.785008 0.652368 0.000000 
0.845199 0.737183 0.000000 
0.790352 0.738560 0.000000 
0.948459 0.728534 0.000000 
0.897638 0.734160 0.000000 
0.891312 0.647874 0.000000 
0.612327 0.404654 0.000000 
0.556201 0.405102 0.000000 
0.723644 0.402725 0.000000 
0.668183 0.403866 0.000000 
0.670666 0.569371 0.000000 
0.669068 0.485936 0.000000 
0.726493 0.568522 0.000000 
0.835063 0.565493 0.000000 
0.781341 0.567260 0.000000 
0.779282 0.483515 0.000000 
0.937500 1.000000 0.000000 
0.864441 0.912497 0.000000 
0.744339 0.912646 0.000000 
0.804759 0.912646 0.000000 
0.812500 1.000000 0.000000 
0.797125 0.825444 0.000000 
0.733739 0.739176 0.000000 
0.500000 0.912597 0.000000 
0.561265 0.912588 0.000000 
0.562500 1.000000 0.000000 
0.558930 0.739764 0.000000 
0.560052 0.825821 0.000000 
0.500000 0.739831 0.000000 
0.687500 1.000000 0.000000 
0.622461 0.912597 0.000000 
0.683518 0.912620 0.000000 
0.556580 0.487024 0.000000 
0.500000 0.405203 0.000000 
0.673010 0.653960 0.000000 
0.614133 0.569910 0.000000 
0.500000 0.570354 0.000000 
0.557164 0.570220 0.000000 
0.557954 0.654518 0.000000 
0.679615 0.825757 0.000000 
0.617679 0.739661 0.000000 
0.676042 0.739488 0.000000 
0.437500 1.000000 0.000000 
0.438735 0.912588 0.000000 
0.316482 0.912620 0.000000 
0.377539 0.912597 0.000000 
0.312500 1.000000 0.000000 
0.439948 0.825821 0.000000 
0.441070 0.739764 0.000000 
0.077631 0.911637 0.000000 
0.135559 0.912497 0.000000 
0.062500 1.000000 0.000000 
0.266261 0.739176 0.000000 
0.202875 0.825444 0.000000 
0.209648 0.738560 0.000000 
0.187500 1.000000 0.000000 
0.195241 0.912646 0.000000 
0.255661 0.912646 0.000000 
0.443420 0.487024 0.000000 
0.443799 0.405102 0.000000 
0.442046 0.654518 0.000000 
0.442836 0.570220 0.000000 
0.329334 0.569371 0.000000 
0.385867 0.569910 0.000000 
0.326990 0.653960 0.000000 
0.320385 0.825757 0.000000 
0.323958 0.739488 0.000000 
0.382321 0.739661 0.000000 
0.027630 0.904754 0.000000 
0.092259 0.822186 0.000000 
0.108688 0.647874 0.000000 
0.102362 0.734160 0.000000 
0.051541 0.728534 0.000000 
0.154801 0.737183 0.000000 
0.214992 0.652368 0.000000 
0.110705 0.319183 0.000000 
0.112631 0.399011 0.000000 
0.058140 0.399663 0.000000 
0.221387 0.401322 0.000000 
0.166888 0.399895 0.000000 
0.220949 0.320833 0.000000 
0.059200 0.561204 0.000000 
0.113234 0.480369 0.000000 
0.112090 0.563303 0.000000 
0.387673 0.404654 0.000000 
0.443965 0.324636 0.000000 
0.273507 0.568522 0.000000 
0.330932 0.485936 0.000000 
0.332100 0.323357 0.000000 
0.331817 0.403866 0.000000 
0.276356 0.402725 0.000000 
0.164937 0.565493 0.000000 
0.220718 0.483515 0.000000 
0.218659 0.567260 0.000000 
0.052250 0.242645 0.000000 
0.107910 0.240762 0.000000 
0.101732 0.088460 0.000000 
0.104774 0.163830 0.000000 
0.044834 0.089471 0.000000 
0.163743 0.241039 0.000000 
0.219766 0.242221 0.000000 
0.101799 -0.127069 0.000000 
0.051554 -0.203888 0.000000 
0.216584 0.019441 0.000000 
0.157794 -0.052637 0.000000 
0.040865 -0.059961 0.000000 
0.098932 -0.057165 0.000000 
0.099448 0.014749 0.000000 
0.388054 0.245339 0.000000 
0.275897 0.243509 0.000000 
0.332007 0.244630 0.000000 
0.331804 0.167793 0.000000 
0.274793 0.092205 0.000000 
0.159238 0.089642 0.000000 
0.217107 0.091254 0.000000 
0.218340 0.165621 0.000000 
0.097799 -0.263544 0.000000 
0.119783 -0.226058 0.000000 
0.088816 -0.232106 0.000000 
0.181485 -0.211762 0.000000 
0.148788 -0.220777 0.000000 
0.161637 -0.248718 0.000000 
0.135380 -0.157100 0.000000 
0.139407 -0.189294 0.000000 
0.163970 -0.151748 0.000000 
0.256284 -0.107193 0.000000 
0.256554 -0.147735 0.000000 
0.262398 -0.146886 0.000000 
0.250545 -0.146775 0.000000 
0.223983 -0.140420 0.000000 
0.256508 -0.112763 0.000000 
0.227816 -0.217387 0.000000 
0.240069 -0.179011 0.000000 
0.209380 -0.204205 0.000000 
0.246297 -0.014880 0.000000 
0.246999 -0.049767 0.000000 
0.275713 -0.015255 0.000000 
0.190078 -0.116609 0.000000 
0.218682 -0.081847 0.000000 
0.188878 -0.084305 0.000000 
0.278171 -0.084417 0.000000 
0.248451 -0.082423 0.000000 
0.250026 -0.116156 0.000000 
0.194800 -0.178313 0.000000 
0.220799 -0.144380 0.000000 
0.193473 -0.148309 0.000000 
0.500000 -0.091106 0.000000 
0.460114 -0.088058 0.000000 
0.460587 -0.087427 0.000000 
0.466123 -0.087266 0.000000 
0.461378 -0.087107 0.000000 
0.500000 -0.105027 0.000000 
0.387825 -0.067706 0.000000 
0.427114 -0.067581 0.000000 
0.388548 -0.069778 0.000000 
0.471975 -0.015279 0.000000 
0.472155 -0.050599 0.000000 
0.500000 -0.015272 0.000000 
0.418258 -0.122324 0.000000 
0.444302 -0.086089 0.000000 
0.416954 -0.087459 0.000000 
0.500000 -0.085766 0.000000 
0.472032 -0.085031 0.000000 
0.472811 -0.118321 0.000000 
0.306059 -0.123888 0.000000 
0.309949 -0.136348 0.000000 
0.290131 -0.108322 0.000000 
0.352167 -0.079877 0.000000 
0.339051 -0.117991 0.000000 
0.344220 -0.116434 0.000000 
0.342523 -0.119175 0.000000 
0.326718 -0.096844 0.000000 
0.372998 -0.104761 0.000000 
0.437281 -0.092087 0.000000 
0.401250 -0.098282 0.000000 
[...]
POINT_DATA 1089

SCALARS u_h float 2
LOOKUP_TABLE default
0.066819 -0.269645 
-0.066819 -0.269645 
0.000000 0.000000 
0.000000 0.000000 
0.000000 -0.088929 
-0.055433 -0.179139 
0.000000 0.000000 
0.055433 -0.179139 
-0.000000 -0.175405 
0.025570 -0.105064 
-0.000000 -0.229624 
0.025043 -0.230149 
-0.025570 -0.105064 
-0.025043 -0.230149 
-0.041930 -0.235682 
-0.026404 -0.177811 
-0.056760 -0.105945 
-0.020427 -0.096631 
0.000000 0.000000 
0.000000 -0.095377 
0.000000 0.000000 
0.020427 -0.096631 
0.056760 -0.105945 
0.026404 -0.177811 
0.041930 -0.235682 
0.069447 -0.239851 
0.029980 -0.243522 
0.035414 -0.244626 
0.000000 -0.246497 
0.015624 -0.249972 
-0.023533 -0.074840 
0.013060 -0.206742 
0.013574 -0.230715 
-0.000000 -0.206139 
0.023533 -0.074840 
-0.015624 -0.249972 
-0.035414 -0.244626 
-0.029980 -0.243522 
-0.069447 -0.239851 
-0.013574 -0.230715 
-0.013060 -0.206742 
-0.043317 -0.258089 
-0.032768 -0.232787 
-0.040761 -0.180406 
-0.036424 -0.210668 
-0.048509 -0.209458 
-0.025228 -0.208201 
-0.012990 -0.175841 
-0.059504 -0.145229 
-0.041742 -0.143118 
-0.020998 -0.050266 
-0.036077 -0.099353 
-0.042526 -0.059907 
-0.025453 -0.140100 
-0.011989 -0.138372 
0.000000 0.000000 
-0.011223 -0.049327 
0.000000 -0.049146 
-0.005027 -0.049206 
0.000000 0.000000 
-0.009296 -0.095686 
-0.000000 -0.137834 
0.000000 0.000000 
0.005027 -0.049206 
0.020998 -0.050266 
0.011223 -0.049327 
0.000000 0.000000 
0.009296 -0.095686 
0.011989 -0.138372 
0.042526 -0.059907 
0.036077 -0.099353 
0.040761 -0.180406 
0.041742 -0.143118 
0.059504 -0.145229 
0.025453 -0.140100 
0.012990 -0.175841 
0.048509 -0.209458 
0.036424 -0.210668 
0.032768 -0.232787 
0.043317 -0.258089 
0.025228 -0.208201 
0.066332 -0.257456 
0.043031 -0.246308 
0.048147 -0.256981 
-0.019854 -0.171519 
0.033899 -0.237001 
0.067451 -0.182507 
0.029869 -0.236811 
0.032479 -0.239101 
0.026493 -0.237758 
0.000000 -0.157982 
-0.006776 -0.125399 
-0.013000 -0.076308 
0.006690 -0.238897 
0.007332 -0.245751 
-0.000000 -0.238440 
0.014035 -0.151988 
-0.016191 -0.144503 
-0.015677 -0.178080 
0.006500 -0.191691 
0.006517 -0.206280 
-0.000000 -0.191611 
0.019763 -0.229671 
0.013183 -0.219552 
0.019288 -0.219517 
-0.000000 -0.218854 
0.006535 -0.219062 
0.006566 -0.229976 
0.020992 -0.243759 
0.014298 -0.240654 
0.020942 -0.237542 
0.013000 -0.076308 
0.006776 -0.125399 
0.015677 -0.178080 
0.016191 -0.144503 
-0.014035 -0.151988 
-0.007332 -0.245751 
-0.006690 -0.238897 
-0.048147 -0.256981 
-0.043031 -0.246308 
-0.066332 -0.257456 
-0.026493 -0.237758 
-0.032479 -0.239101 
-0.029869 -0.236811 
-0.067451 -0.182507 
-0.033899 -0.237001 
0.019854 -0.171519 
-0.006517 -0.206280 
-0.006500 -0.191691 
-0.006566 -0.229976 
-0.006535 -0.219062 
-0.019288 -0.219517 
-0.013183 -0.219552 
-0.019763 -0.229671 
-0.020992 -0.243759 
-0.020942 -0.237542 
-0.014298 -0.240654 
-0.051554 -0.266388 
-0.039299 -0.252069 
-0.036948 -0.235251 
-0.036432 -0.244665 
-0.040865 -0.247461 
-0.032794 -0.240137 
-0.029084 -0.230559 
-0.048205 -0.180817 
-0.045410 -0.196738 
-0.052250 -0.194855 
-0.032266 -0.195279 
-0.038743 -0.196461 
-0.033449 -0.179167 
-0.044834 -0.223029 
-0.042274 -0.211170 
-0.039232 -0.224040 
-0.013054 -0.192161 
-0.006465 -0.175364 
-0.024793 -0.220295 
-0.019304 -0.207207 
-0.019600 -0.176643 
-0.019507 -0.192870 
-0.025897 -0.193991 
-0.034238 -0.222858 
-0.030840 -0.209379 
-0.029607 -0.221246 
-0.058140 -0.162837 
-0.050131 -0.163489 
-0.049590 -0.124197 
-0.050734 -0.144631 
-0.059200 -0.126296 
-0.041888 -0.162605 
-0.033887 -0.161178 
-0.015131 -0.025863 
-0.029759 -0.052814 
-0.027630 -0.032746 
-0.027492 -0.097632 
-0.029801 -0.075317 
-0.022148 -0.073940 
-0.051541 -0.083966 
-0.039862 -0.078340 
-0.046188 -0.102126 
-0.012673 -0.157846 
-0.006299 -0.157398 
-0.026356 -0.159775 
-0.019317 -0.158634 
-0.016834 -0.118129 
-0.018432 -0.139064 
-0.023507 -0.118978 
-0.039937 -0.122007 
-0.031159 -0.120240 
-0.033218 -0.141485 
0.000000 0.000000 
-0.010559 -0.025003 
-0.005661 -0.024854 
-0.007741 -0.024854 
0.000000 0.000000 
-0.015375 -0.049556 
-0.016261 -0.073324 
0.000000 -0.024903 
-0.001235 -0.024912 
0.000000 0.000000 
-0.003570 -0.072736 
-0.002448 -0.049179 
0.000000 -0.072669 
0.000000 0.000000 
-0.002539 -0.024903 
-0.003982 -0.024880 
-0.005920 -0.137976 
-0.000000 -0.157297 
-0.014490 -0.096040 
-0.010867 -0.117590 
-0.000000 -0.117146 
-0.005336 -0.117280 
-0.004546 -0.095482 
-0.007885 -0.049243 
-0.007321 -0.072839 
-0.011458 -0.073012 
0.000000 0.000000 
0.001235 -0.024912 
0.003982 -0.024880 
0.002539 -0.024903 
0.000000 0.000000 
0.002448 -0.049179 
0.003570 -0.072736 
0.015131 -0.025863 
0.010559 -0.025003 
0.000000 0.000000 
0.016261 -0.073324 
0.015375 -0.049556 
0.022148 -0.073940 
0.000000 0.000000 
0.007741 -0.024854 
0.005661 -0.024854 
0.005920 -0.137976 
0.006299 -0.157398 
0.004546 -0.095482 
0.005336 -0.117280 
0.016834 -0.118129 
0.010867 -0.117590 
0.014490 -0.096040 
0.007885 -0.049243 
0.011458 -0.073012 
0.007321 -0.072839 
0.027630 -0.032746 
0.029759 -0.052814 
0.046188 -0.102126 
0.039862 -0.078340 
0.051541 -0.083966 
0.029801 -0.075317 
0.027492 -0.097632 
0.048205 -0.180817 
0.050131 -0.163489 
0.058140 -0.162837 
0.033887 -0.161178 
0.041888 -0.162605 
0.033449 -0.179167 
0.059200 -0.126296 
0.050734 -0.144631 
0.049590 -0.124197 
0.012673 -0.157846 
0.006465 -0.175364 
0.023507 -0.118978 
0.018432 -0.139064 
0.019600 -0.176643 
0.019317 -0.158634 
0.026356 -0.159775 
0.039937 -0.122007 
0.033218 -0.141485 
0.031159 -0.120240 
0.052250 -0.194855 
0.045410 -0.196738 
0.039232 -0.224040 
0.042274 -0.211170 
0.044834 -0.223029 
0.038743 -0.196461 
0.032266 -0.195279 
0.039299 -0.252069 
0.051554 -0.266388 
0.029084 -0.230559 
0.032794 -0.240137 
0.040865 -0.247461 
0.036432 -0.244665 
0.036948 -0.235251 
0.013054 -0.192161 
0.025897 -0.193991 
0.019507 -0.192870 
0.019304 -0.207207 
0.024793 -0.220295 
0.034238 -0.222858 
0.029607 -0.221246 
0.030840 -0.209379 
0.066549 -0.263544 
0.057283 -0.257308 
0.057566 -0.263356 
0.056485 -0.243012 
0.055038 -0.252027 
0.067887 -0.248718 
0.041630 -0.250850 
0.045657 -0.251794 
0.038970 -0.245498 
0.006284 -0.138443 
0.037804 -0.178985 
0.043648 -0.146886 
0.031795 -0.240525 
0.005233 -0.202920 
0.006508 -0.206513 
0.071566 -0.217387 
0.052569 -0.210261 
0.053130 -0.235455 
0.027547 -0.233630 
0.028249 -0.237267 
0.025713 -0.234005 
0.033828 -0.241609 
0.031182 -0.238097 
0.032628 -0.240555 
0.028171 -0.240667 
0.029701 -0.238673 
0.031276 -0.241156 
0.038550 -0.240813 
0.033299 -0.238130 
0.037223 -0.242059 
0.000000 -0.122356 
-0.008636 -0.119308 
-0.008163 -0.087427 
-0.002627 -0.181016 
-0.007372 -0.149607 
0.000000 -0.198777 
-0.018425 -0.067706 
-0.010386 -0.098831 
-0.017702 -0.101028 
0.003225 -0.234029 
0.003405 -0.238099 
-0.000000 -0.234022 
0.012008 -0.247324 
0.006802 -0.242339 
0.010704 -0.243709 
-0.000000 -0.242016 
0.003282 -0.241281 
0.004061 -0.243321 
0.024809 -0.123888 
-0.002551 -0.167598 
0.008881 -0.139572 
-0.022833 -0.111127 
-0.004699 -0.149241 
0.000470 -0.116434 
-0.001227 -0.212925 
-0.017032 -0.159344 
-0.002002 -0.198511 
-0.000219 -0.185837 
-0.005000 -0.192032 
-0.011365 -0.134200 
0.003251 -0.183542 
0.003240 -0.191609 
-0.000000 -0.183555 
0.009762 -0.206479 
0.006506 -0.199037 
0.009754 -0.199187 
-0.000000 -0.198930 
0.003260 -0.198929 
0.003246 -0.206150 
0.022442 -0.229924 
0.019470 -0.224624 
0.022157 -0.224918 
0.013332 -0.225156 
0.016376 -0.224640 
0.016684 -0.230276 
0.016116 -0.213132 
0.016230 -0.219563 
0.013102 -0.213185 
-0.000000 -0.224298 
0.003246 -0.224313 
0.003274 -0.229609 
0.003260 -0.212555 
0.003251 -0.218862 
-0.000000 -0.212558 
0.009991 -0.230300 
0.006527 -0.224584 
0.009918 -0.224742 
0.009789 -0.212849 
0.009815 -0.219269 
0.006518 -0.212728 
-0.017350 -0.174534 
0.018601 -0.246892 
0.002588 -0.209955 
0.000350 -0.206170 
0.025992 -0.242552 
0.006546 -0.234518 
0.013828 -0.235670 
0.010141 -0.234997 
0.010364 -0.239706 
0.014753 -0.245225 
0.023148 -0.233802 
0.025517 -0.240296 
0.023757 -0.237529 
0.020262 -0.233634 
0.017136 -0.234257 
0.017794 -0.242470 
0.017685 -0.239278 
0.021092 -0.240582 
0.008163 -0.087427 
0.008636 -0.119308 
0.017702 -0.101028 
0.010386 -0.098831 
0.018425 -0.067706 
0.007372 -0.149607 
0.002627 -0.181016 
-0.008881 -0.139572 
0.002551 -0.167598 
-0.024809 -0.123888 
0.002002 -0.198511 
0.017032 -0.159344 
0.001227 -0.212925 
-0.000470 -0.116434 
0.004699 -0.149241 
0.022833 -0.111127 
-0.003405 -0.238099 
-0.003225 -0.234029 
-0.004061 -0.243321 
-0.003282 -0.241281 
-0.010704 -0.243709 
-0.006802 -0.242339 
-0.012008 -0.247324 
0.011365 -0.134200 
0.005000 -0.192032 
0.000219 -0.185837 
-0.057566 -0.263356 
-0.057283 -0.257308 
-0.066549 -0.263544 
-0.038970 -0.245498 
-0.045657 -0.251794 
-0.041630 -0.250850 
-0.067887 -0.248718 
-0.055038 -0.252027 
-0.056485 -0.243012 
-0.025713 -0.234005 
-0.028249 -0.237267 
-0.027547 -0.233630 
-0.031276 -0.241156 
-0.029701 -0.238673 
-0.028171 -0.240667 
-0.032628 -0.240555 
-0.031182 -0.238097 
-0.033828 -0.241609 
-0.043648 -0.146886 
-0.037804 -0.178985 
-0.006284 -0.138443 
-0.053130 -0.235455 
-0.052569 -0.210261 
-0.071566 -0.217387 
-0.006508 -0.206513 
-0.005233 -0.202920 
-0.031795 -0.240525 
-0.037223 -0.242059 
-0.033299 -0.238130 
-0.038550 -0.240813 
-0.003240 -0.191609 
-0.003251 -0.183542 
-0.003246 -0.206150 
-0.003260 -0.198929 
-0.009754 -0.199187 
-0.006506 -0.199037 
-0.009762 -0.206479 
-0.003274 -0.229609 
-0.003246 -0.224313 
-0.009918 -0.224742 
-0.006527 -0.224584 
-0.009991 -0.230300 
-0.003251 -0.218862 
-0.003260 -0.212555 
-0.022157 -0.224918 
-0.019470 -0.224624 
-0.022442 -0.229924 
-0.013102 -0.213185 
-0.016230 -0.219563 
-0.016116 -0.213132 
-0.016684 -0.230276 
-0.016376 -0.224640 
-0.013332 -0.225156 
-0.006518 -0.212728 
-0.009815 -0.219269 
-0.009789 -0.212849 
0.017350 -0.174534 
-0.025992 -0.242552 
-0.000350 -0.206170 
-0.002588 -0.209955 
-0.018601 -0.246892 
-0.023148 -0.233802 
-0.017136 -0.234257 
-0.020262 -0.233634 
-0.023757 -0.237529 
-0.025517 -0.240296 
-0.006546 -0.234518 
-0.014753 -0.245225 
-0.010364 -0.239706 
-0.010141 -0.234997 
-0.013828 -0.235670 
-0.021092 -0.240582 
-0.017685 -0.239278 
-0.017794 -0.242470 
-0.059175 -0.268120 
-0.049853 -0.261698 
-0.041306 -0.255127 
-0.045393 -0.259250 
-0.047361 -0.262315 
-0.043598 -0.254589 
-0.037346 -0.248420 
-0.039425 -0.235534 
-0.038886 -0.241387 
-0.041360 -0.241601 
-0.034593 -0.238734 
-0.036655 -0.240004 
-0.034846 -0.234049 
-0.042026 -0.252815 
-0.038633 -0.246127 
-0.039822 -0.251384 
-0.029444 -0.233775 
-0.027103 -0.230363 
-0.034067 -0.242448 
-0.031306 -0.238390 
-0.030928 -0.231658 
-0.030986 -0.235354 
-0.032755 -0.236531 
-0.037798 -0.248413 
-0.034590 -0.242432 
-0.035967 -0.246078 
-0.051827 -0.180048 
-0.050268 -0.187947 
-0.053855 -0.187026 
-0.043132 -0.188658 
-0.046815 -0.188812 
-0.044485 -0.180648 
-0.050381 -0.202186 
-0.048830 -0.195862 
-0.046993 -0.203196 
-0.029355 -0.186590 
-0.032862 -0.187265 
-0.029919 -0.178497 
-0.037581 -0.203608 
-0.035505 -0.195892 
-0.034382 -0.203040 
-0.037102 -0.179805 
-0.036134 -0.187878 
-0.039759 -0.188474 
-0.043363 -0.229384 
-0.042025 -0.223602 
-0.040587 -0.229921 
-0.045388 -0.210380 
-0.043576 -0.217182 
-0.046664 -0.216272 
-0.037862 -0.217420 
-0.040745 -0.217644 
-0.039348 -0.210960 
-0.042077 -0.196640 
-0.040548 -0.203895 
-0.043842 -0.203990 
-0.006483 -0.183574 
-0.003226 -0.175349 
-0.013050 -0.199494 
-0.009758 -0.191899 
-0.009713 -0.175580 
-0.009748 -0.183752 
-0.013023 -0.184042 
-0.024876 -0.225270 
-0.022060 -0.219929 
-0.022270 -0.207718 
-0.022037 -0.213805 
-0.024985 -0.214292 
-0.019267 -0.213398 
-0.016170 -0.206978 
-0.022991 -0.177228 
-0.022747 -0.185342 
-0.026152 -0.185941 
-0.016234 -0.184358 
-0.019553 -0.184796 
-0.016279 -0.176232 
-0.025552 -0.201138 
-0.022697 -0.193436 
-0.022361 -0.200570 
-0.016149 -0.199684 
-0.019394 -0.200077 
-0.016266 -0.192509 
-0.038071 -0.229688 
-0.035320 -0.216812 
-0.036731 -0.223485 
-0.035615 -0.229098 
-0.033484 -0.227881 
-0.029082 -0.194647 
-0.028043 -0.208805 
-0.028390 -0.201740 
-0.031547 -0.202374 
-0.033636 -0.210045 
-0.026982 -0.225526 
-0.031233 -0.227070 
-0.029316 -0.225966 
-0.027221 -0.220786 
-0.027443 -0.214795 
-0.032579 -0.216184 
-0.030205 -0.215363 
-0.031929 -0.222065 
-0.056810 -0.171018 
-0.053168 -0.171883 
-0.054825 -0.154391 
-0.054146 -0.163220 
-0.058851 -0.154062 
-0.049188 -0.172188 
-0.045431 -0.171998 
-0.053203 -0.115041 
-0.054411 -0.125274 
-0.058032 -0.116151 
-0.046234 -0.143891 
-0.050203 -0.134450 
-0.045669 -0.133675 
-0.059391 -0.135791 
-0.054985 -0.135469 
-0.055133 -0.144974 
-0.033683 -0.170212 
-0.030133 -0.169546 
-0.041343 -0.171544 
-0.037651 -0.170935 
-0.037807 -0.152188 
-0.037879 -0.161903 
-0.041843 -0.152899 
-0.050463 -0.154095 
-0.046305 -0.153652 
-0.046010 -0.163076 
-0.007927 -0.013056 
-0.021144 -0.029011 
-0.014353 -0.016640 
-0.025285 -0.051474 
-0.022550 -0.039358 
-0.018202 -0.038077 
-0.035242 -0.046420 
-0.028719 -0.042604 
-0.036089 -0.056208 
-0.023926 -0.097121 
-0.024857 -0.085808 
-0.021335 -0.085319 
-0.032997 -0.087364 
-0.028688 -0.086499 
-0.031745 -0.098476 
-0.021650 -0.062127 
-0.025924 -0.074606 
-0.025455 -0.062809 
-0.054221 -0.094991 
-0.048898 -0.092966 
-0.051488 -0.104032 
-0.041226 -0.068982 
-0.045702 -0.081096 
-0.047134 -0.071985 
-0.041104 -0.100718 
-0.043100 -0.090273 
-0.037995 -0.088837 
-0.029838 -0.064057 
-0.034775 -0.076782 
-0.034910 -0.065616 
-0.006386 -0.166422 
-0.003145 -0.166419 
-0.012837 -0.166882 
-0.009563 -0.166645 
-0.009147 -0.147920 
-0.009473 -0.157603 
-0.012340 -0.148144 
-0.026391 -0.168831 
-0.022969 -0.168262 
-0.022386 -0.149415 
-0.022820 -0.159201 
-0.025922 -0.149972 
-0.019466 -0.167676 
-0.016147 -0.167288 
-0.018659 -0.107418 
-0.020147 -0.118546 
-0.021992 -0.107830 
-0.015193 -0.138708 
-0.017649 -0.128627 
-0.014427 -0.128290 
-0.024503 -0.129570 
-0.020983 -0.129063 
-0.021922 -0.139576 
-0.015978 -0.158229 
-0.018888 -0.148883 
-0.015555 -0.148499 
-0.047945 -0.113200 
-0.038056 -0.110714 
-0.043073 -0.112068 
-0.044751 -0.123103 
-0.040878 -0.132599 
-0.025526 -0.108342 
-0.028316 -0.130210 
-0.027305 -0.119601 
-0.029362 -0.108965 
-0.033637 -0.109822 
-0.030107 -0.160479 
-0.037464 -0.142305 
-0.033576 -0.151368 
-0.029784 -0.150676 
-0.029315 -0.140790 
-0.035522 -0.121116 
-0.032220 -0.130896 
-0.036581 -0.131778 
0.000000 0.000000 
-0.007514 -0.012896 
-0.005261 -0.012494 
-0.005443 -0.012514 
0.000000 0.000000 
-0.012764 -0.025390 
-0.015806 -0.037632 
-0.002827 -0.012436 
-0.002917 -0.012436 
0.000000 0.000000 
-0.009568 -0.037110 
-0.006687 -0.024852 
-0.008449 -0.037101 
0.000000 0.000000 
-0.003862 -0.012430 
-0.003983 -0.012433 
-0.019170 -0.073622 
-0.018367 -0.084998 
-0.018135 -0.049892 
-0.018790 -0.061761 
-0.013759 -0.061340 
-0.015888 -0.061468 
-0.013271 -0.049436 
-0.009122 -0.024921 
-0.011570 -0.037210 
-0.013079 -0.037298 
0.000000 -0.012469 
-0.000050 -0.012469 
0.000000 0.000000 
-0.000668 -0.037048 
-0.000617 -0.024907 
0.000000 -0.037043 
0.000000 0.000000 
-0.000617 -0.012473 
-0.000670 -0.012473 
-0.001823 -0.084078 
-0.001782 -0.072698 
0.000000 -0.084047 
-0.003732 -0.049191 
-0.003011 -0.060978 
-0.004346 -0.060995 
0.000000 -0.060928 
-0.001270 -0.060944 
-0.001222 -0.049160 
0.000000 0.000000 
-0.001988 -0.012453 
-0.002061 -0.012453 
-0.001268 -0.012467 
-0.001329 -0.012467 
0.000000 0.000000 
-0.004563 -0.037064 
-0.003255 -0.024892 
-0.003785 -0.037071 
-0.001842 -0.037063 
-0.002546 -0.037062 
-0.001884 -0.024907 
-0.003146 -0.157325 
-0.000000 -0.166391 
-0.008943 -0.138160 
-0.006113 -0.147723 
-0.000000 -0.147602 
-0.002967 -0.147659 
-0.002956 -0.137889 
-0.017433 -0.096328 
-0.015678 -0.107110 
-0.010091 -0.106665 
-0.012706 -0.106850 
-0.011876 -0.095857 
-0.013832 -0.117851 
-0.011438 -0.128012 
-0.000000 -0.106289 
-0.002302 -0.106336 
-0.002270 -0.095422 
-0.002686 -0.127580 
-0.002664 -0.117202 
-0.000000 -0.127522 
-0.006911 -0.095577 
-0.004945 -0.106408 
-0.007344 -0.106513 
-0.008409 -0.127815 
-0.008090 -0.117425 
-0.005632 -0.127660 
-0.004813 -0.024867 
-0.006445 -0.049223 
-0.005937 -0.037076 
-0.006842 -0.037069 
-0.009537 -0.049283 
-0.004062 -0.084132 
-0.008317 -0.084285 
-0.005972 -0.084187 
-0.005437 -0.072784 
-0.006180 -0.061041 
-0.015420 -0.084716 
-0.011400 -0.061198 
-0.013837 -0.073163 
-0.012989 -0.084547 
-0.010418 -0.084381 
-0.007654 -0.061068 
-0.009375 -0.072922 
-0.009681 -0.061145 
0.000000 0.000000 
0.000050 -0.012469 
0.000670 -0.012473 
0.000617 -0.012473 
0.000000 0.000000 
0.000617 -0.024907 
0.000668 -0.037048 
0.002061 -0.012453 
0.001988 -0.012453 
0.000000 0.000000 
0.003785 -0.037071 
0.003255 -0.024892 
0.004563 -0.037064 
0.000000 0.000000 
0.001329 -0.012467 
0.001268 -0.012467 
0.001782 -0.072698 
0.001823 -0.084078 
0.001222 -0.049160 
0.001270 -0.060944 
0.004346 -0.060995 
0.003011 -0.060978 
0.003732 -0.049191 
0.001884 -0.024907 
0.002546 -0.037062 
0.001842 -0.037063 
0.007927 -0.013056 
0.007514 -0.012896 
0.000000 0.000000 
0.015806 -0.037632 
0.012764 -0.025390 
0.018202 -0.038077 
0.000000 0.000000 
0.005443 -0.012514 
0.005261 -0.012494 
0.018367 -0.084998 
0.019170 -0.073622 
0.021335 -0.085319 
0.013271 -0.049436 
0.015888 -0.061468 
0.013759 -0.061340 
0.021650 -0.062127 
0.018790 -0.061761 
0.018135 -0.049892 
0.000000 0.000000 
0.002917 -0.012436 
0.002827 -0.012436 
0.003983 -0.012433 
0.003862 -0.012430 
0.000000 0.000000 
0.008449 -0.037101 
0.006687 -0.024852 
0.009568 -0.037110 
0.013079 -0.037298 
0.011570 -0.037210 
0.009122 -0.024921 
0.003146 -0.157325 
0.003145 -0.166419 
0.002956 -0.137889 
0.002967 -0.147659 
0.009147 -0.147920 
0.006113 -0.147723 
0.008943 -0.138160 
0.002270 -0.095422 
0.002302 -0.106336 
0.007344 -0.106513 
0.004945 -0.106408 
0.006911 -0.095577 
0.002664 -0.117202 
0.002686 -0.127580 
0.018659 -0.107418 
0.015678 -0.107110 
0.017433 -0.096328 
0.011438 -0.128012 
0.013832 -0.117851 
0.014427 -0.128290 
0.011876 -0.095857 
0.012706 -0.106850 
0.010091 -0.106665 
0.005632 -0.127660 
0.008090 -0.117425 
0.008409 -0.127815 
0.004813 -0.024867 
0.009537 -0.049283 
0.006842 -0.037069 
0.005937 -0.037076 
0.006445 -0.049223 
0.015420 -0.084716 
0.010418 -0.084381 
0.012989 -0.084547 
0.013837 -0.073163 
0.011400 -0.061198 
0.004062 -0.084132 
0.006180 -0.061041 
0.005437 -0.072784 
0.005972 -0.084187 
0.008317 -0.084285 
0.009681 -0.061145 
0.009375 -0.072922 
0.007654 -0.061068 
0.014353 -0.016640 
0.021144 -0.029011 
0.036089 -0.056208 
0.028719 -0.042604 
0.035242 -0.046420 
0.022550 -0.039358 
0.025285 -0.051474 
0.051488 -0.104032 
0.048898 -0.092966 
0.054221 -0.094991 
0.037995 -0.088837 
0.043100 -0.090273 
0.041104 -0.100718 
0.047134 -0.071985 
0.045702 -0.081096 
0.041226 -0.068982 
0.024857 -0.085808 
0.023926 -0.097121 
0.025455 -0.062809 
0.025924 -0.074606 
0.031745 -0.098476 
0.028688 -0.086499 
0.032997 -0.087364 
0.034910 -0.065616 
0.034775 -0.076782 
0.029838 -0.064057 
0.051827 -0.180048 
0.053168 -0.171883 
0.056810 -0.171018 
0.045431 -0.171998 
0.049188 -0.172188 
0.044485 -0.180648 
0.058851 -0.154062 
0.054146 -0.163220 
0.054825 -0.154391 
0.030133 -0.169546 
0.033683 -0.170212 
0.029919 -0.178497 
0.041843 -0.152899 
0.037879 -0.161903 
0.037807 -0.152188 
0.037102 -0.179805 
0.037651 -0.170935 
0.041343 -0.171544 
0.058032 -0.116151 
0.054411 -0.125274 
0.053203 -0.115041 
0.055133 -0.144974 
0.054985 -0.135469 
0.059391 -0.135791 
0.045669 -0.133675 
0.050203 -0.134450 
0.046234 -0.143891 
0.046010 -0.163076 
0.046305 -0.153652 
0.050463 -0.154095 
0.006386 -0.166422 
0.003226 -0.175349 
0.012340 -0.148144 
0.009473 -0.157603 
0.009713 -0.175580 
0.009563 -0.166645 
0.012837 -0.166882 
0.021992 -0.107830 
0.020147 -0.118546 
0.021922 -0.139576 
0.020983 -0.129063 
0.024503 -0.129570 
0.017649 -0.128627 
0.015193 -0.138708 
0.022991 -0.177228 
0.022969 -0.168262 
0.026391 -0.168831 
0.016147 -0.167288 
0.019466 -0.167676 