# vtk DataFile Version 2.0
Unstructured Grid Example
ASCII
DATASET UNSTRUCTURED_GRID

POINTS 81 float
0.004388 -0.103267 0.000000 
0.995612 -0.103267 0.000000 
1.000000 1.000000 0.000000 
0.000000 1.000000 0.000000 
0.500000 -0.106930 0.000000 
0.980344 0.424879 0.000000 
0.500000 1.000000 0.000000 
0.019656 0.424879 0.000000 
0.500000 0.420584 0.000000 
0.252500 -0.106764 0.000000 
0.500000 0.149784 0.000000 
0.255809 0.150538 0.000000 
0.747500 -0.106764 0.000000 
0.744191 0.150538 0.000000 
0.988658 0.155015 0.000000 
0.739732 0.421503 0.000000 
0.976760 0.703131 0.000000 
0.739780 0.706249 0.000000 
0.750000 1.000000 0.000000 
0.500000 0.706756 0.000000 
0.250000 1.000000 0.000000 
0.260220 0.706249 0.000000 
0.023240 0.703131 0.000000 
0.260268 0.421503 0.000000 
0.011342 0.155015 0.000000 
0.128540 -0.105243 0.000000 
0.253860 0.020251 0.000000 
0.130588 0.021761 0.000000 
0.500000 0.019695 0.000000 
0.376939 0.019597 0.000000 
0.376294 -0.107405 0.000000 
0.378997 0.283725 0.000000 
0.377897 0.149901 0.000000 
0.500000 0.283420 0.000000 
0.623706 -0.107405 0.000000 
0.623061 0.019597 0.000000 
0.869412 0.021761 0.000000 
0.746140 0.020251 0.000000 
0.871460 -0.105243 0.000000 
0.622103 0.149901 0.000000 
0.621003 0.283725 0.000000 
0.992792 0.024297 0.000000 
0.866407 0.152034 0.000000 
0.859782 0.422296 0.000000 
0.863007 0.285590 0.000000 
0.984191 0.288607 0.000000 
0.741933 0.284280 0.000000 
0.619852 0.421225 0.000000 
0.977087 0.562522 0.000000 
0.857702 0.562024 0.000000 
0.864294 0.852152 0.000000 
0.858483 0.705226 0.000000 
0.981653 0.847580 0.000000 
0.738665 0.562226 0.000000 
0.619375 0.562363 0.000000 
0.875000 1.000000 0.000000 
0.743661 0.852661 0.000000 
0.500000 0.852875 0.000000 
0.622015 0.852706 0.000000 
0.625000 1.000000 0.000000 
0.620084 0.706511 0.000000 
0.500000 0.562418 0.000000 
0.375000 1.000000 0.000000 
0.377985 0.852706 0.000000 
0.135706 0.852152 0.000000 
0.256339 0.852661 0.000000 
0.125000 1.000000 0.000000 
0.379916 0.706511 0.000000 
0.380625 0.562363 0.000000 
0.018347 0.847580 0.000000 
0.141517 0.705226 0.000000 
0.140218 0.422296 0.000000 
0.142298 0.562024 0.000000 
0.022913 0.562522 0.000000 
0.261335 0.562226 0.000000 
0.380148 0.421225 0.000000 
0.015809 0.288607 0.000000 
0.136993 0.285590 0.000000 
0.133593 0.152034 0.000000 
0.007208 0.024297 0.000000 
0.258067 0.284280 0.000000 

CELLS 128 512
3  0 25 27 
3  9 26 25 
3  11 27 26 
3  25 26 27 
3  4 28 30 
3  10 29 28 
3  9 30 29 
3  28 29 30 
3  8 31 33 
3  11 32 31 
3  10 33 32 
3  31 32 33 
3  9 29 26 
3  10 32 29 
3  11 26 32 
3  29 32 26 
3  4 34 28 
3  12 35 34 
3  10 28 35 
3  34 35 28 
3  1 36 38 
3  13 37 36 
3  12 38 37 
3  36 37 38 
3  8 33 40 
3  10 39 33 
3  13 40 39 
3  33 39 40 
3  12 37 35 
3  13 39 37 
3  10 35 39 
3  37 39 35 
3  1 41 36 
3  14 42 41 
3  13 36 42 
3  41 42 36 
3  5 43 45 
3  15 44 43 
3  14 45 44 
3  43 44 45 
3  8 40 47 
3  13 46 40 
3  15 47 46 
3  40 46 47 
3  14 44 42 
3  15 46 44 
3  13 42 46 
3  44 46 42 
3  5 48 43 
3  16 49 48 
3  15 43 49 
3  48 49 43 
3  2 50 52 
3  17 51 50 
3  16 52 51 
3  50 51 52 
3  8 47 54 
3  15 53 47 
3  17 54 53 
3  47 53 54 
3  16 51 49 
3  17 53 51 
3  15 49 53 
3  51 53 49 
3  2 55 50 
3  18 56 55 
3  17 50 56 
3  55 56 50 
3  6 57 59 
3  19 58 57 
3  18 59 58 
3  57 58 59 
3  8 54 61 
3  17 60 54 
3  19 61 60 
3  54 60 61 
3  18 58 56 
3  19 60 58 
3  17 56 60 
3  58 60 56 
3  6 62 57 
3  20 63 62 
3  19 57 63 
3  62 63 57 
3  3 64 66 
3  21 65 64 
3  20 66 65 
3  64 65 66 
3  8 61 68 
3  19 67 61 
3  21 68 67 
3  61 67 68 
3  20 65 63 
3  21 67 65 
3  19 63 67 
3  65 67 63 
3  3 69 64 
3  22 70 69 
3  21 64 70 
3  69 70 64 
3  7 71 73 
3  23 72 71 
3  22 73 72 
3  71 72 73 
3  8 68 75 
3  21 74 68 
3  23 75 74 
3  68 74 75 
3  22 72 70 
3  23 74 72 
3  21 70 74 
3  72 74 70 
3  7 76 71 
3  24 77 76 
3  23 71 77 
3  76 77 71 
3  0 27 79 
3  11 78 27 
3  24 79 78 
3  27 78 79 
3  8 75 31 
3  23 80 75 
3  11 31 80 
3  75 80 31 
3  24 78 77 
3  11 80 78 
3  23 77 80 
3  78 80 77 

CELL_TYPES 128
5
5
5
5
5
5
5
5
5
5
5
5
5
5
5
5
5
5
5
5
5
5
5
5
5
5
5
5
5
5
5
5
5
5
5
5
5
5
5
5
5
5
5
5
5
5
5
5
5
5
5
5
5
5
5
5
5
5
5
5
5
5
5
5
5
5
5
5
5
5
5
5
5
5
5
5
5
5
5
5
5
5
5
5
5
5
5
5
5
5
5
5
5
5
5
5
5
5
5
5
5
5
5
5
5
5
5
5
5
5
5
5
5
5
5
5
5
5
5
5
5
5
5
5
5
5
5
5

POINT_DATA 81

SCALARS u_h float 2
LOOKUP_TABLE default
0.004388 -0.103267 
-0.004388 -0.103267 
0.000000 0.000000 
0.000000 0.000000 
0.000000 -0.106930 
-0.019656 -0.075121 
0.000000 0.000000 
0.019656 -0.075121 
0.000000 -0.079416 
0.002500 -0.106764 
0.000000 -0.100216 
0.005809 -0.099462 
-0.002500 -0.106764 
-0.005809 -0.099462 
-0.011342 -0.094985 
-0.010268 -0.078497 
-0.023240 -0.046869 
-0.010220 -0.043751 
0.000000 0.000000 
0.000000 -0.043244 
0.000000 0.000000 
0.010220 -0.043751 
0.023240 -0.046869 
0.010268 -0.078497 
0.011342 -0.094985 
0.003540 -0.105243 
0.003860 -0.104749 
0.005588 -0.103239 
0.000000 -0.105305 
0.001939 -0.105403 
0.001294 -0.107405 
0.003997 -0.091275 
0.002897 -0.100099 
0.000000 -0.091580 
-0.001294 -0.107405 
-0.001939 -0.105403 
-0.005588 -0.103239 
-0.003860 -0.104749 
-0.003540 -0.105243 
-0.002897 -0.100099 
-0.003997 -0.091275 
-0.007208 -0.100703 
-0.008593 -0.097966 
-0.015218 -0.077704 
-0.011993 -0.089410 
-0.015809 -0.086393 
-0.008067 -0.090720 
-0.005148 -0.078775 
-0.022913 -0.062478 
-0.017298 -0.062976 
-0.010706 -0.022848 
-0.016517 -0.044774 
-0.018347 -0.027420 
-0.011335 -0.062774 
-0.005625 -0.062637 
0.000000 0.000000 
-0.006339 -0.022339 
0.000000 -0.022125 
-0.002985 -0.022294 
0.000000 0.000000 
-0.004916 -0.043489 
0.000000 -0.062582 
0.000000 0.000000 
0.002985 -0.022294 
0.010706 -0.022848 
0.006339 -0.022339 
0.000000 0.000000 
0.004916 -0.043489 
0.005625 -0.062637 
0.018347 -0.027420 
0.016517 -0.044774 
0.015218 -0.077704 
0.017298 -0.062976 
0.022913 -0.062478 
0.011335 -0.062774 
0.005148 -0.078775 
0.015809 -0.086393 
0.011993 -0.089410 
0.008593 -0.097966 
0.007208 -0.100703 
0.008067 -0.090720 

CELL_DATA 128

SCALARS epsilon float 4
LOOKUP_TABLE default
-0.006411 0.016278 0.000000 0.000466
-0.008171 0.016194 0.000000 -0.000502
-0.013622 0.041655 0.000000 0.002100
-0.013589 0.016169 0.000000 0.002361
-0.010408 0.012918 0.000000 0.001877
-0.015635 0.039886 0.000000 0.000376
-0.009650 0.015927 0.000000 0.000081
-0.015626 0.015884 0.000000 0.003006
-0.032489 0.092619 0.000000 -0.001110
-0.023488 0.068160 0.000000 0.002108
-0.023448 0.066712 0.000000 -0.000439
-0.032432 0.068129 0.000000 0.003388
-0.015369 0.016061 0.000000 0.002951
-0.023412 0.041545 0.000000 0.003466
-0.023371 0.041493 0.000000 0.005527
-0.015418 0.041589 0.000000 0.001376
-0.010408 0.012918 0.000000 -0.001877
-0.009650 0.015927 0.000000 -0.000081
-0.015635 0.039886 0.000000 -0.000376
-0.015626 0.015884 0.000000 -0.003006
-0.006411 0.016278 0.000000 -0.000466
-0.013622 0.041655 0.000000 -0.002100
-0.008171 0.016194 0.000000 0.000502
-0.013589 0.016169 0.000000 -0.002361
-0.032489 0.092619 0.000000 0.001110
-0.023448 0.066712 0.000000 0.000439
-0.023488 0.068160 0.000000 -0.002108
-0.032432 0.068129 0.000000 -0.003388
-0.015369 0.016061 0.000000 -0.002951
-0.023371 0.041493 0.000000 -0.005527
-0.023412 0.041545 0.000000 -0.003466
-0.015418 0.041589 0.000000 -0.001376
-0.012336 0.020959 0.000000 -0.001484
-0.020944 0.045739 0.000000 -0.005480
-0.021956 0.041653 0.000000 -0.006530
-0.012294 0.041970 0.000000 -0.002421
-0.035098 0.086931 0.000000 -0.006379
-0.039928 0.089463 0.000000 -0.010438
-0.029563 0.067483 0.000000 -0.007071
-0.030106 0.090132 0.000000 -0.002185
-0.041952 0.095101 0.000000 -0.002436
-0.032854 0.067587 0.000000 -0.007220
-0.041616 0.093079 0.000000 -0.008099
-0.033007 0.095092 0.000000 -0.002703
-0.021277 0.066991 0.000000 -0.002697
-0.031596 0.093260 0.000000 -0.004249
-0.022160 0.067772 0.000000 -0.003603
-0.031286 0.066439 0.000000 -0.009085
-0.035323 0.096763 0.000000 -0.004021
-0.045912 0.117191 0.000000 0.000412
-0.040167 0.111080 0.000000 -0.005733
-0.045742 0.111034 0.000000 -0.006838
-0.050186 0.201107 0.000000 0.060585
-0.050436 0.160726 0.000000 0.020459
-0.053986 0.144415 0.000000 0.013076
-0.060570 0.162418 0.000000 0.008700
-0.042010 0.120910 0.000000 0.000305
-0.041744 0.117997 0.000000 -0.003412
-0.046683 0.140810 0.000000 0.004120
-0.046722 0.120878 0.000000 -0.002455
-0.055111 0.135398 0.000000 -0.004043
-0.051542 0.140895 0.000000 0.001076
-0.048818 0.117966 0.000000 -0.005144
-0.048811 0.135194 0.000000 0.002524
0.002622 0.166478 0.000000 0.041802
0.000925 0.163107 0.000000 0.024771
-0.035062 0.157059 0.000000 0.014005
-0.032432 0.166783 0.000000 0.041591
0.000000 0.161691 0.000000 -0.000000
-0.024163 0.154976 0.000000 -0.000578
0.000205 0.162812 0.000000 0.011666
-0.023919 0.162840 0.000000 0.011378
-0.046010 0.125731 0.000000 -0.000192
-0.043309 0.141667 0.000000 0.002004
-0.040097 0.142954 0.000000 -0.000848
-0.045994 0.141657 0.000000 0.002730
-0.026197 0.163123 0.000000 0.025303
-0.039975 0.155515 0.000000 0.007033
-0.042892 0.157002 0.000000 0.014973
-0.027093 0.155492 0.000000 0.007617
0.000000 0.161691 0.000000 -0.000000
0.000205 0.162812 0.000000 -0.011666
-0.024163 0.154976 0.000000 0.000578
-0.023919 0.162840 0.000000 -0.011378
0.002622 0.166478 0.000000 -0.041802
-0.035062 0.157059 0.000000 -0.014005
0.000925 0.163107 0.000000 -0.024771
-0.032432 0.166783 0.000000 -0.041591
-0.046010 0.125731 0.000000 0.000192
-0.040097 0.142954 0.000000 0.000848
-0.043309 0.141667 0.000000 -0.002004
-0.045994 0.141657 0.000000 -0.002730
-0.026197 0.163123 0.000000 -0.025303
-0.042892 0.157002 0.000000 -0.014973
-0.039975 0.155515 0.000000 -0.007033
-0.027093 0.155492 0.000000 -0.007617
-0.050186 0.201107 0.000000 -0.060585
-0.053986 0.144415 0.000000 -0.013076
-0.050436 0.160726 0.000000 -0.020459
-0.060570 0.162418 0.000000 -0.008700
-0.035323 0.096763 0.000000 0.004021
-0.040167 0.111080 0.000000 0.005733
-0.045912 0.117191 0.000000 -0.000412
-0.045742 0.111034 0.000000 0.006838
-0.042010 0.120910 0.000000 -0.000305
-0.046683 0.140810 0.000000 -0.004120
-0.041744 0.117997 0.000000 0.003412
-0.046722 0.120878 0.000000 0.002455
-0.055111 0.135398 0.000000 0.004043
-0.048818 0.117966 0.000000 0.005144
-0.051542 0.140895 0.000000 -0.001076
-0.048811 0.135194 0.000000 -0.002524
-0.035098 0.086931 0.000000 0.006379
-0.029563 0.067483 0.000000 0.007071
-0.039928 0.089463 0.000000 0.010438
-0.030106 0.090132 0.000000 0.002185
-0.012336 0.020959 0.000000 0.001484
-0.021956 0.041653 0.000000 0.006530
-0.020944 0.045739 0.000000 0.005480
-0.012294 0.041970 0.000000 0.002421
-0.041952 0.095101 0.000000 0.002436
-0.041616 0.093079 0.000000 0.008099
-0.032854 0.067587 0.000000 0.007220
-0.033007 0.095092 0.000000 0.002703
-0.021277 0.066991 0.000000 0.002697
-0.022160 0.067772 0.000000 0.003603
-0.031596 0.093260 0.000000 0.004249
-0.031286 0.066439 0.000000 0.009085

SCALARS sigma float 4
LOOKUP_TABLE default
-0.013019 0.357478 0.094632 0.004665
-0.058230 0.339592 0.077297 -0.010461
0.042381 0.937620 0.269231 0.028033
-0.205101 0.283404 0.021512 0.035220
-0.147936 0.234043 0.023656 0.031116
-0.024839 0.875195 0.233614 0.006270
-0.098458 0.319736 0.060791 0.000255
-0.258560 0.258416 -0.000040 0.048726
0.014721 2.010906 0.556491 -0.018818
0.031237 1.503606 0.421660 0.029065
0.019785 1.468762 0.408942 -0.007376
-0.212038 1.410988 0.329382 0.050335
-0.251285 0.264807 0.003715 0.046312
-0.219101 0.837671 0.169937 0.054154
-0.220991 0.835577 0.168842 0.084563
-0.003504 0.920030 0.251793 0.019422
-0.147936 0.234043 0.023656 -0.031116
-0.098458 0.319736 0.060791 -0.000255
-0.024839 0.875195 0.233614 -0.006270
-0.258560 0.258416 -0.000040 -0.048726
-0.013019 0.357478 0.094632 -0.004665
0.042381 0.937620 0.269231 -0.028033
-0.058230 0.339592 0.077297 0.010461
-0.205101 0.283404 0.021512 -0.035220
0.014721 2.010906 0.556491 0.018818
0.019785 1.468762 0.408942 0.007376
0.031237 1.503606 0.421660 -0.029065
-0.212038 1.410988 0.329382 -0.050335
-0.251285 0.264807 0.003715 -0.046312
-0.220991 0.835577 0.168842 -0.084563
-0.219101 0.837671 0.169937 -0.054154
-0.003504 0.920030 0.251793 -0.019422
-0.128941 0.415729 0.078788 -0.018471
-0.128133 0.957208 0.227768 -0.073948
-0.186102 0.851041 0.182676 -0.097049
0.075510 0.954293 0.282913 -0.029826
-0.122467 1.836541 0.470899 -0.078818
-0.226670 1.853515 0.446935 -0.151879
-0.157591 1.412202 0.344673 -0.091722
0.046426 1.965874 0.552830 -0.012886
-0.223309 1.972054 0.480425 -0.031736
-0.231860 1.391839 0.318676 -0.107859
-0.235315 1.925749 0.464405 -0.119867
0.022179 2.064912 0.573377 -0.036732
0.069453 1.487997 0.427871 -0.026357
0.040823 2.033157 0.569775 -0.054964
0.059889 1.505079 0.429936 -0.047697
-0.205516 1.376544 0.321711 -0.132458
-0.034725 2.074234 0.560305 -0.041594
-0.131135 2.460747 0.640003 0.010400
-0.030942 2.373809 0.643645 -0.078629
-0.185245 2.314626 0.584995 -0.097233
0.249653 4.248959 1.235882 0.785661
0.104173 3.420438 0.968300 0.281312
-0.132209 3.006239 0.789569 0.167741
-0.170176 3.339558 0.870709 0.073541
0.010026 2.589722 0.714216 0.009965
-0.009410 2.523358 0.690645 -0.047990
0.057340 3.008475 0.842257 0.058381
-0.120471 2.539852 0.664665 -0.037346
-0.225972 2.790440 0.704524 -0.079510
-0.077281 2.958617 0.791576 0.005568
-0.205526 2.448460 0.616191 -0.077682
-0.051012 2.854989 0.770323 0.034816
1.545373 4.079786 1.545373 0.593789
1.516139 4.002607 1.516139 0.352766
0.510667 3.502595 1.102545 0.195661
0.600481 3.727716 1.189065 0.585829
1.503835 3.970124 1.503835 -0.000000
0.799508 3.570995 1.200688 -0.009711
1.513578 3.995846 1.513578 0.166164
0.868773 3.752140 1.269482 0.160591
-0.057097 2.662149 0.715673 -0.003308
0.158806 3.063984 0.885382 0.026571
0.259108 3.127669 0.930433 -0.014507
0.084432 3.035645 0.857164 0.039000
0.788853 3.727422 1.240735 0.359943
0.370082 3.418965 1.040947 0.098407
0.294678 3.419740 1.020445 0.211669
0.722107 3.551879 1.174172 0.108722
1.503835 3.970124 1.503835 -0.000000
1.513578 3.995846 1.513578 -0.166164
0.799508 3.570995 1.200688 0.009711
0.868773 3.752140 1.269482 -0.160591
1.545373 4.079786 1.545373 -0.593789
0.510667 3.502595 1.102545 -0.195661
1.516139 4.002607 1.516139 -0.352766
0.600481 3.727716 1.189065 -0.585829
-0.057097 2.662149 0.715673 0.003308
0.259108 3.127669 0.930433 0.014507
0.158806 3.063984 0.885382 -0.026571
0.084432 3.035645 0.857164 -0.039000
0.788853 3.727422 1.240735 -0.359943
0.294678 3.419740 1.020445 -0.211669
0.370082 3.418965 1.040947 -0.098407
0.722107 3.551879 1.174172 -0.108722
0.249653 4.248959 1.235882 -0.785661
-0.132209 3.006239 0.789569 -0.167741
0.104173 3.420438 0.968300 -0.281312
-0.170176 3.339558 0.870709 -0.073541
-0.034725 2.074234 0.560305 0.041594
-0.030942 2.373809 0.643645 0.078629
-0.131135 2.460747 0.640003 -0.010400
-0.185245 2.314626 0.584995 0.097233
0.010026 2.589722 0.714216 -0.009965
0.057340 3.008475 0.842257 -0.058381
-0.009410 2.523358 0.690645 0.047990
-0.120471 2.539852 0.664665 0.037346
-0.225972 2.790440 0.704524 0.079510
-0.205526 2.448460 0.616191 0.077682
-0.077281 2.958617 0.791576 -0.005568
-0.051012 2.854989 0.770323 -0.034816
-0.122467 1.836541 0.470899 0.078818
-0.157591 1.412202 0.344673 0.091722
-0.226670 1.853515 0.446935 0.151879
0.046426 1.965874 0.552830 0.012886
-0.128941 0.415729 0.078788 0.018471
-0.186102 0.851041 0.182676 0.097049
-0.128133 0.957208 0.227768 0.073948
0.075510 0.954293 0.282913 0.029826
-0.223309 1.972054 0.480425 0.031736
-0.235315 1.925749 0.464405 0.119867
-0.231860 1.391839 0.318676 0.107859
0.022179 2.064912 0.573377 0.036732
0.069453 1.487997 0.427871 0.026357
0.059889 1.505079 0.429936 0.047697
0.040823 2.033157 0.569775 0.054964
-0.205516 1.376544 0.321711 0.132458

