# vtk DataFile Version 2.0
Unstructured Grid Example
ASCII
DATASET UNSTRUCTURED_GRID

POINTS 9 float
0.009342 -0.107201 0.000000 
0.990658 -0.107201 0.000000 
1.000000 1.000000 0.000000 
0.000000 1.000000 0.000000 
0.500000 -0.098306 0.000000 
0.983401 0.427889 0.000000 
0.500000 1.000000 0.000000 
0.016599 0.427889 0.000000 
0.500000 0.423778 0.000000 

CELLS 8 32
3  0 4 8 
3  4 1 8 
3  1 5 8 
3  5 2 8 
3  2 6 8 
3  6 3 8 
3  3 7 8 
3  7 0 8 

CELL_TYPES 8
5
5
5
5
5
5
5
5

POINT_DATA 9

SCALARS u_h float 2
LOOKUP_TABLE default
0.009342 -0.107201 
-0.009342 -0.107201 
0.000000 0.000000 
0.000000 0.000000 
-0.000000 -0.098306 
-0.016599 -0.072111 
0.000000 0.000000 
0.016599 -0.072111 
0.000000 -0.076222 

CELL_DATA 8

SCALARS epsilon float 4
LOOKUP_TABLE default
-0.018859 0.043346 0.000000 0.008516
-0.018859 0.043346 0.000000 -0.008516
-0.033534 0.067875 0.000000 -0.003636
-0.033543 0.133772 0.000000 0.020485
0.000000 0.141027 0.000000 -0.000000
0.000000 0.141027 0.000000 -0.000000
-0.033543 0.133772 0.000000 -0.020485
-0.033534 0.067875 0.000000 0.003636

SCALARS sigma float 4
LOOKUP_TABLE default
-0.079664 0.926330 0.232601 0.142369
-0.079664 0.926330 0.232601 -0.142369
-0.246491 1.391925 0.314680 -0.049854
0.345047 2.975943 0.912360 0.307089
1.322784 3.492149 1.322784 -0.000000
1.322784 3.492149 1.322784 -0.000000
0.345047 2.975943 0.912360 -0.307089
-0.246491 1.391925 0.314680 0.049854

