# vtk DataFile Version 2.0
Unstructured Grid Example
ASCII
DATASET UNSTRUCTURED_GRID

POINTS 25 float
0.007297 -0.183523 0.000000 
0.992703 -0.183523 0.000000 
1.000000 1.000000 0.000000 
0.000000 1.000000 0.000000 
0.500000 -0.100000 0.000000 
0.972764 0.366883 0.000000 
0.500000 1.000000 0.000000 
0.027236 0.366883 0.000000 
0.500000 0.370584 0.000000 
0.253688 -0.165719 0.000000 
0.500000 0.116520 0.000000 
0.251023 0.087127 0.000000 
0.746312 -0.165719 0.000000 
0.748977 0.087127 0.000000 
0.990417 0.081374 0.000000 
0.737356 0.363840 0.000000 
0.961327 0.663441 0.000000 
0.734062 0.670914 0.000000 
0.750000 1.000000 0.000000 
0.500000 0.675949 0.000000 
0.250000 1.000000 0.000000 
0.265938 0.670914 0.000000 
0.038673 0.663441 0.000000 
0.262644 0.363840 0.000000 
0.009583 0.081374 0.000000 

CELLS 32 128
3  0 9 11 
3  4 10 9 
3  8 11 10 
3  9 10 11 
3  4 12 10 
3  1 13 12 
3  8 10 13 
3  12 13 10 
3  1 14 13 
3  5 15 14 
3  8 13 15 
3  14 15 13 
3  5 16 15 
3  2 17 16 
3  8 15 17 
3  16 17 15 
3  2 18 17 
3  6 19 18 
3  8 17 19 
3  18 19 17 
3  6 20 19 
3  3 21 20 
3  8 19 21 
3  20 21 19 
3  3 22 21 
3  7 23 22 
3  8 21 23 
3  22 23 21 
3  7 24 23 
3  0 11 24 
3  8 23 11 
3  24 11 23 

CELL_TYPES 32
5
5
5
5
5
5
5
5
5
5
5
5
5
5
5
5
5
5
5
5
5
5
5
5
5
5
5
5
5
5
5
5

POINT_DATA 25

SCALARS u_h float 2
LOOKUP_TABLE default
0.007297 -0.183523 
-0.007297 -0.183523 
0.000000 0.000000 
0.000000 0.000000 
0.000000 -0.100000 
-0.027236 -0.133117 
0.000000 0.000000 
0.027236 -0.133117 
0.000000 -0.129416 
0.003688 -0.165719 
0.000000 -0.133480 
0.001023 -0.162873 
-0.003688 -0.165719 
-0.001023 -0.162873 
-0.009583 -0.168626 
-0.012644 -0.136160 
-0.038673 -0.086559 
-0.015938 -0.079086 
0.000000 0.000000 
0.000000 -0.074051 
0.000000 0.000000 
0.015938 -0.079086 
0.038673 -0.086559 
0.012644 -0.136160 
0.009583 -0.168626 

CELL_DATA 32

SCALARS epsilon float 4
LOOKUP_TABLE default
-0.013723 0.014631 0.000000 0.029794
-0.014860 -0.095218 0.000000 0.151728
-0.004102 0.022868 0.000000 0.057845
-0.002803 0.019360 0.000000 0.052773
-0.014860 -0.095218 0.000000 -0.151728
-0.013723 0.014631 0.000000 -0.029794
-0.004102 0.022868 0.000000 -0.057845
-0.002803 0.019360 0.000000 -0.052773
-0.034989 0.057866 0.000000 -0.015565
-0.057113 0.132957 0.000000 -0.031597
-0.052063 0.100342 0.000000 -0.036407
-0.034876 0.100434 0.000000 -0.034228
-0.058727 0.169863 0.000000 -0.018578
-0.083370 0.294075 0.000000 0.068332
-0.052093 0.203110 0.000000 -0.017647
-0.095313 0.203155 0.000000 -0.019040
0.001173 0.269198 0.000000 0.030034
0.000000 0.254627 0.000000 -0.000000
-0.065773 0.197900 0.000000 -0.008206
-0.063401 0.270312 0.000000 0.024451
0.000000 0.254627 0.000000 -0.000000
0.001173 0.269198 0.000000 -0.030034
-0.065773 0.197900 0.000000 0.008206
-0.063401 0.270312 0.000000 -0.024451
-0.083370 0.294075 0.000000 -0.068332
-0.058727 0.169863 0.000000 0.018578
-0.052093 0.203110 0.000000 0.017647
-0.095313 0.203155 0.000000 0.019040
-0.057113 0.132957 0.000000 0.031597
-0.034989 0.057866 0.000000 0.015565
-0.052063 0.100342 0.000000 0.036407
-0.034876 0.100434 0.000000 0.034228

SCALARS sigma float 4
LOOKUP_TABLE default
-0.235679 0.189461 -0.012689 0.497544
-1.803621 -4.581068 -1.532911 2.526159
0.051812 0.377221 0.118869 0.952567
0.071975 0.320705 0.108788 0.871369
-1.803621 -4.581068 -1.532911 -2.526159
-0.235679 0.189461 -0.012689 -0.497544
0.051812 0.377221 0.118869 -0.952567
0.071975 0.320705 0.108788 -0.871369
-0.407139 1.066919 0.183436 -0.254812
-0.404758 2.463291 0.586594 -0.379797
-0.557132 1.810524 0.351797 -0.546696
-0.033417 2.006720 0.562099 -0.491938
-0.073438 3.190491 0.904946 -0.185465
0.048593 5.047060 1.523323 0.536554
0.459997 3.894459 1.292328 -0.259311
-0.981137 3.380233 0.683899 -0.302778
2.691976 5.729822 2.691976 0.215068
2.546267 5.471757 2.546267 -0.000000
-0.020483 3.642234 1.059590 -0.144414
0.704620 4.955263 1.714383 0.155338
2.546267 5.471757 2.546267 -0.000000
2.691976 5.729822 2.691976 -0.215068
-0.020483 3.642234 1.059590 0.144414
0.704620 4.955263 1.714383 -0.155338
0.048593 5.047060 1.523323 -0.536554
-0.073438 3.190491 0.904946 0.185465
0.459997 3.894459 1.292328 0.259311
-0.981137 3.380233 0.683899 0.302778
-0.404758 2.463291 0.586594 0.379797
-0.407139 1.066919 0.183436 0.254812
-0.557132 1.810524 0.351797 0.546696
-0.033417 2.006720 0.562099 0.491938

