# vtk DataFile Version 2.0
Unstructured Grid Example
ASCII
DATASET UNSTRUCTURED_GRID

POINTS 1089 float
0.016893 -0.211805 0.000000 
0.983107 -0.211805 0.000000 
1.000000 1.000000 0.000000 
0.000000 1.000000 0.000000 
0.500000 -0.100000 0.000000 
0.969239 0.348051 0.000000 
0.500000 1.000000 0.000000 
0.030761 0.348051 0.000000 
0.500000 0.350253 0.000000 
0.269310 -0.196409 0.000000 
0.500000 0.085913 0.000000 
0.252500 0.063676 0.000000 
0.730690 -0.196409 0.000000 
0.747500 0.063676 0.000000 
0.986255 0.055898 0.000000 
0.737040 0.344558 0.000000 
0.951688 0.655187 0.000000 
0.728275 0.658390 0.000000 
0.750000 1.000000 0.000000 
0.500000 0.661160 0.000000 
0.250000 1.000000 0.000000 
0.271725 0.658390 0.000000 
0.048312 0.655187 0.000000 
0.262960 0.344558 0.000000 
0.013745 0.055898 0.000000 
0.142136 -0.207130 0.000000 
0.255563 -0.069064 0.000000 
0.135057 -0.078892 0.000000 
0.500000 -0.023955 0.000000 
0.374137 -0.047679 0.000000 
0.395099 -0.169765 0.000000 
0.376866 0.208149 0.000000 
0.373538 0.077092 0.000000 
0.500000 0.211954 0.000000 
0.604901 -0.169765 0.000000 
0.625863 -0.047679 0.000000 
0.864943 -0.078892 0.000000 
0.744437 -0.069064 0.000000 
0.857864 -0.207130 0.000000 
0.626462 0.077092 0.000000 
0.623134 0.208149 0.000000 
0.986705 -0.082245 0.000000 
0.866951 0.056082 0.000000 
0.853588 0.342566 0.000000 
0.862242 0.196511 0.000000 
0.979695 0.199987 0.000000 
0.743643 0.200803 0.000000 
0.619171 0.348621 0.000000 
0.958558 0.499407 0.000000 
0.844745 0.495208 0.000000 
0.846751 0.825840 0.000000 
0.840025 0.655823 0.000000 
0.955411 0.816722 0.000000 
0.730806 0.496803 0.000000 
0.615850 0.499476 0.000000 
0.875000 1.000000 0.000000 
0.733812 0.828041 0.000000 
0.500000 0.829056 0.000000 
0.617614 0.828742 0.000000 
0.625000 1.000000 0.000000 
0.614764 0.660345 0.000000 
0.500000 0.500676 0.000000 
0.375000 1.000000 0.000000 
0.382386 0.828742 0.000000 
0.153249 0.825840 0.000000 
0.266188 0.828041 0.000000 
0.125000 1.000000 0.000000 
0.385236 0.660345 0.000000 
0.384150 0.499476 0.000000 
0.044589 0.816722 0.000000 
0.159975 0.655823 0.000000 
0.146412 0.342566 0.000000 
0.155255 0.495208 0.000000 
0.041442 0.499407 0.000000 
0.269194 0.496803 0.000000 
0.380829 0.348621 0.000000 
0.020305 0.199987 0.000000 
0.137758 0.196511 0.000000 
0.133049 0.056082 0.000000 
0.013295 -0.082245 0.000000 
0.256357 0.200803 0.000000 
0.079256 -0.209697 0.000000 
0.138409 -0.143969 0.000000 
0.076616 -0.146336 0.000000 
0.261229 -0.133764 0.000000 
0.200054 -0.140078 0.000000 
0.205567 -0.203025 0.000000 
0.193124 -0.008692 0.000000 
0.195583 -0.075136 0.000000 
0.252833 -0.003154 0.000000 
0.500000 -0.068475 0.000000 
0.437569 -0.088588 0.000000 
0.452467 -0.143039 0.000000 
0.435084 0.023769 0.000000 
0.434823 -0.033203 0.000000 
0.500000 0.028429 0.000000 
0.332880 -0.186038 0.000000 
0.380051 -0.109377 0.000000 
0.321423 -0.123997 0.000000 
0.439247 0.279037 0.000000 
0.438172 0.210930 0.000000 
0.500000 0.279686 0.000000 
0.312573 0.069976 0.000000 
0.375027 0.141568 0.000000 
0.314039 0.136430 0.000000 
0.500000 0.147272 0.000000 
0.437082 0.145678 0.000000 
0.436013 0.083299 0.000000 
0.314940 -0.060037 0.000000 
0.372860 0.014250 0.000000 
0.312514 0.004632 0.000000 
0.547533 -0.143039 0.000000 
0.562431 -0.088588 0.000000 
0.678577 -0.123997 0.000000 
0.619949 -0.109377 0.000000 
0.667120 -0.186038 0.000000 
0.565177 -0.033203 0.000000 
0.564916 0.023769 0.000000 
0.923384 -0.146336 0.000000 
0.861591 -0.143969 0.000000 
0.920744 -0.209697 0.000000 
0.747167 -0.003154 0.000000 
0.804417 -0.075136 0.000000 
0.806876 -0.008692 0.000000 
0.794433 -0.203025 0.000000 
0.799946 -0.140078 0.000000 
0.738771 -0.133764 0.000000 
0.561828 0.210930 0.000000 
0.560753 0.279037 0.000000 
0.563987 0.083299 0.000000 
0.562918 0.145678 0.000000 
0.685961 0.136430 0.000000 
0.624973 0.141568 0.000000 
0.687427 0.069976 0.000000 
0.685060 -0.060037 0.000000 
0.687486 0.004632 0.000000 
0.627140 0.014250 0.000000 
0.985108 -0.148135 0.000000 
0.925805 -0.081015 0.000000 
0.926689 0.055057 0.000000 
0.927067 -0.013811 0.000000 
0.987245 -0.014119 0.000000 
0.866857 -0.012132 0.000000 
0.807239 0.058964 0.000000 
0.911518 0.343965 0.000000 
0.916617 0.269861 0.000000 
0.974740 0.273551 0.000000 
0.799493 0.269615 0.000000 
0.858188 0.268785 0.000000 
0.795447 0.342995 0.000000 
0.983662 0.127378 0.000000 
0.921134 0.196999 0.000000 
0.924626 0.125376 0.000000 
0.621155 0.277112 0.000000 
0.559697 0.350003 0.000000 
0.746132 0.131562 0.000000 
0.683716 0.204460 0.000000 
0.678296 0.346629 0.000000 
0.681069 0.274439 0.000000 
0.740487 0.271713 0.000000 
0.865305 0.125632 0.000000 
0.803098 0.197953 0.000000 
0.805830 0.127801 0.000000 
0.963707 0.423204 0.000000 
0.906352 0.419356 0.000000 
0.897790 0.574612 0.000000 
0.901597 0.496180 0.000000 
0.954328 0.576701 0.000000 
0.848950 0.417986 0.000000 
0.791426 0.418278 0.000000 
0.914194 0.911296 0.000000 
0.901286 0.822593 0.000000 
0.966074 0.901707 0.000000 
0.784336 0.657118 0.000000 
0.841269 0.739624 0.000000 
0.785869 0.741288 0.000000 
0.951563 0.735048 0.000000 
0.896230 0.737360 0.000000 
0.895650 0.654888 0.000000 
0.617327 0.422734 0.000000 
0.558719 0.423793 0.000000 
0.733690 0.419538 0.000000 
0.675667 0.421186 0.000000 
0.672045 0.577690 0.000000 
0.673476 0.498207 0.000000 
0.728827 0.576432 0.000000 
0.841528 0.574417 0.000000 
0.785281 0.575219 0.000000 
0.787862 0.495637 0.000000 
0.937500 1.000000 0.000000 
0.858096 0.913545 0.000000 
0.740699 0.914248 0.000000 
0.799890 0.914092 0.000000 
0.812500 1.000000 0.000000 
0.790845 0.827316 0.000000 
0.729749 0.742445 0.000000 
0.500000 0.914427 0.000000 
0.560466 0.914369 0.000000 
0.562500 1.000000 0.000000 
0.557895 0.744241 0.000000 
0.558894 0.828929 0.000000 
0.500000 0.744434 0.000000 
0.687500 1.000000 0.000000 
0.620814 0.914336 0.000000 
0.680937 0.914304 0.000000 
0.557984 0.500347 0.000000 
0.500000 0.424140 0.000000 
0.671738 0.659489 0.000000 
0.614922 0.578756 0.000000 
0.500000 0.579770 0.000000 
0.557531 0.579478 0.000000 
0.557465 0.660911 0.000000 
0.675986 0.828464 0.000000 
0.615605 0.743858 0.000000 
0.672947 0.743271 0.000000 
0.437500 1.000000 0.000000 
0.439534 0.914369 0.000000 
0.319063 0.914304 0.000000 
0.379186 0.914336 0.000000 
0.312500 1.000000 0.000000 
0.441106 0.828929 0.000000 
0.442105 0.744241 0.000000 
0.085806 0.911296 0.000000 
0.141904 0.913545 0.000000 
0.062500 1.000000 0.000000 
0.270251 0.742445 0.000000 
0.209155 0.827316 0.000000 
0.214131 0.741288 0.000000 
0.187500 1.000000 0.000000 
0.200110 0.914092 0.000000 
0.259301 0.914248 0.000000 
0.442016 0.500347 0.000000 
0.441281 0.423793 0.000000 
0.442535 0.660911 0.000000 
0.442469 0.579478 0.000000 
0.327955 0.577690 0.000000 
0.385078 0.578756 0.000000 
0.328262 0.659489 0.000000 
0.324014 0.828464 0.000000 
0.327053 0.743271 0.000000 
0.384395 0.743858 0.000000 
0.033926 0.901707 0.000000 
0.098714 0.822593 0.000000 
0.104350 0.654888 0.000000 
0.103770 0.737360 0.000000 
0.048437 0.735048 0.000000 
0.158731 0.739624 0.000000 
0.215664 0.657118 0.000000 
0.088482 0.343965 0.000000 
0.093648 0.419356 0.000000 
0.036293 0.423204 0.000000 
0.208574 0.418278 0.000000 
0.151050 0.417986 0.000000 
0.204553 0.342995 0.000000 
0.045672 0.576701 0.000000 
0.098403 0.496180 0.000000 
0.102210 0.574612 0.000000 
0.382673 0.422734 0.000000 
0.440303 0.350003 0.000000 
0.271173 0.576432 0.000000 
0.326524 0.498207 0.000000 
0.321704 0.346629 0.000000 
0.324333 0.421186 0.000000 
0.266310 0.419538 0.000000 
0.158472 0.574417 0.000000 
0.212138 0.495637 0.000000 
0.214719 0.575219 0.000000 
0.025260 0.273551 0.000000 
0.083383 0.269861 0.000000 
0.075374 0.125376 0.000000 
0.078866 0.196999 0.000000 
0.016338 0.127378 0.000000 
0.141812 0.268785 0.000000 
0.200507 0.269615 0.000000 
0.074195 -0.081015 0.000000 
0.014892 -0.148135 0.000000 
0.192761 0.058964 0.000000 
0.133143 -0.012132 0.000000 
0.012755 -0.014119 0.000000 
0.072933 -0.013811 0.000000 
0.073311 0.055057 0.000000 
0.378845 0.277112 0.000000 
0.259513 0.271713 0.000000 
0.318931 0.274439 0.000000 
0.316284 0.204460 0.000000 
0.253868 0.131562 0.000000 
0.134695 0.125632 0.000000 
0.194170 0.127801 0.000000 
0.196902 0.197953 0.000000 
0.048034 -0.210722 0.000000 
0.077986 -0.178251 0.000000 
0.046896 -0.179231 0.000000 
0.140322 -0.175798 0.000000 
0.109128 -0.177154 0.000000 
0.110620 -0.208546 0.000000 
0.105975 -0.112935 0.000000 
0.107517 -0.145286 0.000000 
0.136602 -0.111658 0.000000 
0.265082 -0.165407 0.000000 
0.233986 -0.168989 0.000000 
0.237422 -0.200097 0.000000 
0.227902 -0.105065 0.000000 
0.230728 -0.137282 0.000000 
0.258020 -0.101607 0.000000 
0.173794 -0.205329 0.000000 
0.202789 -0.171832 0.000000 
0.171553 -0.174063 0.000000 
0.222557 0.027318 0.000000 
0.223005 -0.006202 0.000000 
0.252412 0.030144 0.000000 
0.165377 -0.077262 0.000000 
0.194082 -0.042077 0.000000 
0.164032 -0.044138 0.000000 
0.253855 -0.036229 0.000000 
0.224021 -0.039459 0.000000 
0.225650 -0.072431 0.000000 
0.169266 -0.142271 0.000000 
0.197601 -0.107824 0.000000 
0.167155 -0.109988 0.000000 
0.500000 -0.086249 0.000000 
0.469856 -0.100421 0.000000 
0.477110 -0.122771 0.000000 
0.466715 -0.052473 0.000000 
0.467375 -0.076916 0.000000 
0.500000 -0.047465 0.000000 
0.424782 -0.158179 0.000000 
0.442391 -0.116075 0.000000 
0.414739 -0.129315 0.000000 
0.467559 0.055701 0.000000 
0.467245 0.027112 0.000000 
0.500000 0.056633 0.000000 
0.404116 -0.040478 0.000000 
0.434797 -0.004997 0.000000 
0.403604 -0.010743 0.000000 
0.500000 0.001477 0.000000 
0.466945 -0.000478 0.000000 
0.466716 -0.027012 0.000000 
0.301163 -0.191796 0.000000 
0.326590 -0.155385 0.000000 
0.295990 -0.160936 0.000000 
0.386172 -0.139962 0.000000 
0.356719 -0.148505 0.000000 
0.364290 -0.178837 0.000000 
0.346989 -0.085909 0.000000 
0.350957 -0.117397 0.000000 
0.376259 -0.078547 0.000000 
0.435510 -0.061001 0.000000 
0.405610 -0.070110 0.000000 
0.408792 -0.099752 0.000000 
[...]
POINT_DATA 1089

SCALARS u_h float 2
LOOKUP_TABLE default
0.016893 -0.211805 
-0.016893 -0.211805 
0.000000 0.000000 
0.000000 0.000000 
-0.000000 -0.100000 
-0.030761 -0.151949 
0.000000 0.000000 
0.030761 -0.151949 
-0.000000 -0.149747 
0.019310 -0.196409 
-0.000000 -0.164087 
0.002500 -0.186324 
-0.019310 -0.196409 
-0.002500 -0.186324 
-0.013745 -0.194102 
-0.012960 -0.155442 
-0.048312 -0.094813 
-0.021725 -0.091610 
0.000000 0.000000 
-0.000000 -0.088840 
0.000000 0.000000 
0.021725 -0.091610 
0.048312 -0.094813 
0.012960 -0.155442 
0.013745 -0.194102 
0.017136 -0.207130 
0.005563 -0.194064 
0.010057 -0.203892 
-0.000000 -0.148955 
-0.000863 -0.172679 
0.020099 -0.169765 
0.001866 -0.166851 
-0.001462 -0.172908 
-0.000000 -0.163046 
-0.020099 -0.169765 
0.000863 -0.172679 
-0.010057 -0.203892 
-0.005563 -0.194064 
-0.017136 -0.207130 
0.001462 -0.172908 
-0.001866 -0.166851 
-0.013295 -0.207245 
-0.008049 -0.193918 
-0.021412 -0.157434 
-0.012758 -0.178489 
-0.020305 -0.175013 
-0.006357 -0.174197 
-0.005829 -0.151379 
-0.041442 -0.125593 
-0.030255 -0.129792 
-0.028249 -0.049160 
-0.034975 -0.094177 
-0.044589 -0.058278 
-0.019194 -0.128197 
-0.009150 -0.125524 
0.000000 0.000000 
-0.016188 -0.046959 
-0.000000 -0.045944 
-0.007386 -0.046258 
0.000000 0.000000 
-0.010236 -0.089655 
-0.000000 -0.124324 
0.000000 0.000000 
0.007386 -0.046258 
0.028249 -0.049160 
0.016188 -0.046959 
0.000000 0.000000 
0.010236 -0.089655 
0.009150 -0.125524 
0.044589 -0.058278 
0.034975 -0.094177 
0.021412 -0.157434 
0.030255 -0.129792 
0.041442 -0.125593 
0.019194 -0.128197 
0.005829 -0.151379 
0.020305 -0.175013 
0.012758 -0.178489 
0.008049 -0.193918 
0.013295 -0.207245 
0.006357 -0.174197 
0.016756 -0.209697 
0.013409 -0.206469 
0.014116 -0.208836 
0.011229 -0.196264 
0.012554 -0.202578 
0.018067 -0.203025 
0.005624 -0.196192 
0.008083 -0.200136 
0.002833 -0.190654 
-0.000000 -0.130975 
0.000069 -0.151088 
0.014967 -0.143039 
-0.002416 -0.163731 
-0.002677 -0.158203 
-0.000000 -0.159071 
0.020380 -0.186038 
0.005051 -0.171877 
0.008923 -0.186497 
0.001747 -0.158463 
0.000672 -0.164070 
-0.000000 -0.157814 
0.000073 -0.180024 
0.000027 -0.170932 
0.001539 -0.176070 
-0.000000 -0.165228 
-0.000418 -0.166822 
-0.001487 -0.166701 
0.002440 -0.185037 
-0.002140 -0.173250 
0.000014 -0.182868 
-0.014967 -0.143039 
-0.000069 -0.151088 
-0.008923 -0.186497 
-0.005051 -0.171877 
-0.020380 -0.186038 
0.002677 -0.158203 
0.002416 -0.163731 
-0.014116 -0.208836 
-0.013409 -0.206469 
-0.016756 -0.209697 
-0.002833 -0.190654 
-0.008083 -0.200136 
-0.005624 -0.196192 
-0.018067 -0.203025 
-0.012554 -0.202578 
-0.011229 -0.196264 
-0.000672 -0.164070 
-0.001747 -0.158463 
0.001487 -0.166701 
0.000418 -0.166822 
-0.001539 -0.176070 
-0.000027 -0.170932 
-0.000073 -0.180024 
-0.002440 -0.185037 
-0.000014 -0.182868 
0.002140 -0.173250 
-0.014892 -0.210635 
-0.011695 -0.206015 
-0.010811 -0.194943 
-0.010433 -0.201311 
-0.012755 -0.201619 
-0.008143 -0.199632 
-0.005261 -0.191036 
-0.025982 -0.156035 
-0.020883 -0.167639 
-0.025260 -0.163949 
-0.013007 -0.167885 
-0.016812 -0.168715 
-0.017053 -0.157005 
-0.016338 -0.185122 
-0.016366 -0.178001 
-0.012874 -0.187124 
-0.003845 -0.160388 
-0.002803 -0.149997 
-0.003868 -0.180938 
-0.003784 -0.170540 
-0.009204 -0.153371 
-0.006431 -0.163061 
-0.009513 -0.165787 
-0.009695 -0.186868 
-0.009402 -0.177047 
-0.006670 -0.184699 
-0.036293 -0.139296 
-0.031148 -0.143144 
-0.039710 -0.112888 
-0.035903 -0.128820 
-0.045672 -0.110799 
-0.026050 -0.144514 
-0.021074 -0.144222 
-0.023306 -0.026204 
-0.036214 -0.052407 
-0.033926 -0.035793 
-0.028164 -0.092882 
-0.033731 -0.072876 
-0.026631 -0.071212 
-0.048437 -0.077452 
-0.041270 -0.075140 
-0.041850 -0.095112 
-0.007673 -0.139766 
-0.003781 -0.138707 
-0.016310 -0.142962 
-0.011833 -0.141314 
-0.015455 -0.109810 
-0.014024 -0.126793 
-0.021173 -0.111068 
-0.033472 -0.113083 
-0.027219 -0.112281 
-0.024638 -0.129363 
0.000000 0.000000 
-0.016904 -0.023955 
-0.009301 -0.023252 
-0.012610 -0.023408 
0.000000 0.000000 
-0.021655 -0.047684 
-0.020251 -0.070055 
0.000000 -0.023073 
-0.002034 -0.023131 
0.000000 0.000000 
-0.004605 -0.068259 
-0.003606 -0.046071 
-0.000000 -0.068066 
0.000000 0.000000 
-0.004186 -0.023164 
-0.006563 -0.023196 
-0.004516 -0.124653 
-0.000000 -0.138360 
-0.015762 -0.090511 
-0.010078 -0.108744 
-0.000000 -0.107730 
-0.004969 -0.108022 
-0.005035 -0.089089 
-0.011514 -0.046536 
-0.009395 -0.068642 
-0.014553 -0.069229 
0.000000 0.000000 
0.002034 -0.023131 
0.006563 -0.023196 
0.004186 -0.023164 
0.000000 0.000000 
0.003606 -0.046071 
0.004605 -0.068259 
0.023306 -0.026204 
0.016904 -0.023955 
0.000000 0.000000 
0.020251 -0.070055 
0.021655 -0.047684 
0.026631 -0.071212 
0.000000 0.000000 
0.012610 -0.023408 
0.009301 -0.023252 
0.004516 -0.124653 
0.003781 -0.138707 
0.005035 -0.089089 
0.004969 -0.108022 
0.015455 -0.109810 
0.010078 -0.108744 
0.015762 -0.090511 
0.011514 -0.046536 
0.014553 -0.069229 
0.009395 -0.068642 
0.033926 -0.035793 
0.036214 -0.052407 
0.041850 -0.095112 
0.041270 -0.075140 
0.048437 -0.077452 
0.033731 -0.072876 
0.028164 -0.092882 
0.025982 -0.156035 
0.031148 -0.143144 
0.036293 -0.139296 
0.021074 -0.144222 
0.026050 -0.144514 
0.017053 -0.157005 
0.045672 -0.110799 
0.035903 -0.128820 
0.039710 -0.112888 
0.007673 -0.139766 
0.002803 -0.149997 
0.021173 -0.111068 
0.014024 -0.126793 
0.009204 -0.153371 
0.011833 -0.141314 
0.016310 -0.142962 
0.033472 -0.113083 
0.024638 -0.129363 
0.027219 -0.112281 
0.025260 -0.163949 
0.020883 -0.167639 
0.012874 -0.187124 
0.016366 -0.178001 
0.016338 -0.185122 
0.016812 -0.168715 
0.013007 -0.167885 
0.011695 -0.206015 
0.014892 -0.210635 
0.005261 -0.191036 
0.008143 -0.199632 
0.012755 -0.201619 
0.010433 -0.201311 
0.010811 -0.194943 
0.003845 -0.160388 
0.009513 -0.165787 
0.006431 -0.163061 
0.003784 -0.170540 
0.003868 -0.180938 
0.009695 -0.186868 
0.006670 -0.184699 
0.009402 -0.177047 
0.016784 -0.210722 
0.015486 -0.209501 
0.015646 -0.210481 
0.015322 -0.207048 
0.015378 -0.208404 
0.016870 -0.208546 
0.012225 -0.206685 
0.013767 -0.207786 
0.011602 -0.205408 
0.015082 -0.196657 
0.015236 -0.200239 
0.018672 -0.200097 
0.009152 -0.198815 
0.011978 -0.199782 
0.008020 -0.195357 
0.017544 -0.205329 
0.015289 -0.203082 
0.015303 -0.205313 
0.003807 -0.191432 
0.004255 -0.193702 
0.002412 -0.188606 
0.009127 -0.202262 
0.006582 -0.198327 
0.007782 -0.200388 
0.003855 -0.192479 
0.005271 -0.195709 
0.006900 -0.197431 
0.013016 -0.204771 
0.010101 -0.201574 
0.010905 -0.203738 
-0.000000 -0.117499 
0.001106 -0.131671 
0.008360 -0.122771 
-0.002035 -0.146223 
-0.001375 -0.139416 
-0.000000 -0.141215 
0.018532 -0.158179 
0.004891 -0.147325 
0.008489 -0.160565 
-0.001191 -0.163049 
-0.001505 -0.160388 
-0.000000 -0.162117 
-0.002134 -0.165478 
-0.002703 -0.161247 
-0.002646 -0.166993 
-0.000000 -0.154773 
-0.001805 -0.156728 
-0.002034 -0.152012 
0.019913 -0.191796 
0.014090 -0.186635 
0.014740 -0.192186 
0.011172 -0.171212 
0.012969 -0.179755 
0.020540 -0.178837 
0.003239 -0.179659 
0.007207 -0.179897 
0.001259 -0.172297 
-0.001990 -0.154751 
-0.000640 -0.163860 
0.002542 -0.162252 
0.001102 -0.154193 
0.000842 -0.157961 
-0.000000 -0.154118 
0.001184 -0.165287 
0.001213 -0.161623 
0.001961 -0.162625 
-0.000000 -0.160799 
0.000573 -0.160999 
0.000297 -0.163302 
0.001216 -0.183342 
0.000677 -0.178217 
0.001766 -0.181126 
-0.000781 -0.172159 
-0.000192 -0.175173 
-0.000848 -0.176488 
0.001648 -0.171304 
0.000659 -0.173464 
0.000919 -0.169175 
-0.000000 -0.165098 
-0.000574 -0.165620 
-0.000879 -0.164774 
0.000013 -0.164853 
-0.000277 -0.165635 
-0.000000 -0.164531 
-0.001690 -0.169537 
-0.000959 -0.167122 
-0.001041 -0.169390 
0.000416 -0.167291 
-0.000331 -0.168652 
0.000127 -0.165804 
0.010238 -0.191889 
0.000747 -0.179266 
0.005071 -0.185896 
0.006668 -0.191091 
0.004068 -0.189956 
-0.001985 -0.165564 
-0.001950 -0.173244 
-0.002234 -0.169137 
-0.002599 -0.168257 
-0.001865 -0.173025 
0.001058 -0.185297 
0.002355 -0.188590 
0.001397 -0.187037 
-0.000186 -0.181554 
-0.001227 -0.177477 
-0.000632 -0.178793 
-0.001212 -0.178219 
0.000827 -0.184020 
-0.008360 -0.122771 
-0.001106 -0.131671 
-0.008489 -0.160565 
-0.004891 -0.147325 
-0.018532 -0.158179 
0.001375 -0.139416 
0.002035 -0.146223 
-0.014740 -0.192186 
-0.014090 -0.186635 
-0.019913 -0.191796 
-0.001259 -0.172297 
-0.007207 -0.179897 
-0.003239 -0.179659 
-0.020540 -0.178837 
-0.012969 -0.179755 
-0.011172 -0.171212 
0.001505 -0.160388 
0.001191 -0.163049 
0.002034 -0.152012 
0.001805 -0.156728 
0.002646 -0.166993 
0.002703 -0.161247 
0.002134 -0.165478 
-0.002542 -0.162252 
0.000640 -0.163860 
0.001990 -0.154751 
-0.015646 -0.210481 
-0.015486 -0.209501 
-0.016784 -0.210722 
-0.011602 -0.205408 
-0.013767 -0.207786 
-0.012225 -0.206685 
-0.016870 -0.208546 
-0.015378 -0.208404 
-0.015322 -0.207048 
-0.002412 -0.188606 
-0.004255 -0.193702 
-0.003807 -0.191432 
-0.006900 -0.197431 
-0.005271 -0.195709 
-0.003855 -0.192479 
-0.007782 -0.200388 
-0.006582 -0.198327 
-0.009127 -0.202262 
-0.018672 -0.200097 
-0.015236 -0.200239 
-0.015082 -0.196657 
-0.015303 -0.205313 
-0.015289 -0.203082 
-0.017544 -0.205329 
-0.008020 -0.195357 
-0.011978 -0.199782 
-0.009152 -0.198815 
-0.010905 -0.203738 
-0.010101 -0.201574 
-0.013016 -0.204771 
-0.000842 -0.157961 
-0.001102 -0.154193 
-0.000297 -0.163302 
-0.000573 -0.160999 
-0.001961 -0.162625 
-0.001213 -0.161623 
-0.001184 -0.165287 
0.000879 -0.164774 
0.000574 -0.165620 
0.001041 -0.169390 
0.000959 -0.167122 
0.001690 -0.169537 
0.000277 -0.165635 
-0.000013 -0.164853 
-0.001766 -0.181126 
-0.000677 -0.178217 
-0.001216 -0.183342 
-0.000919 -0.169175 
-0.000659 -0.173464 
-0.001648 -0.171304 
0.000848 -0.176488 
0.000192 -0.175173 
0.000781 -0.172159 
-0.000127 -0.165804 
0.000331 -0.168652 
-0.000416 -0.167291 
-0.010238 -0.191889 
-0.004068 -0.189956 
-0.006668 -0.191091 
-0.005071 -0.185896 
-0.000747 -0.179266 
-0.001058 -0.185297 
0.001227 -0.177477 
0.000186 -0.181554 
-0.001397 -0.187037 
-0.002355 -0.188590 
0.001985 -0.165564 
0.001865 -0.173025 
0.002599 -0.168257 
0.002234 -0.169137 
0.001950 -0.173244 
-0.000827 -0.184020 
0.001212 -0.178219 
0.000632 -0.178793 
-0.015863 -0.211479 
-0.014482 -0.209745 
-0.012477 -0.206691 
-0.013390 -0.208481 
-0.014005 -0.209230 
-0.012810 -0.207672 
-0.010902 -0.205114 
-0.012234 -0.194760 
-0.011688 -0.198389 
-0.013045 -0.198069 
-0.009143 -0.197848 
-0.010405 -0.198321 
-0.009427 -0.194662 
-0.012854 -0.204695 
-0.011564 -0.201612 
-0.011843 -0.204391 
-0.005196 -0.193758 
-0.003865 -0.188901 
-0.008883 -0.201956 
-0.006920 -0.198155 
-0.006661 -0.192710 
-0.006552 -0.195591 
-0.007866 -0.196946 
-0.010878 -0.203886 
-0.009306 -0.200668 
-0.009905 -0.203099 
-0.028344 -0.154398 
-0.025639 -0.160417 
-0.027971 -0.158070 
-0.021199 -0.162913 
-0.023387 -0.161995 
-0.023672 -0.157011 
-0.022686 -0.169596 
-0.023026 -0.166169 
-0.020556 -0.171650 
-0.013070 -0.161882 
-0.015001 -0.162672 
-0.014969 -0.156325 
-0.014689 -0.173783 
-0.014875 -0.168497 
-0.012872 -0.173429 
-0.019204 -0.157402 
-0.017004 -0.163162 
-0.019072 -0.163271 
-0.014850 -0.189770 
-0.014554 -0.186432 
-0.013198 -0.190764 
-0.018284 -0.176860 
-0.016265 -0.181791 
-0.018172 -0.180194 
-0.012741 -0.183051 
-0.014465 -0.182719 
-0.014529 -0.178519 
-0.018814 -0.168457 
-0.016572 -0.173657 
-0.018524 -0.172974 
-0.002276 -0.154586 
-0.001385 -0.149684 
-0.002847 -0.163930 
-0.002741 -0.159291 
-0.004278 -0.150582 
-0.003516 -0.155278 
-0.004845 -0.156208 
-0.003012 -0.183780 
-0.002624 -0.178601 
-0.004999 -0.172425 
-0.003720 -0.175716 
-0.005003 -0.177757 
-0.002591 -0.173528 
-0.002734 -0.168643 
-0.011036 -0.154432 
-0.009468 -0.159719 
-0.011222 -0.160871 
-0.006277 -0.157308 
-0.007818 -0.158505 
-0.007469 -0.152330 
-0.007876 -0.170219 
-0.007914 -0.164461 
-0.006411 -0.168686 
-0.003885 -0.165443 
-0.005076 -0.167062 
-0.005074 -0.161673 
-0.011643 -0.191204 
-0.011075 -0.182848 
-0.011262 -0.187254 
-0.010144 -0.191126 
-0.008671 -0.190557 
-0.011215 -0.166955 
-0.007832 -0.175764 
-0.009453 -0.171573 
-0.011123 -0.172668 
-0.011048 -0.177977 
-0.004361 -0.186097 
-0.007213 -0.189516 
-0.005771 -0.188021 
-0.005229 -0.182993 
-0.006406 -0.179559 
-0.009460 -0.182163 
-0.007899 -0.181049 
-0.008163 -0.186004 
-0.033543 -0.145753 
-0.031054 -0.148134 
-0.036285 -0.134727 
-0.033718 -0.141583 
-0.038947 -0.132576 
-0.028588 -0.149759 
-0.026154 -0.150742 
-0.044208 -0.103884 
-0.042740 -0.112151 
-0.047240 -0.102964 
-0.033085 -0.129530 
-0.037965 -0.121068 
-0.035009 -0.121584 
-0.043710 -0.118337 
-0.040871 -0.120030 
-0.038693 -0.127549 
-0.019091 -0.150863 
-0.016845 -0.150264 
-0.023755 -0.151189 
-0.021398 -0.151199 
-0.025575 -0.137372 
-0.023542 -0.144529 
-0.028239 -0.137389 
-0.033607 -0.136171 
-0.030921 -0.137022 
-0.028589 -0.144085 
-0.016135 -0.014212 
-0.028243 -0.029648 
-0.023935 -0.021546 
-0.032073 -0.050482 
-0.031062 -0.039767 
-0.026908 -0.037756 
-0.040400 -0.047650 
-0.035714 -0.043006 
-0.040495 -0.055028 
-0.024888 -0.092231 
-0.027768 -0.082317 
-0.024450 -0.081658 
-0.034777 -0.083836 
-0.031219 -0.083047 
-0.031537 -0.093543 
-0.028007 -0.060347 
-0.030097 -0.071968 
-0.031632 -0.061301 
-0.048762 -0.086322 
-0.045476 -0.086047 
-0.045165 -0.095198 
-0.043417 -0.066076 
-0.044970 -0.076370 
-0.047137 -0.068140 
-0.038431 -0.094730 
-0.041986 -0.085430 
-0.038390 -0.084653 
-0.035477 -0.062560 
-0.037483 -0.073943 
-0.039457 -0.064164 
-0.003325 -0.144704 
-0.001670 -0.144428 
-0.006787 -0.145901 
-0.005023 -0.145209 
-0.006300 -0.132423 
-0.005700 -0.139155 
-0.008468 -0.132971 
-0.014667 -0.149479 
-0.012569 -0.148584 
-0.015382 -0.135129 
-0.014032 -0.142154 
-0.017836 -0.135872 
-0.010555 -0.147646 
-0.008628 -0.146732 
-0.018668 -0.101008 
-0.018270 -0.110428 
-0.021664 -0.101622 
-0.011552 -0.126123 
-0.014856 -0.118604 
-0.012239 -0.117987 
-0.020327 -0.119929 
-0.017552 -0.119263 
-0.016572 -0.127499 
-0.009715 -0.140501 
-0.013003 -0.134364 
-0.010699 -0.133630 
-0.041044 -0.104249 
-0.034493 -0.103918 
-0.037790 -0.104218 
-0.036610 -0.113158 
-0.032027 -0.121698 
-0.024760 -0.102253 
-0.023176 -0.120561 
-0.024160 -0.111699 
-0.027944 -0.102873 
-0.031199 -0.103446 
-0.018660 -0.143674 
-0.027433 -0.129707 
-0.022944 -0.137062 
-0.020360 -0.136538 
-0.021887 -0.128838 
-0.030332 -0.112763 
-0.026088 -0.121108 
-0.029045 -0.121511 
0.000000 0.000000 
-0.012713 -0.012449 
-0.008995 -0.011623 
-0.010572 -0.011855 
0.000000 0.000000 
-0.019707 -0.024675 
-0.023370 -0.036608 
-0.004897 -0.011510 
-0.005730 -0.011500 
0.000000 0.000000 
-0.015255 -0.035285 
-0.010866 -0.023308 
-0.013090 -0.035113 
0.000000 0.000000 
-0.006662 -0.011502 
-0.007731 -0.011531 
-0.023349 -0.070583 
-0.021280 -0.081069 
-0.024788 -0.048280 
-0.024629 -0.059630 
-0.018569 -0.058649 
-0.021491 -0.059081 
-0.018804 -0.047266 
-0.014592 -0.023595 
-0.017645 -0.035541 
-0.020321 -0.035942 
-0.000000 -0.011534 
-0.000525 -0.011553 
0.000000 0.000000 
-0.001433 -0.034613 
-0.001008 -0.023108 
-0.000000 -0.034565 
0.000000 0.000000 
-0.001062 -0.011560 
-0.001617 -0.011560 
-0.002433 -0.078737 
-0.002291 -0.068140 
-0.000000 -0.078657 
-0.005463 -0.046155 
-0.004179 -0.057298 
-0.006326 -0.057423 
-0.000000 -0.057136 
-0.002078 -0.057203 
-0.001792 -0.046002 
0.000000 0.000000 
-0.003447 -0.011537 
-0.004142 -0.011524 
-0.002194 -0.011556 
-0.002801 -0.011548 
0.000000 0.000000 
-0.007550 -0.034819 
-0.005339 -0.023179 
-0.005928 -0.034757 
-0.002888 -0.034657 
-0.004380 -0.034704 
-0.003089 -0.023148 
-0.001890 -0.138440 
-0.000000 -0.144381 
-0.006810 -0.125027 
-0.004178 -0.132015 
-0.000000 -0.131672 
-0.002085 -0.131762 
-0.002252 -0.124416 
-0.018684 -0.091033 
-0.015774 -0.100434 
-0.010268 -0.099468 
-0.012977 -0.099916 
-0.012950 -0.090049 
-0.012727 -0.109242 
-0.009696 -0.117440 
-0.000000 -0.098549 
-0.002520 -0.098637 
-0.002507 -0.088924 
-0.002385 -0.116426 
-0.002477 -0.107820 
-0.000000 -0.116334 
-0.007604 -0.089333 
-0.005058 -0.098821 
-0.007634 -0.099100 
-0.007216 -0.116987 
-0.007497 -0.108333 
-0.004784 -0.116645 
-0.007876 -0.023218 
-0.009395 -0.046383 
-0.009269 -0.034895 
-0.011106 -0.034989 
-0.013769 -0.046723 
-0.004888 -0.078880 
-0.009954 -0.079358 
-0.007387 -0.079087 
-0.006965 -0.068426 
-0.008542 -0.057581 
-0.018256 -0.080546 
-0.015840 -0.058301 
-0.017324 -0.069609 
-0.015370 -0.080088 
-0.012608 -0.079692 
-0.010851 -0.057777 
-0.011917 -0.068909 
-0.013275 -0.058014 
0.000000 0.000000 
0.000525 -0.011553 
0.001617 -0.011560 
0.001062 -0.011560 
0.000000 0.000000 
0.001008 -0.023108 
0.001433 -0.034613 
0.004142 -0.011524 
0.003447 -0.011537 
0.000000 0.000000 
0.005928 -0.034757 
0.005339 -0.023179 
0.007550 -0.034819 
0.000000 0.000000 
0.002801 -0.011548 
0.002194 -0.011556 
0.002291 -0.068140 
0.002433 -0.078737 
0.001792 -0.046002 
0.002078 -0.057203 
0.006326 -0.057423 
0.004179 -0.057298 
0.005463 -0.046155 
0.003089 -0.023148 
0.004380 -0.034704 
0.002888 -0.034657 
0.016135 -0.014212 
0.012713 -0.012449 
0.000000 0.000000 
0.023370 -0.036608 
0.019707 -0.024675 
0.026908 -0.037756 
0.000000 0.000000 
0.010572 -0.011855 
0.008995 -0.011623 
0.021280 -0.081069 
0.023349 -0.070583 
0.024450 -0.081658 
0.018804 -0.047266 
0.021491 -0.059081 
0.018569 -0.058649 
0.028007 -0.060347 
0.024629 -0.059630 
0.024788 -0.048280 
0.000000 0.000000 
0.005730 -0.011500 
0.004897 -0.011510 
0.007731 -0.011531 
0.006662 -0.011502 
0.000000 0.000000 
0.013090 -0.035113 
0.010866 -0.023308 
0.015255 -0.035285 
0.020321 -0.035942 
0.017645 -0.035541 
0.014592 -0.023595 
0.001890 -0.138440 
0.001670 -0.144428 
0.002252 -0.124416 
0.002085 -0.131762 
0.006300 -0.132423 
0.004178 -0.132015 
0.006810 -0.125027 
0.002507 -0.088924 
0.002520 -0.098637 
0.007634 -0.099100 
0.005058 -0.098821 
0.007604 -0.089333 
0.002477 -0.107820 
0.002385 -0.116426 
0.018668 -0.101008 
0.015774 -0.100434 
0.018684 -0.091033 
0.009696 -0.117440 
0.012727 -0.109242 
0.012239 -0.117987 
0.012950 -0.090049 
0.012977 -0.099916 
0.010268 -0.099468 
0.004784 -0.116645 
0.007497 -0.108333 
0.007216 -0.116987 
0.007876 -0.023218 
0.013769 -0.046723 
0.011106 -0.034989 
0.009269 -0.034895 
0.009395 -0.046383 
0.018256 -0.080546 
0.012608 -0.079692 
0.015370 -0.080088 
0.017324 -0.069609 
0.015840 -0.058301 
0.004888 -0.078880 
0.008542 -0.057581 
0.006965 -0.068426 
0.007387 -0.079087 
0.009954 -0.079358 
0.013275 -0.058014 
0.011917 -0.068909 
0.010851 -0.057777 
0.023935 -0.021546 
0.028243 -0.029648 
0.040495 -0.055028 
0.035714 -0.043006 
0.040400 -0.047650 
0.031062 -0.039767 
0.032073 -0.050482 
0.045165 -0.095198 
0.045476 -0.086047 
0.048762 -0.086322 
0.038390 -0.084653 
0.041986 -0.085430 
0.038431 -0.094730 
0.047137 -0.068140 
0.044970 -0.076370 
0.043417 -0.066076 
0.027768 -0.082317 
0.024888 -0.092231 
0.031632 -0.061301 
0.030097 -0.071968 
0.031537 -0.093543 
0.031219 -0.083047 
0.034777 -0.083836 
0.039457 -0.064164 
0.037483 -0.073943 
0.035477 -0.062560 
0.028344 -0.154398 
0.031054 -0.148134 
0.033543 -0.145753 
0.026154 -0.150742 
0.028588 -0.149759 
0.023672 -0.157011 
0.038947 -0.132576 
0.033718 -0.141583 
0.036285 -0.134727 
0.016845 -0.150264 
0.019091 -0.150863 
0.014969 -0.156325 
0.028239 -0.137389 
0.023542 -0.144529 
0.025575 -0.137372 
0.019204 -0.157402 
0.021398 -0.151199 
0.023755 -0.151189 
0.047240 -0.102964 
0.042740 -0.112151 
0.044208 -0.103884 
0.038693 -0.127549 
0.040871 -0.120030 
0.043710 -0.118337 
0.035009 -0.121584 
0.037965 -0.121068 
0.033085 -0.129530 
0.028589 -0.144085 
0.030921 -0.137022 
0.033607 -0.136171 
0.003325 -0.144704 
0.001385 -0.149684 
0.008468 -0.132971 
0.005700 -0.139155 
0.004278 -0.150582 
0.005023 -0.145209 
0.006787 -0.145901 
0.021664 -0.101622 
0.018270 -0.110428 
0.016572 -0.127499 
0.017552 -0.119263 
0.020327 -0.119929 
0.014856 -0.118604 
0.011552 -0.126123 
0.011036 -0.154432 
0.012569 -0.148584 
0.014667 -0.149479 
0.008628 -0.146732 