# vtk DataFile Version 2.0
Unstructured Grid Example
ASCII
DATASET UNSTRUCTURED_GRID

POINTS 9 float
0.001231 -0.175408 0.000000 
0.998769 -0.175408 0.000000 
1.000000 1.000000 0.000000 
0.000000 1.000000 0.000000 
0.500000 -0.100000 0.000000 
0.973325 0.376592 0.000000 
0.500000 1.000000 0.000000 
0.026675 0.376592 0.000000 
0.500000 0.380164 0.000000 

CELLS 8 32
3  0 4 8 
3  4 1 8 
3  1 5 8 
3  5 2 8 
3  2 6 8 
3  6 3 8 
3  3 7 8 
3  7 0 8 

CELL_TYPES 8
5
5
5
5
5
5
5
5

POINT_DATA 9

SCALARS u_h float 2
LOOKUP_TABLE default
0.001231 -0.175408 
-0.001231 -0.175408 
0.000000 0.000000 
0.000000 0.000000 
-0.000000 -0.100000 
-0.026675 -0.123408 
0.000000 0.000000 
0.026675 -0.123408 
-0.000000 -0.119836 

CELL_DATA 8

SCALARS epsilon float 4
LOOKUP_TABLE default
-0.002465 -0.028065 0.000000 0.078523
-0.002465 -0.028065 0.000000 -0.078523
-0.053929 0.098318 0.000000 -0.029866
-0.053426 0.217880 0.000000 0.024215
0.000000 0.212024 0.000000 0.000000
0.000000 0.212024 0.000000 0.000000
-0.053426 0.217880 0.000000 -0.024215
-0.053929 0.098318 0.000000 0.029866

SCALARS sigma float 4
LOOKUP_TABLE default
-0.468818 -1.137746 -0.427235 1.290961
-0.468818 -1.137746 -0.427235 -1.290961
-0.621691 1.763887 0.320007 -0.428178
0.538916 4.151652 1.400007 0.221963
2.120245 4.690590 2.120245 0.000000
2.120245 4.690590 2.120245 0.000000
0.538916 4.151652 1.400007 -0.221963
-0.621691 1.763887 0.320007 0.428178

