# vtk DataFile Version 2.0
Unstructured Grid Example
ASCII
DATASET UNSTRUCTURED_GRID

POINTS 16641 float
0.015559 -0.212493 0.000000 
0.984441 -0.212493 0.000000 
1.000000 1.000000 0.000000 
0.000000 1.000000 0.000000 
0.500000 -0.100000 0.000000 
0.968796 0.346824 0.000000 
0.500000 1.000000 0.000000 
0.031204 0.346824 0.000000 
0.500000 0.348659 0.000000 
0.268456 -0.198967 0.000000 
0.500000 0.082869 0.000000 
0.252478 0.061707 0.000000 
0.731544 -0.198967 0.000000 
0.747522 0.061707 0.000000 
0.986135 0.054667 0.000000 
0.736719 0.343011 0.000000 
0.950946 0.654540 0.000000 
0.727815 0.657496 0.000000 
0.750000 1.000000 0.000000 
0.500000 0.660140 0.000000 
0.250000 1.000000 0.000000 
0.272185 0.657496 0.000000 
0.049054 0.654540 0.000000 
0.263281 0.343011 0.000000 
0.013865 0.054667 0.000000 
0.141055 -0.208832 0.000000 
0.255355 -0.071452 0.000000 
0.134846 -0.080608 0.000000 
0.500000 -0.028137 0.000000 
0.373468 -0.050271 0.000000 
0.395451 -0.173417 0.000000 
0.377054 0.206014 0.000000 
0.373493 0.074727 0.000000 
0.500000 0.209590 0.000000 
0.604549 -0.173417 0.000000 
0.626532 -0.050271 0.000000 
0.865154 -0.080608 0.000000 
0.744645 -0.071452 0.000000 
0.858945 -0.208832 0.000000 
0.626507 0.074727 0.000000 
0.622946 0.206014 0.000000 
0.986969 -0.083334 0.000000 
0.866849 0.054489 0.000000 
0.853201 0.341246 0.000000 
0.861965 0.195053 0.000000 
0.979390 0.198785 0.000000 
0.743423 0.199053 0.000000 
0.618955 0.346843 0.000000 
0.957935 0.498516 0.000000 
0.844242 0.494096 0.000000 
0.846018 0.825267 0.000000 
0.839405 0.654968 0.000000 
0.954538 0.816163 0.000000 
0.730423 0.495549 0.000000 
0.615652 0.498115 0.000000 
0.875000 1.000000 0.000000 
0.733394 0.827590 0.000000 
0.500000 0.828533 0.000000 
0.617424 0.828314 0.000000 
0.625000 1.000000 0.000000 
0.614527 0.659423 0.000000 
0.500000 0.499255 0.000000 
0.375000 1.000000 0.000000 
0.382576 0.828314 0.000000 
0.153982 0.825267 0.000000 
0.266606 0.827590 0.000000 
0.125000 1.000000 0.000000 
0.385473 0.659423 0.000000 
0.384348 0.498115 0.000000 
0.045462 0.816163 0.000000 
0.160595 0.654968 0.000000 
0.146799 0.341246 0.000000 
0.155758 0.494096 0.000000 
0.042065 0.498516 0.000000 
0.269577 0.495549 0.000000 
0.381045 0.346843 0.000000 
0.020610 0.198785 0.000000 
0.138035 0.195053 0.000000 
0.133151 0.054489 0.000000 
0.013031 -0.083334 0.000000 
0.256577 0.199053 0.000000 
0.078074 -0.211009 0.000000 
0.137844 -0.145697 0.000000 
0.075997 -0.147685 0.000000 
0.260908 -0.136311 0.000000 
0.199590 -0.142190 0.000000 
0.204575 -0.205120 0.000000 
0.193070 -0.010623 0.000000 
0.195395 -0.077195 0.000000 
0.252690 -0.005309 0.000000 
0.500000 -0.073581 0.000000 
0.436170 -0.091079 0.000000 
0.453369 -0.145685 0.000000 
0.434973 0.020917 0.000000 
0.434252 -0.035880 0.000000 
0.500000 0.024937 0.000000 
0.332358 -0.189166 0.000000 
0.379560 -0.112588 0.000000 
0.321213 -0.127007 0.000000 
0.439391 0.276988 0.000000 
0.438301 0.208620 0.000000 
0.500000 0.277659 0.000000 
0.312498 0.067846 0.000000 
0.375138 0.139291 0.000000 
0.314134 0.134400 0.000000 
0.500000 0.144583 0.000000 
0.437186 0.143118 0.000000 
0.436062 0.080532 0.000000 
0.314575 -0.062653 0.000000 
0.372534 0.011837 0.000000 
0.312238 0.002337 0.000000 
0.546631 -0.145685 0.000000 
0.563830 -0.091079 0.000000 
0.678787 -0.127007 0.000000 
0.620440 -0.112588 0.000000 
0.667642 -0.189166 0.000000 
0.565748 -0.035880 0.000000 
0.565027 0.020917 0.000000 
0.924003 -0.147685 0.000000 
0.862156 -0.145697 0.000000 
0.921926 -0.211009 0.000000 
0.747310 -0.005309 0.000000 
0.804605 -0.077195 0.000000 
0.806930 -0.010623 0.000000 
0.795425 -0.205120 0.000000 
0.800410 -0.142190 0.000000 
0.739092 -0.136311 0.000000 
0.561699 0.208620 0.000000 
0.560609 0.276988 0.000000 
0.563938 0.080532 0.000000 
0.562814 0.143118 0.000000 
0.685866 0.134400 0.000000 
0.624862 0.139291 0.000000 
0.687502 0.067846 0.000000 
0.685425 -0.062653 0.000000 
0.687762 0.002337 0.000000 
0.627466 0.011837 0.000000 
0.985774 -0.149033 0.000000 
0.926038 -0.082392 0.000000 
0.926566 0.053667 0.000000 
0.927076 -0.015207 0.000000 
0.987269 -0.015316 0.000000 
0.866871 -0.013796 0.000000 
0.807188 0.057170 0.000000 
0.911101 0.342730 0.000000 
0.916248 0.268571 0.000000 
0.974361 0.272358 0.000000 
0.799176 0.268100 0.000000 
0.857842 0.267391 0.000000 
0.795091 0.341569 0.000000 
0.983442 0.126155 0.000000 
0.920837 0.195669 0.000000 
0.924410 0.124011 0.000000 
0.620936 0.275150 0.000000 
0.559572 0.348194 0.000000 
0.746019 0.129717 0.000000 
0.683512 0.202530 0.000000 
0.678017 0.344956 0.000000 
0.680808 0.272627 0.000000 
0.740197 0.270057 0.000000 
0.865111 0.124110 0.000000 
0.802851 0.196357 0.000000 
0.805676 0.126118 0.000000 
0.963164 0.422172 0.000000 
0.905868 0.418220 0.000000 
0.897171 0.573705 0.000000 
0.901041 0.495157 0.000000 
0.953642 0.575936 0.000000 
0.848506 0.416761 0.000000 
0.791023 0.416962 0.000000 
0.913225 0.910706 0.000000 
0.900453 0.821970 0.000000 
0.965137 0.900650 0.000000 
0.783786 0.656238 0.000000 
0.840587 0.738904 0.000000 
0.785278 0.740579 0.000000 
0.950762 0.734495 0.000000 
0.895485 0.736656 0.000000 
0.894971 0.654090 0.000000 
0.617137 0.421163 0.000000 
0.558640 0.422206 0.000000 
0.733338 0.418126 0.000000 
0.675384 0.419683 0.000000 
0.671718 0.576574 0.000000 
0.673177 0.496892 0.000000 
0.728406 0.575351 0.000000 
0.840966 0.573432 0.000000 
0.784783 0.574180 0.000000 
0.787414 0.494451 0.000000 
0.937500 1.000000 0.000000 
0.857524 0.913231 0.000000 
0.740460 0.914046 0.000000 
0.799534 0.913863 0.000000 
0.812500 1.000000 0.000000 
0.790275 0.826815 0.000000 
0.729274 0.741757 0.000000 
0.500000 0.914168 0.000000 
0.560409 0.914159 0.000000 
0.562500 1.000000 0.000000 
0.557780 0.743532 0.000000 
0.558799 0.828475 0.000000 
0.500000 0.743654 0.000000 
0.687500 1.000000 0.000000 
0.620706 0.914141 0.000000 
0.680773 0.914110 0.000000 
0.557892 0.498955 0.000000 
0.500000 0.422580 0.000000 
0.671385 0.658585 0.000000 
0.614702 0.577607 0.000000 
0.500000 0.578535 0.000000 
0.557424 0.578293 0.000000 
0.557348 0.659954 0.000000 
0.675691 0.828035 0.000000 
0.615372 0.743179 0.000000 
0.672594 0.742596 0.000000 
0.437500 1.000000 0.000000 
0.439591 0.914159 0.000000 
0.319227 0.914110 0.000000 
0.379294 0.914141 0.000000 
0.312500 1.000000 0.000000 
0.441201 0.828475 0.000000 
0.442220 0.743532 0.000000 
0.086775 0.910706 0.000000 
0.142476 0.913231 0.000000 
0.062500 1.000000 0.000000 
0.270726 0.741757 0.000000 
0.209725 0.826815 0.000000 
0.214722 0.740579 0.000000 
0.187500 1.000000 0.000000 
0.200466 0.913863 0.000000 
0.259540 0.914046 0.000000 
0.442108 0.498955 0.000000 
0.441360 0.422206 0.000000 
0.442652 0.659954 0.000000 
0.442576 0.578293 0.000000 
0.328282 0.576574 0.000000 
0.385298 0.577607 0.000000 
0.328615 0.658585 0.000000 
0.324309 0.828035 0.000000 
0.327406 0.742596 0.000000 
0.384628 0.743179 0.000000 
0.034863 0.900650 0.000000 
0.099547 0.821970 0.000000 
0.105029 0.654090 0.000000 
0.104515 0.736656 0.000000 
0.049238 0.734495 0.000000 
0.159413 0.738904 0.000000 
0.216214 0.656238 0.000000 
0.088899 0.342730 0.000000 
0.094132 0.418220 0.000000 
0.036836 0.422172 0.000000 
0.208977 0.416962 0.000000 
0.151494 0.416761 0.000000 
0.204909 0.341569 0.000000 
0.046358 0.575936 0.000000 
0.098959 0.495157 0.000000 
0.102829 0.573705 0.000000 
0.382863 0.421163 0.000000 
0.440428 0.348194 0.000000 
0.271594 0.575351 0.000000 
0.326823 0.496892 0.000000 
0.321983 0.344956 0.000000 
0.324616 0.419683 0.000000 
0.266662 0.418126 0.000000 
0.159034 0.573432 0.000000 
0.212586 0.494451 0.000000 
0.215217 0.574180 0.000000 
0.025639 0.272358 0.000000 
0.083752 0.268571 0.000000 
0.075590 0.124011 0.000000 
0.079163 0.195669 0.000000 
0.016558 0.126155 0.000000 
0.142158 0.267391 0.000000 
0.200824 0.268100 0.000000 
0.073962 -0.082392 0.000000 
0.014226 -0.149033 0.000000 
0.192812 0.057170 0.000000 
0.133129 -0.013796 0.000000 
0.012731 -0.015316 0.000000 
0.072924 -0.015207 0.000000 
0.073434 0.053667 0.000000 
0.379064 0.275150 0.000000 
0.259803 0.270057 0.000000 
0.319192 0.272627 0.000000 
0.316488 0.202530 0.000000 
0.253981 0.129717 0.000000 
0.134889 0.124110 0.000000 
0.194324 0.126118 0.000000 
0.197149 0.196357 0.000000 
0.046781 -0.211790 0.000000 
0.077101 -0.179587 0.000000 
0.045981 -0.180329 0.000000 
0.139513 -0.177517 0.000000 
0.108278 -0.178686 0.000000 
0.109493 -0.210059 0.000000 
0.105589 -0.114481 0.000000 
0.106919 -0.146828 0.000000 
0.136237 -0.113385 0.000000 
0.264568 -0.167970 0.000000 
0.233367 -0.171312 0.000000 
0.236487 -0.202412 0.000000 
0.227639 -0.107355 0.000000 
0.230331 -0.139604 0.000000 
0.257781 -0.104094 0.000000 
0.172755 -0.207222 0.000000 
0.202090 -0.173938 0.000000 
0.170792 -0.175970 0.000000 
0.222516 0.025355 0.000000 
0.222914 -0.008253 0.000000 
0.252324 0.028091 0.000000 
0.165179 -0.079149 0.000000 
0.193970 -0.044077 0.000000 
0.163931 -0.045987 0.000000 
0.253672 -0.038500 0.000000 
0.223884 -0.041603 0.000000 
0.225462 -0.074659 0.000000 
0.168745 -0.144186 0.000000 
0.197302 -0.109921 0.000000 
0.166821 -0.111898 0.000000 
0.500000 -0.090779 0.000000 
0.468021 -0.102555 0.000000 
0.475171 -0.124829 0.000000 
0.466215 -0.055541 0.000000 
0.466265 -0.079513 0.000000 
0.500000 -0.052134 0.000000 
0.425811 -0.161732 0.000000 
0.441168 -0.118797 0.000000 
0.414455 -0.132753 0.000000 
0.467598 0.052590 0.000000 
0.467255 0.023871 0.000000 
0.500000 0.053383 0.000000 
0.403382 -0.043013 0.000000 
0.434513 -0.007799 0.000000 
0.403138 -0.013281 0.000000 
0.500000 -0.002316 0.000000 
0.466894 -0.003800 0.000000 
0.466525 -0.030307 0.000000 
0.300436 -0.194625 0.000000 
0.326383 -0.158496 0.000000 
0.295614 -0.163763 0.000000 
0.386198 -0.143523 0.000000 
0.356683 -0.151889 0.000000 
0.364107 -0.182268 0.000000 
0.346528 -0.088808 0.000000 
0.350695 -0.120581 0.000000 
0.375548 -0.081388 0.000000 
0.434520 -0.063523 0.000000 
0.404637 -0.072755 0.000000 
0.407842 -0.102718 0.000000 
[...]
POINT_DATA 16641

SCALARS u_h float 2
LOOKUP_TABLE default
0.015559 -0.212493 
-0.015559 -0.212493 
0.000000 0.000000 
0.000000 0.000000 
-0.000000 -0.100000 
-0.031204 -0.153176 
0.000000 0.000000 
0.031204 -0.153176 
-0.000000 -0.151341 
0.018456 -0.198967 
0.000000 -0.167131 
0.002478 -0.188293 
-0.018456 -0.198967 
-0.002478 -0.188293 
-0.013865 -0.195333 
-0.013281 -0.156989 
-0.049054 -0.095460 
-0.022185 -0.092504 
0.000000 0.000000 
-0.000000 -0.089860 
0.000000 0.000000 
0.022185 -0.092504 
0.049054 -0.095460 
0.013281 -0.156989 
0.013865 -0.195333 
0.016055 -0.208832 
0.005355 -0.196452 
0.009846 -0.205608 
0.000000 -0.153137 
-0.001532 -0.175271 
0.020451 -0.173417 
0.002054 -0.168986 
-0.001507 -0.175273 
0.000000 -0.165410 
-0.020451 -0.173417 
0.001532 -0.175271 
-0.009846 -0.205608 
-0.005355 -0.196452 
-0.016055 -0.208832 
0.001507 -0.175273 
-0.002054 -0.168986 
-0.013031 -0.208334 
-0.008151 -0.195511 
-0.021799 -0.158754 
-0.013035 -0.179947 
-0.020610 -0.176215 
-0.006577 -0.175947 
-0.006045 -0.153157 
-0.042065 -0.126484 
-0.030758 -0.130904 
-0.028982 -0.049733 
-0.035595 -0.095032 
-0.045462 -0.058837 
-0.019577 -0.129451 
-0.009348 -0.126885 
0.000000 0.000000 
-0.016606 -0.047410 
0.000000 -0.046467 
-0.007576 -0.046686 
0.000000 0.000000 
-0.010473 -0.090577 
-0.000000 -0.125745 
0.000000 0.000000 
0.007576 -0.046686 
0.028982 -0.049733 
0.016606 -0.047410 
0.000000 0.000000 
0.010473 -0.090577 
0.009348 -0.126885 
0.045462 -0.058837 
0.035595 -0.095032 
0.021799 -0.158754 
0.030758 -0.130904 
0.042065 -0.126484 
0.019577 -0.129451 
0.006045 -0.153157 
0.020610 -0.176215 
0.013035 -0.179947 
0.008151 -0.195511 
0.013031 -0.208334 
0.006577 -0.175947 
0.015574 -0.211009 
0.012844 -0.208197 
0.013497 -0.210185 
0.010908 -0.198811 
0.012090 -0.204690 
0.017075 -0.205120 
0.005570 -0.198123 
0.007895 -0.202195 
0.002690 -0.192809 
-0.000000 -0.136081 
-0.001330 -0.153579 
0.015869 -0.145685 
-0.002527 -0.166583 
-0.003248 -0.160880 
0.000000 -0.162563 
0.019858 -0.189166 
0.004560 -0.175088 
0.008713 -0.189507 
0.001891 -0.160512 
0.000801 -0.166380 
0.000000 -0.159841 
-0.000002 -0.182154 
0.000138 -0.173209 
0.001634 -0.178100 
0.000000 -0.167917 
-0.000314 -0.169382 
-0.001438 -0.169468 
0.002075 -0.187653 
-0.002466 -0.175663 
-0.000262 -0.185163 
-0.015869 -0.145685 
0.001330 -0.153579 
-0.008713 -0.189507 
-0.004560 -0.175088 
-0.019858 -0.189166 
0.003248 -0.160880 
0.002527 -0.166583 
-0.013497 -0.210185 
-0.012844 -0.208197 
-0.015574 -0.211009 
-0.002690 -0.192809 
-0.007895 -0.202195 
-0.005570 -0.198123 
-0.017075 -0.205120 
-0.012090 -0.204690 
-0.010908 -0.198811 
-0.000801 -0.166380 
-0.001891 -0.160512 
0.001438 -0.169468 
0.000314 -0.169382 
-0.001634 -0.178100 
-0.000138 -0.173209 
0.000002 -0.182154 
-0.002075 -0.187653 
0.000262 -0.185163 
0.002466 -0.175663 
-0.014226 -0.211533 
-0.011462 -0.207392 
-0.010934 -0.196333 
-0.010424 -0.202707 
-0.012731 -0.202816 
-0.008129 -0.201296 
-0.005312 -0.192830 
-0.026399 -0.157270 
-0.021252 -0.168929 
-0.025639 -0.165142 
-0.013324 -0.169400 
-0.017158 -0.170109 
-0.017409 -0.158431 
-0.016558 -0.186345 
-0.016663 -0.179331 
-0.013090 -0.188489 
-0.004064 -0.162350 
-0.002928 -0.151806 
-0.003981 -0.182783 
-0.003988 -0.172470 
-0.009483 -0.155044 
-0.006692 -0.164873 
-0.009803 -0.167443 
-0.009889 -0.188390 
-0.009649 -0.178643 
-0.006824 -0.186382 
-0.036836 -0.140328 
-0.031632 -0.144280 
-0.040329 -0.113795 
-0.036459 -0.129843 
-0.046358 -0.111564 
-0.026494 -0.145739 
-0.021477 -0.145538 
-0.024275 -0.026794 
-0.037047 -0.053030 
-0.034863 -0.036850 
-0.028714 -0.093762 
-0.034413 -0.073596 
-0.027222 -0.071921 
-0.049238 -0.078005 
-0.042015 -0.075844 
-0.042529 -0.095910 
-0.007863 -0.141337 
-0.003860 -0.140294 
-0.016662 -0.144374 
-0.012116 -0.142817 
-0.015782 -0.110926 
-0.014323 -0.128108 
-0.021594 -0.112149 
-0.034034 -0.114068 
-0.027717 -0.113320 
-0.025086 -0.130549 
0.000000 0.000000 
-0.017476 -0.024269 
-0.009540 -0.023454 
-0.012966 -0.023637 
0.000000 0.000000 
-0.022225 -0.048185 
-0.020726 -0.070743 
0.000000 -0.023332 
-0.002091 -0.023341 
0.000000 0.000000 
-0.004720 -0.068968 
-0.003701 -0.046525 
-0.000000 -0.068846 
0.000000 0.000000 
-0.004294 -0.023359 
-0.006727 -0.023390 
-0.004608 -0.126045 
-0.000000 -0.139920 
-0.016115 -0.091415 
-0.010298 -0.109893 
-0.000000 -0.108965 
-0.005076 -0.109207 
-0.005152 -0.090046 
-0.011809 -0.046965 
-0.009628 -0.069321 
-0.014906 -0.069904 
0.000000 0.000000 
0.002091 -0.023341 
0.006727 -0.023390 
0.004294 -0.023359 
0.000000 0.000000 
0.003701 -0.046525 
0.004720 -0.068968 
0.024275 -0.026794 
0.017476 -0.024269 
0.000000 0.000000 
0.020726 -0.070743 
0.022225 -0.048185 
0.027222 -0.071921 
0.000000 0.000000 
0.012966 -0.023637 
0.009540 -0.023454 
0.004608 -0.126045 
0.003860 -0.140294 
0.005152 -0.090046 
0.005076 -0.109207 
0.015782 -0.110926 
0.010298 -0.109893 
0.016115 -0.091415 
0.011809 -0.046965 
0.014906 -0.069904 
0.009628 -0.069321 
0.034863 -0.036850 
0.037047 -0.053030 
0.042529 -0.095910 
0.042015 -0.075844 
0.049238 -0.078005 
0.034413 -0.073596 
0.028714 -0.093762 
0.026399 -0.157270 
0.031632 -0.144280 
0.036836 -0.140328 
0.021477 -0.145538 
0.026494 -0.145739 
0.017409 -0.158431 
0.046358 -0.111564 
0.036459 -0.129843 
0.040329 -0.113795 
0.007863 -0.141337 
0.002928 -0.151806 
0.021594 -0.112149 
0.014323 -0.128108 
0.009483 -0.155044 
0.012116 -0.142817 
0.016662 -0.144374 
0.034034 -0.114068 
0.025086 -0.130549 
0.027717 -0.113320 
0.025639 -0.165142 
0.021252 -0.168929 
0.013090 -0.188489 
0.016663 -0.179331 
0.016558 -0.186345 
0.017158 -0.170109 
0.013324 -0.169400 
0.011462 -0.207392 
0.014226 -0.211533 
0.005312 -0.192830 
0.008129 -0.201296 
0.012731 -0.202816 
0.010424 -0.202707 
0.010934 -0.196333 
0.004064 -0.162350 
0.009803 -0.167443 
0.006692 -0.164873 
0.003988 -0.172470 
0.003981 -0.182783 
0.009889 -0.188390 
0.006824 -0.186382 
0.009649 -0.178643 
0.015531 -0.211790 
0.014601 -0.210837 
0.014731 -0.211579 
0.014513 -0.208767 
0.014528 -0.209936 
0.015743 -0.210059 
0.011839 -0.208231 
0.013169 -0.209328 
0.011237 -0.207135 
0.014568 -0.199220 
0.014617 -0.202562 
0.017737 -0.202412 
0.008889 -0.201105 
0.011581 -0.202104 
0.007781 -0.197844 
0.016505 -0.207222 
0.014590 -0.205188 
0.014542 -0.207220 
0.003766 -0.193395 
0.004164 -0.195753 
0.002324 -0.190659 
0.008929 -0.204149 
0.006470 -0.200327 
0.007681 -0.202237 
0.003672 -0.194750 
0.005134 -0.197853 
0.006712 -0.199659 
0.012495 -0.206686 
0.009802 -0.203671 
0.010571 -0.205648 
-0.000000 -0.122029 
-0.000729 -0.133805 
0.006421 -0.124829 
-0.002535 -0.149291 
-0.002485 -0.142013 
-0.000000 -0.145884 
0.019561 -0.161732 
0.003668 -0.150047 
0.008205 -0.164003 
-0.001152 -0.166160 
-0.001495 -0.163629 
0.000000 -0.165367 
-0.002868 -0.168013 
-0.002987 -0.164049 
-0.003112 -0.169531 
0.000000 -0.158566 
-0.001856 -0.160050 
-0.002225 -0.155307 
0.019186 -0.194625 
0.013883 -0.189746 
0.014364 -0.195013 
0.011198 -0.174773 
0.012933 -0.183139 
0.020357 -0.182268 
0.002778 -0.182558 
0.006945 -0.183081 
0.000548 -0.175138 
-0.002980 -0.157273 
-0.001613 -0.166505 
0.001592 -0.165218 
0.001193 -0.156089 
0.000926 -0.160011 
0.000000 -0.155948 
0.001350 -0.167519 
0.001350 -0.163802 
0.002141 -0.164751 
0.000000 -0.162999 
0.000651 -0.163204 
0.000369 -0.165658 
0.001160 -0.185389 
0.000694 -0.180294 
0.001791 -0.183110 
-0.000735 -0.174488 
-0.000168 -0.177362 
-0.000922 -0.178717 
0.001806 -0.173396 
0.000760 -0.175609 
0.001075 -0.171387 
0.000000 -0.167958 
-0.000514 -0.168431 
-0.000826 -0.167737 
0.000081 -0.167360 
-0.000212 -0.168293 
0.000000 -0.167057 
-0.001686 -0.172085 
-0.000876 -0.169794 
-0.000970 -0.171887 
0.000562 -0.169623 
-0.000215 -0.171074 
0.000246 -0.168242 
0.009988 -0.194671 
0.000234 -0.181907 
0.004763 -0.188722 
0.006423 -0.193764 
0.003805 -0.192481 
-0.001995 -0.168398 
-0.002118 -0.175633 
-0.002332 -0.171708 
-0.002849 -0.170820 
-0.002373 -0.175491 
0.000921 -0.187427 
0.002101 -0.190961 
0.001188 -0.189273 
-0.000364 -0.183752 
-0.001420 -0.179753 
-0.001080 -0.181250 
-0.001537 -0.180562 
0.000478 -0.186453 
-0.006421 -0.124829 
0.000729 -0.133805 
-0.008205 -0.164003 
-0.003668 -0.150047 
-0.019561 -0.161732 
0.002485 -0.142013 
0.002535 -0.149291 
-0.014364 -0.195013 
-0.013883 -0.189746 
-0.019186 -0.194625 
-0.000548 -0.175138 
-0.006945 -0.183081 
-0.002778 -0.182558 
-0.020357 -0.182268 
-0.012933 -0.183139 
-0.011198 -0.174773 
0.001495 -0.163629 
0.001152 -0.166160 
0.002225 -0.155307 
0.001856 -0.160050 
0.003112 -0.169531 
0.002987 -0.164049 
0.002868 -0.168013 
-0.001592 -0.165218 
0.001613 -0.166505 
0.002980 -0.157273 
-0.014731 -0.211579 
-0.014601 -0.210837 
-0.015531 -0.211790 
-0.011237 -0.207135 
-0.013169 -0.209328 
-0.011839 -0.208231 
-0.015743 -0.210059 
-0.014528 -0.209936 
-0.014513 -0.208767 
-0.002324 -0.190659 
-0.004164 -0.195753 
-0.003766 -0.193395 
-0.006712 -0.199659 
-0.005134 -0.197853 
-0.003672 -0.194750 
-0.007681 -0.202237 
-0.006470 -0.200327 
-0.008929 -0.204149 
-0.017737 -0.202412 
-0.014617 -0.202562 
-0.014568 -0.199220 
-0.014542 -0.207220 
-0.014590 -0.205188 
-0.016505 -0.207222 
-0.007781 -0.197844 
-0.011581 -0.202104 
-0.008889 -0.201105 
-0.010571 -0.205648 
-0.009802 -0.203671 
-0.012495 -0.206686 
-0.000926 -0.160011 
-0.001193 -0.156089 
-0.000369 -0.165658 
-0.000651 -0.163204 
-0.002141 -0.164751 
-0.001350 -0.163802 
-0.001350 -0.167519 
0.000826 -0.167737 
0.000514 -0.168431 
0.000970 -0.171887 
0.000876 -0.169794 
0.001686 -0.172085 
0.000212 -0.168293 
-0.000081 -0.167360 
-0.001791 -0.183110 
-0.000694 -0.180294 
-0.001160 -0.185389 
-0.001075 -0.171387 
-0.000760 -0.175609 
-0.001806 -0.173396 
0.000922 -0.178717 
0.000168 -0.177362 
0.000735 -0.174488 
-0.000246 -0.168242 
0.000215 -0.171074 
-0.000562 -0.169623 
-0.009988 -0.194671 
-0.003805 -0.192481 
-0.006423 -0.193764 
-0.004763 -0.188722 
-0.000234 -0.181907 
-0.000921 -0.187427 
0.001420 -0.179753 
0.000364 -0.183752 
-0.001188 -0.189273 
-0.002101 -0.190961 
0.001995 -0.168398 
0.002373 -0.175491 
0.002849 -0.170820 
0.002332 -0.171708 
0.002118 -0.175633 
-0.000478 -0.186453 
0.001537 -0.180562 
0.001080 -0.181250 
-0.014907 -0.212259 
-0.013847 -0.210879 
-0.012232 -0.207909 
-0.012974 -0.209657 
-0.013565 -0.210233 
-0.012408 -0.209035 
-0.010679 -0.206659 
-0.012357 -0.196062 
-0.011750 -0.199685 
-0.013101 -0.199291 
-0.009204 -0.199358 
-0.010470 -0.199717 
-0.009543 -0.196151 
-0.012725 -0.205848 
-0.011549 -0.202892 
-0.011729 -0.205646 
-0.005194 -0.195619 
-0.003880 -0.190787 
-0.008785 -0.203650 
-0.006891 -0.199956 
-0.006741 -0.194406 
-0.006580 -0.197339 
-0.007915 -0.198576 
-0.010773 -0.205275 
-0.009297 -0.202195 
-0.009805 -0.204638 
-0.028774 -0.155607 
-0.026048 -0.161646 
-0.028383 -0.159273 
-0.021584 -0.164221 
-0.023785 -0.163260 
-0.024075 -0.158285 
-0.023029 -0.170790 
-0.023403 -0.167412 
-0.020897 -0.172906 
-0.013395 -0.163417 
-0.015341 -0.164144 
-0.015308 -0.157810 
-0.015003 -0.175209 
-0.015206 -0.169949 
-0.013171 -0.174918 
-0.019575 -0.158773 
-0.017360 -0.164575 
-0.019442 -0.164630 
-0.015023 -0.191001 
-0.014774 -0.187724 
-0.013372 -0.192064 
-0.018586 -0.178129 
-0.016527 -0.183072 
-0.018435 -0.181407 
-0.012990 -0.184469 
-0.014722 -0.184068 
-0.014817 -0.179913 
-0.019172 -0.169797 
-0.016897 -0.175024 
-0.018859 -0.174285 
-0.002418 -0.156512 
-0.001451 -0.151444 
-0.003055 -0.165981 
-0.002928 -0.161310 
-0.004453 -0.152389 
-0.003702 -0.157190 
-0.005066 -0.158079 
-0.003058 -0.185681 
-0.002723 -0.180533 
-0.005210 -0.174262 
-0.003882 -0.177600 
-0.005174 -0.179553 
-0.002748 -0.175510 
-0.002932 -0.170675 
-0.011337 -0.156043 
-0.009761 -0.161393 
-0.011532 -0.162474 
-0.006527 -0.159121 
-0.008091 -0.160250 
-0.007719 -0.154061 
-0.008136 -0.171922 
-0.008190 -0.166193 
-0.006660 -0.170472 
-0.004111 -0.167407 
-0.005314 -0.168936 
-0.005316 -0.163564 
-0.011815 -0.192583 
-0.011312 -0.184337 
-0.011470 -0.188696 
-0.010308 -0.192593 
-0.008821 -0.192114 
-0.011518 -0.168538 
-0.008065 -0.177434 
-0.009725 -0.173200 
-0.011409 -0.174223 
-0.011310 -0.179503 
-0.004435 -0.187916 
-0.007342 -0.191163 
-0.005874 -0.189756 
-0.005361 -0.184756 
-0.006592 -0.181274 
-0.009681 -0.183726 
-0.008102 -0.182686 
-0.008339 -0.187607 
-0.034040 -0.146874 
-0.031521 -0.149286 
-0.036835 -0.135754 
-0.034227 -0.142673 
-0.039532 -0.133535 
-0.029035 -0.150948 
-0.026584 -0.151972 
-0.044887 -0.104675 
-0.043391 -0.112997 
-0.047955 -0.103668 
-0.033614 -0.130600 
-0.038554 -0.122032 
-0.035569 -0.122596 
-0.044366 -0.119164 
-0.041491 -0.120935 
-0.039280 -0.128513 
-0.019472 -0.152237 
-0.017205 -0.151691 
-0.024169 -0.152464 
-0.021796 -0.152522 
-0.026025 -0.138585 
-0.023966 -0.145800 
-0.028712 -0.138560 
-0.034128 -0.137252 
-0.031417 -0.138149 
-0.029052 -0.145266 
-0.017416 -0.015222 
-0.029208 -0.030336 
-0.024700 -0.023436 
-0.032866 -0.051082 
-0.031949 -0.040354 
-0.027735 -0.038296 
-0.041312 -0.048339 
-0.036630 -0.043664 
-0.041354 -0.055671 
-0.025395 -0.093119 
-0.028340 -0.083115 
-0.024976 -0.082455 
-0.035428 -0.084623 
-0.031834 -0.083841 
-0.032124 -0.094412 
-0.028666 -0.060981 
-0.030738 -0.072685 
-0.032344 -0.061951 
-0.049533 -0.086917 
-0.046213 -0.086745 
-0.045872 -0.095939 
-0.044227 -0.066722 
-0.045740 -0.077035 
-0.047971 -0.068674 
-0.039082 -0.095562 
-0.042697 -0.086179 
-0.039072 -0.085427 
-0.036231 -0.063219 
-0.038200 -0.074660 
-0.040243 -0.064827 
-0.003412 -0.146398 
-0.001697 -0.146083 
-0.006985 -0.147577 
-0.005169 -0.146906 
-0.006436 -0.133905 
-0.005836 -0.140743 
-0.008659 -0.134437 
-0.015006 -0.150962 
-0.012881 -0.150122 
-0.015712 -0.136503 
-0.014353 -0.143613 
-0.018203 -0.137207 
-0.010835 -0.149238 
-0.008871 -0.148371 
-0.019061 -0.102009 
-0.018646 -0.111527 
-0.022105 -0.102611 
-0.011802 -0.127463 
-0.015168 -0.119821 
-0.012501 -0.119224 
-0.020728 -0.121098 
-0.017911 -0.120457 
-0.016915 -0.128784 
-0.009954 -0.142042 
-0.013291 -0.135775 
-0.010941 -0.135072 
-0.041692 -0.105100 
-0.035084 -0.104838 
-0.038410 -0.105109 
-0.037200 -0.114109 
-0.032560 -0.122748 
-0.025244 -0.103229 
-0.023615 -0.121703 
-0.024622 -0.112760 
-0.028468 -0.103834 
-0.031757 -0.104388 
-0.019040 -0.145038 
-0.027910 -0.130856 
-0.023369 -0.138315 
-0.020758 -0.137832 
-0.022304 -0.130058 
-0.030863 -0.113777 
-0.026561 -0.122221 
-0.029549 -0.122594 
0.000000 0.000000 
-0.013355 -0.012836 
-0.009268 -0.011762 
-0.010958 -0.012058 
0.000000 0.000000 
-0.020461 -0.025093 
-0.024081 -0.037078 
-0.005016 -0.011603 
-0.005872 -0.011596 
0.000000 0.000000 
-0.015666 -0.035628 
-0.011156 -0.023520 
-0.013433 -0.035438 
0.000000 0.000000 
-0.006834 -0.011603 
-0.007942 -0.011644 
-0.023884 -0.071281 
-0.021753 -0.081863 
-0.025442 -0.048816 
-0.025225 -0.060243 
-0.019030 -0.059223 
-0.022018 -0.059673 
-0.019294 -0.047738 
-0.015037 -0.023854 
-0.018139 -0.035910 
-0.020916 -0.036353 
0.000000 -0.011661 
-0.000543 -0.011662 
0.000000 0.000000 
-0.001474 -0.034965 
-0.001039 -0.023336 
0.000000 -0.034956 
0.000000 0.000000 
-0.001094 -0.011660 
-0.001661 -0.011655 
-0.002491 -0.079601 
-0.002348 -0.068878 
-0.000000 -0.079560 
-0.005605 -0.046592 
-0.004286 -0.057879 
-0.006488 -0.057986 
0.000000 -0.057789 
-0.002132 -0.057813 
-0.001840 -0.046483 
0.000000 0.000000 
-0.003530 -0.011628 
-0.004241 -0.011615 
-0.002250 -0.011648 
-0.002870 -0.011639 
0.000000 0.000000 
-0.007744 -0.035125 
-0.005473 -0.023372 
-0.006081 -0.035065 
-0.002966 -0.034986 
-0.004495 -0.035019 
-0.003172 -0.023349 
-0.001921 -0.140015 
-0.000000 -0.145978 
-0.006954 -0.126405 
-0.004262 -0.133504 
-0.000000 -0.133170 
-0.002123 -0.133255 
-0.002295 -0.125821 
-0.019092 -0.091933 
-0.016115 -0.101447 
-0.010498 -0.100506 
-0.013263 -0.100941 
-0.013246 -0.090961 
-0.013001 -0.110375 
-0.009904 -0.118697 
-0.000000 -0.099681 
-0.002575 -0.099736 
-0.002565 -0.089908 
-0.002433 -0.117735 
-0.002529 -0.109027 
-0.000000 -0.117666 
-0.007781 -0.090270 
-0.005171 -0.099895 
-0.007805 -0.100154 
-0.007369 -0.118261 
-0.007661 -0.109499 
-0.004884 -0.117936 
-0.008075 -0.023415 
-0.009635 -0.046809 
-0.009506 -0.035203 
-0.011392 -0.035303 
-0.014122 -0.047160 
-0.005006 -0.079715 
-0.010192 -0.080160 
-0.007565 -0.079902 
-0.007139 -0.069116 
-0.008759 -0.058135 
-0.018673 -0.081339 
-0.016235 -0.058862 
-0.017739 -0.070288 
-0.015728 -0.080880 
-0.012907 -0.080487 
-0.011125 -0.058327 
-0.012209 -0.069583 
-0.013608 -0.058567 
0.000000 0.000000 
0.000543 -0.011662 
0.001661 -0.011655 
0.001094 -0.011660 
0.000000 0.000000 
0.001039 -0.023336 
0.001474 -0.034965 
0.004241 -0.011615 
0.003530 -0.011628 
0.000000 0.000000 
0.006081 -0.035065 
0.005473 -0.023372 
0.007744 -0.035125 
0.000000 0.000000 
0.002870 -0.011639 
0.002250 -0.011648 
0.002348 -0.068878 
0.002491 -0.079601 
0.001840 -0.046483 
0.002132 -0.057813 
0.006488 -0.057986 
0.004286 -0.057879 
0.005605 -0.046592 
0.003172 -0.023349 
0.004495 -0.035019 
0.002966 -0.034986 
0.017416 -0.015222 
0.013355 -0.012836 
0.000000 0.000000 
0.024081 -0.037078 
0.020461 -0.025093 
0.027735 -0.038296 
0.000000 0.000000 
0.010958 -0.012058 
0.009268 -0.011762 
0.021753 -0.081863 
0.023884 -0.071281 
0.024976 -0.082455 
0.019294 -0.047738 
0.022018 -0.059673 
0.019030 -0.059223 
0.028666 -0.060981 
0.025225 -0.060243 
0.025442 -0.048816 
0.000000 0.000000 
0.005872 -0.011596 
0.005016 -0.011603 
0.007942 -0.011644 
0.006834 -0.011603 
0.000000 0.000000 
0.013433 -0.035438 
0.011156 -0.023520 
0.015666 -0.035628 
0.020916 -0.036353 
0.018139 -0.035910 
0.015037 -0.023854 
0.001921 -0.140015 
0.001697 -0.146083 
0.002295 -0.125821 
0.002123 -0.133255 
0.006436 -0.133905 
0.004262 -0.133504 
0.006954 -0.126405 
0.002565 -0.089908 
0.002575 -0.099736 
0.007805 -0.100154 
0.005171 -0.099895 
0.007781 -0.090270 
0.002529 -0.109027 
0.002433 -0.117735 
0.019061 -0.102009 
0.016115 -0.101447 
0.019092 -0.091933 
0.009904 -0.118697 
0.013001 -0.110375 
0.012501 -0.119224 
0.013246 -0.090961 
0.013263 -0.100941 
0.010498 -0.100506 
0.004884 -0.117936 
0.007661 -0.109499 
0.007369 -0.118261 
0.008075 -0.023415 
0.014122 -0.047160 
0.011392 -0.035303 
0.009506 -0.035203 
0.009635 -0.046809 
0.018673 -0.081339 
0.012907 -0.080487 
0.015728 -0.080880 
0.017739 -0.070288 
0.016235 -0.058862 
0.005006 -0.079715 
0.008759 -0.058135 
0.007139 -0.069116 
0.007565 -0.079902 
0.010192 -0.080160 
0.013608 -0.058567 
0.012209 -0.069583 
0.011125 -0.058327 
0.024700 -0.023436 
0.029208 -0.030336 
0.041354 -0.055671 
0.036630 -0.043664 
0.041312 -0.048339 
0.031949 -0.040354 
0.032866 -0.051082 
0.045872 -0.095939 
0.046213 -0.086745 
0.049533 -0.086917 
0.039072 -0.085427 
0.042697 -0.086179 
0.039082 -0.095562 
0.047971 -0.068674 
0.045740 -0.077035 
0.044227 -0.066722 
0.028340 -0.083115 
0.025395 -0.093119 
0.032344 -0.061951 
0.030738 -0.072685 
0.032124 -0.094412 
0.031834 -0.083841 
0.035428 -0.084623 
0.040243 -0.064827 
0.038200 -0.074660 
0.036231 -0.063219 
0.028774 -0.155607 
0.031521 -0.149286 
0.034040 -0.146874 
0.026584 -0.151972 
0.029035 -0.150948 
0.024075 -0.158285 
0.039532 -0.133535 
0.034227 -0.142673 
0.036835 -0.135754 
0.017205 -0.151691 
0.019472 -0.152237 
0.015308 -0.157810 
0.028712 -0.138560 
0.023966 -0.145800 
0.026025 -0.138585 
0.019575 -0.158773 
0.021796 -0.152522 
0.024169 -0.152464 
0.047955 -0.103668 
0.043391 -0.112997 
0.044887 -0.104675 
0.039280 -0.128513 
0.041491 -0.120935 
0.044366 -0.119164 
0.035569 -0.122596 
0.038554 -0.122032 
0.033614 -0.130600 
0.029052 -0.145266 
0.031417 -0.138149 
0.034128 -0.137252 
0.003412 -0.146398 
0.001451 -0.151444 
0.008659 -0.134437 
0.005836 -0.140743 
0.004453 -0.152389 
0.005169 -0.146906 
0.006985 -0.147577 
0.022105 -0.102611 
0.018646 -0.111527 
0.016915 -0.128784 
0.017911 -0.120457 
0.020728 -0.121098 
0.015168 -0.119821 
0.011802 -0.127463 
0.011337 -0.156043 
0.012881 -0.150122 
0.015006 -0.150962 
0.008871 -0.148371 
0.010835 -0.149238 