# vtk DataFile Version 2.0
Unstructured Grid Example
ASCII
DATASET UNSTRUCTURED_GRID

POINTS 32 float
0.000000 0.000000 0.000000 
0.062500 0.000000 0.000000 
0.062500 0.000000 0.000000 
0.125000 0.000000 0.000000 
0.125000 0.000000 0.000000 
0.187500 0.000000 0.000000 
0.187500 24.960421 0.000000 
0.250000 -49.920842 0.000000 
0.375000 -4.453080 0.000000 
0.437500 -5.604151 0.000000 
0.437500 -5.321411 0.000000 
0.500000 -5.018560 0.000000 
0.250000 -49.783157 0.000000 
0.312500 24.685051 0.000000 
0.312500 4.561400 0.000000 
0.375000 -9.535856 0.000000 
0.500000 -5.018560 0.000000 
0.562500 -5.321411 0.000000 
0.562500 -5.604151 0.000000 
0.625000 -4.453080 0.000000 
0.625000 -9.535856 0.000000 
0.687500 4.561400 0.000000 
0.687500 24.685051 0.000000 
0.750000 -49.783157 0.000000 
0.875000 0.000000 0.000000 
0.937500 0.000000 0.000000 
0.937500 0.000000 0.000000 
1.000000 0.000000 0.000000 
0.750000 -49.920842 0.000000 
0.812500 24.960421 0.000000 
0.812500 0.000000 0.000000 
0.875000 0.000000 0.000000 

CELLS 16 48
2  0 1 
2  2 3 
2  4 5 
2  6 7 
2  8 9 
2  10 11 
2  12 13 
2  14 15 
2  16 17 
2  18 19 
2  20 21 
2  22 23 
2  24 25 
2  26 27 
2  28 29 
2  30 31 

CELL_TYPES 16
3
3
3
3
3
3
3
3
3
3
3
3
3
3
3
3

POINT_DATA 32

SCALARS lambda_h float 1
LOOKUP_TABLE default
0.000000 
0.000000 
0.000000 
0.000000 
0.000000 
0.000000 
24.960421 
-49.920842 
-4.453080 
-5.604151 
-5.321411 
-5.018560 
-49.783157 
24.685051 
4.561400 
-9.535856 
-5.018560 
-5.321411 
-5.604151 
-4.453080 
-9.535856 
4.561400 
24.685051 
-49.783157 
0.000000 
0.000000 
0.000000 
0.000000 
-49.920842 
24.960421 
0.000000 
0.000000 

