# vtk DataFile Version 2.0
Unstructured Grid Example
ASCII
DATASET UNSTRUCTURED_GRID

POINTS 256 float
0.000000 0.000000 0.000000 
0.007812 0.000000 0.000000 
0.007812 -0.000000 0.000000 
0.015625 0.000000 0.000000 
0.015625 -0.000000 0.000000 
0.023438 0.000000 0.000000 
0.023438 -0.000000 0.000000 
0.031250 0.000000 0.000000 
0.046875 -0.000000 0.000000 
0.054688 0.000000 0.000000 
0.054688 -0.000000 0.000000 
0.062500 0.000000 0.000000 
0.031250 -0.000000 0.000000 
0.039062 0.000000 0.000000 
0.039062 -0.000000 0.000000 
0.046875 0.000000 0.000000 
0.109375 -0.000000 0.000000 
0.117188 0.000000 0.000000 
0.117188 -0.000000 0.000000 
0.125000 0.000000 0.000000 
0.093750 -0.000000 0.000000 
0.101562 0.000000 0.000000 
0.101562 -0.000000 0.000000 
0.109375 0.000000 0.000000 
0.062500 -0.000000 0.000000 
0.070312 0.000000 0.000000 
0.070312 -0.000000 0.000000 
0.078125 0.000000 0.000000 
0.078125 -0.000000 0.000000 
0.085938 0.000000 0.000000 
0.085938 -0.000000 0.000000 
0.093750 0.000000 0.000000 
0.234375 -51.017370 0.000000 
0.242188 2.625935 0.000000 
0.242188 -18.638474 0.000000 
0.250000 -8.488550 0.000000 
0.218750 3.220261 0.000000 
0.226562 -6.440522 0.000000 
0.226562 26.695746 0.000000 
0.234375 -63.052275 0.000000 
0.187500 -0.000000 0.000000 
0.195312 0.000000 0.000000 
0.195312 -0.000000 0.000000 
0.203125 0.000000 0.000000 
0.203125 -0.000000 0.000000 
0.210938 0.000000 0.000000 
0.210938 -0.000000 0.000000 
0.218750 0.000000 0.000000 
0.125000 -0.000000 0.000000 
0.132812 0.000000 0.000000 
0.132812 -0.000000 0.000000 
0.140625 0.000000 0.000000 
0.140625 -0.000000 0.000000 
0.148438 0.000000 0.000000 
0.148438 -0.000000 0.000000 
0.156250 0.000000 0.000000 
0.171875 -0.000000 0.000000 
0.179688 0.000000 0.000000 
0.179688 -0.000000 0.000000 
0.187500 0.000000 0.000000 
0.156250 -0.000000 0.000000 
0.164062 0.000000 0.000000 
0.164062 -0.000000 0.000000 
0.171875 0.000000 0.000000 
0.484375 -5.865054 0.000000 
0.492188 -5.858455 0.000000 
0.492188 -5.877234 0.000000 
0.500000 -5.827497 0.000000 
0.468750 -5.883363 0.000000 
0.476562 -5.860247 0.000000 
0.476562 -5.873051 0.000000 
0.484375 -5.857756 0.000000 
0.437500 -5.951577 0.000000 
0.445312 -5.895935 0.000000 
0.445312 -5.930127 0.000000 
0.453125 -5.883192 0.000000 
0.453125 -5.911740 0.000000 
0.460938 -5.873030 0.000000 
0.460938 -5.896209 0.000000 
0.468750 -5.865382 0.000000 
0.375000 -6.277223 0.000000 
0.382812 -6.114116 0.000000 
0.382812 -6.216399 0.000000 
0.390625 -6.072658 0.000000 
0.390625 -6.162813 0.000000 
0.398438 -6.036089 0.000000 
0.398438 -6.115546 0.000000 
0.406250 -6.003898 0.000000 
0.421875 -6.004716 0.000000 
0.429688 -5.929668 0.000000 
0.429688 -5.976339 0.000000 
0.437500 -5.911375 0.000000 
0.406250 -6.073842 0.000000 
0.414062 -5.975659 0.000000 
0.414062 -6.037072 0.000000 
0.421875 -5.951014 0.000000 
0.250000 -13.442616 0.000000 
0.257812 -8.730343 0.000000 
0.257812 -11.253282 0.000000 
0.265625 -8.396738 0.000000 
0.265625 -10.007921 0.000000 
0.273438 -8.030917 0.000000 
0.273438 -9.179147 0.000000 
0.281250 -7.711460 0.000000 
0.296875 -7.765665 0.000000 
0.304688 -7.029272 0.000000 
0.304688 -7.477767 0.000000 
0.312500 -6.868675 0.000000 
0.281250 -8.579460 0.000000 
0.289062 -7.443146 0.000000 
0.289062 -8.123635 0.000000 
0.296875 -7.218483 0.000000 
0.359375 -6.425340 0.000000 
0.367188 -6.214277 0.000000 
0.367188 -6.346409 0.000000 
0.375000 -6.161077 0.000000 
0.343750 -6.619777 0.000000 
0.351562 -6.343155 0.000000 
0.351562 -6.515740 0.000000 
0.359375 -6.274608 0.000000 
0.312500 -7.241899 0.000000 
0.320312 -6.731319 0.000000 
0.320312 -7.045758 0.000000 
0.328125 -6.613021 0.000000 
0.328125 -6.880640 0.000000 
0.335938 -6.510520 0.000000 
0.335938 -6.740217 0.000000 
0.343750 -6.421246 0.000000 
0.500000 -5.827497 0.000000 
0.507812 -5.877234 0.000000 
0.507812 -5.858455 0.000000 
0.515625 -5.865054 0.000000 
0.515625 -5.857756 0.000000 
0.523438 -5.873051 0.000000 
0.523438 -5.860247 0.000000 
0.531250 -5.883363 0.000000 
0.546875 -5.883192 0.000000 
0.554688 -5.930127 0.000000 
0.554688 -5.895935 0.000000 
0.562500 -5.951577 0.000000 
0.531250 -5.865382 0.000000 
0.539062 -5.896209 0.000000 
0.539062 -5.873030 0.000000 
0.546875 -5.911740 0.000000 
0.609375 -6.072658 0.000000 
0.617188 -6.216399 0.000000 
0.617188 -6.114116 0.000000 
0.625000 -6.277223 0.000000 
0.593750 -6.003898 0.000000 
0.601562 -6.115546 0.000000 
0.601562 -6.036089 0.000000 
0.609375 -6.162813 0.000000 
0.562500 -5.911375 0.000000 
0.570312 -5.976339 0.000000 
0.570312 -5.929668 0.000000 
0.578125 -6.004716 0.000000 
0.578125 -5.951014 0.000000 
0.585938 -6.037072 0.000000 
0.585938 -5.975659 0.000000 
0.593750 -6.073842 0.000000 
0.734375 -8.396738 0.000000 
0.742188 -11.253282 0.000000 
0.742188 -8.730343 0.000000 
0.750000 -13.442616 0.000000 
0.718750 -7.711460 0.000000 
0.726562 -9.179147 0.000000 
0.726562 -8.030917 0.000000 
0.734375 -10.007921 0.000000 
0.687500 -6.868675 0.000000 
0.695312 -7.477767 0.000000 
0.695312 -7.029272 0.000000 
0.703125 -7.765665 0.000000 
0.703125 -7.218483 0.000000 
0.710938 -8.123635 0.000000 
0.710938 -7.443146 0.000000 
0.718750 -8.579460 0.000000 
0.625000 -6.161077 0.000000 
0.632812 -6.346409 0.000000 
0.632812 -6.214277 0.000000 
0.640625 -6.425340 0.000000 
0.640625 -6.274608 0.000000 
0.648438 -6.515740 0.000000 
0.648438 -6.343155 0.000000 
0.656250 -6.619777 0.000000 
0.671875 -6.613021 0.000000 
0.679688 -7.045758 0.000000 
0.679688 -6.731319 0.000000 
0.687500 -7.241899 0.000000 
0.656250 -6.421246 0.000000 
0.664062 -6.740217 0.000000 
0.664062 -6.510520 0.000000 
0.671875 -6.880640 0.000000 
0.984375 0.000000 0.000000 
0.992188 -0.000000 0.000000 
0.992188 0.000000 0.000000 
1.000000 0.000000 0.000000 
0.968750 0.000000 0.000000 
0.976562 -0.000000 0.000000 
0.976562 0.000000 0.000000 
0.984375 -0.000000 0.000000 
0.937500 0.000000 0.000000 
0.945312 -0.000000 0.000000 
0.945312 0.000000 0.000000 
0.953125 -0.000000 0.000000 
0.953125 0.000000 0.000000 
0.960938 -0.000000 0.000000 
0.960938 0.000000 0.000000 
0.968750 -0.000000 0.000000 
0.875000 0.000000 0.000000 
0.882812 -0.000000 0.000000 
0.882812 0.000000 0.000000 
0.890625 -0.000000 0.000000 
0.890625 0.000000 0.000000 
0.898438 -0.000000 0.000000 
0.898438 0.000000 0.000000 
0.906250 -0.000000 0.000000 
0.921875 0.000000 0.000000 
0.929688 -0.000000 0.000000 
0.929688 0.000000 0.000000 
0.937500 -0.000000 0.000000 
0.906250 0.000000 0.000000 
0.914062 -0.000000 0.000000 
0.914062 0.000000 0.000000 
0.921875 -0.000000 0.000000 
0.750000 -8.488550 0.000000 
0.757812 -18.638474 0.000000 
0.757812 2.625935 0.000000 
0.765625 -51.017370 0.000000 
0.765625 -63.052275 0.000000 
0.773438 26.695746 0.000000 
0.773438 -6.440522 0.000000 
0.781250 3.220261 0.000000 
0.796875 0.000000 0.000000 
0.804688 -0.000000 0.000000 
0.804688 0.000000 0.000000 
0.812500 -0.000000 0.000000 
0.781250 0.000000 0.000000 
0.789062 -0.000000 0.000000 
0.789062 0.000000 0.000000 
0.796875 -0.000000 0.000000 
0.859375 0.000000 0.000000 
0.867188 -0.000000 0.000000 
0.867188 0.000000 0.000000 
0.875000 -0.000000 0.000000 
0.843750 0.000000 0.000000 
0.851562 -0.000000 0.000000 
0.851562 0.000000 0.000000 
0.859375 -0.000000 0.000000 
0.812500 0.000000 0.000000 
0.820312 -0.000000 0.000000 
0.820312 0.000000 0.000000 
0.828125 -0.000000 0.000000 
0.828125 0.000000 0.000000 
0.835938 -0.000000 0.000000 
0.835938 0.000000 0.000000 
0.843750 -0.000000 0.000000 

CELLS 128 384
2  0 1 
2  2 3 
2  4 5 
2  6 7 
2  8 9 
2  10 11 
2  12 13 
2  14 15 
2  16 17 
2  18 19 
2  20 21 
2  22 23 
2  24 25 
2  26 27 
2  28 29 
2  30 31 
2  32 33 
2  34 35 
2  36 37 
2  38 39 
2  40 41 
2  42 43 
2  44 45 
2  46 47 
2  48 49 
2  50 51 
2  52 53 
2  54 55 
2  56 57 
2  58 59 
2  60 61 
2  62 63 
2  64 65 
2  66 67 
2  68 69 
2  70 71 
2  72 73 
2  74 75 
2  76 77 
2  78 79 
2  80 81 
2  82 83 
2  84 85 
2  86 87 
2  88 89 
2  90 91 
2  92 93 
2  94 95 
2  96 97 
2  98 99 
2  100 101 
2  102 103 
2  104 105 
2  106 107 
2  108 109 
2  110 111 
2  112 113 
2  114 115 
2  116 117 
2  118 119 
2  120 121 
2  122 123 
2  124 125 
2  126 127 
2  128 129 
2  130 131 
2  132 133 
2  134 135 
2  136 137 
2  138 139 
2  140 141 
2  142 143 
2  144 145 
2  146 147 
2  148 149 
2  150 151 
2  152 153 
2  154 155 
2  156 157 
2  158 159 
2  160 161 
2  162 163 
2  164 165 
2  166 167 
2  168 169 
2  170 171 
2  172 173 
2  174 175 
2  176 177 
2  178 179 
2  180 181 
2  182 183 
2  184 185 
2  186 187 
2  188 189 
2  190 191 
2  192 193 
2  194 195 
2  196 197 
2  198 199 
2  200 201 
2  202 203 
2  204 205 
2  206 207 
2  208 209 
2  210 211 
2  212 213 
2  214 215 
2  216 217 
2  218 219 
2  220 221 
2  222 223 
2  224 225 
2  226 227 
2  228 229 
2  230 231 
2  232 233 
2  234 235 
2  236 237 
2  238 239 
2  240 241 
2  242 243 
2  244 245 
2  246 247 
2  248 249 
2  250 251 
2  252 253 
2  254 255 

CELL_TYPES 128
3
3
3
3
3
3
3
3
3
3
3
3
3
3
3
3
3
3
3
3
3
3
3
3
3
3
3
3
3
3
3
3
3
3
3
3
3
3
3
3
3
3
3
3
3
3
3
3
3
3
3
3
3
3
3
3
3
3
3
3
3
3
3
3
3
3
3
3
3
3
3
3
3
3
3
3
3
3
3
3
3
3
3
3
3
3
3
3
3
3
3
3
3
3
3
3
3
3
3
3
3
3
3
3
3
3
3
3
3
3
3
3
3
3
3
3
3
3
3
3
3
3
3
3
3
3
3
3

POINT_DATA 256

SCALARS lambda_h float 1
LOOKUP_TABLE default
0.000000 
0.000000 
-0.000000 
0.000000 
-0.000000 
0.000000 
-0.000000 
0.000000 
-0.000000 
0.000000 
-0.000000 
0.000000 
-0.000000 
0.000000 
-0.000000 
0.000000 
-0.000000 
0.000000 
-0.000000 
0.000000 
-0.000000 
0.000000 
-0.000000 
0.000000 
-0.000000 
0.000000 
-0.000000 
0.000000 
-0.000000 
0.000000 
-0.000000 
0.000000 
-51.017370 
2.625935 
-18.638474 
-8.488550 
3.220261 
-6.440522 
26.695746 
-63.052275 
-0.000000 
0.000000 
-0.000000 
0.000000 
-0.000000 
0.000000 
-0.000000 
0.000000 
-0.000000 
0.000000 
-0.000000 
0.000000 
-0.000000 
0.000000 
-0.000000 
0.000000 
-0.000000 
0.000000 
-0.000000 
0.000000 
-0.000000 
0.000000 
-0.000000 
0.000000 
-5.865054 
-5.858455 
-5.877234 
-5.827497 
-5.883363 
-5.860247 
-5.873051 
-5.857756 
-5.951577 
-5.895935 
-5.930127 
-5.883192 
-5.911740 
-5.873030 
-5.896209 
-5.865382 
-6.277223 
-6.114116 
-6.216399 
-6.072658 
-6.162813 
-6.036089 
-6.115546 
-6.003898 
-6.004716 
-5.929668 
-5.976339 
-5.911375 
-6.073842 
-5.975659 
-6.037072 
-5.951014 
-13.442616 
-8.730343 
-11.253282 
-8.396738 
-10.007921 
-8.030917 
-9.179147 
-7.711460 
-7.765665 
-7.029272 
-7.477767 
-6.868675 
-8.579460 
-7.443146 
-8.123635 
-7.218483 
-6.425340 
-6.214277 
-6.346409 
-6.161077 
-6.619777 
-6.343155 
-6.515740 
-6.274608 
-7.241899 
-6.731319 
-7.045758 
-6.613021 
-6.880640 
-6.510520 
-6.740217 
-6.421246 
-5.827497 
-5.877234 
-5.858455 
-5.865054 
-5.857756 
-5.873051 
-5.860247 
-5.883363 
-5.883192 
-5.930127 
-5.895935 
-5.951577 
-5.865382 
-5.896209 
-5.873030 
-5.911740 
-6.072658 
-6.216399 
-6.114116 
-6.277223 
-6.003898 
-6.115546 
-6.036089 
-6.162813 
-5.911375 
-5.976339 
-5.929668 
-6.004716 
-5.951014 
-6.037072 
-5.975659 
-6.073842 
-8.396738 
-11.253282 
-8.730343 
-13.442616 
-7.711460 
-9.179147 
-8.030917 
-10.007921 
-6.868675 
-7.477767 
-7.029272 
-7.765665 
-7.218483 
-8.123635 
-7.443146 
-8.579460 
-6.161077 
-6.346409 
-6.214277 
-6.425340 
-6.274608 
-6.515740 
-6.343155 
-6.619777 
-6.613021 
-7.045758 
-6.731319 
-7.241899 
-6.421246 
-6.740217 
-6.510520 
-6.880640 
0.000000 
-0.000000 
0.000000 
0.000000 
0.000000 
-0.000000 
0.000000 
-0.000000 
0.000000 
-0.000000 
0.000000 
-0.000000 
0.000000 
-0.000000 
0.000000 
-0.000000 
0.000000 
-0.000000 
0.000000 
-0.000000 
0.000000 
-0.000000 
0.000000 
-0.000000 
0.000000 
-0.000000 
0.000000 
-0.000000 
0.000000 
-0.000000 
0.000000 
-0.000000 
-8.488550 
-18.638474 
2.625935 
-51.017370 
-63.052275 
26.695746 
-6.440522 
3.220261 
0.000000 
-0.000000 
0.000000 
-0.000000 
0.000000 
-0.000000 
0.000000 
-0.000000 
0.000000 
-0.000000 
0.000000 
-0.000000 
0.000000 
-0.000000 
0.000000 
-0.000000 
0.000000 
-0.000000 
0.000000 
-0.000000 
0.000000 
-0.000000 
0.000000 
-0.000000 

