# vtk DataFile Version 2.0
Unstructured Grid Example
ASCII
DATASET UNSTRUCTURED_GRID

POINTS 64 float
0.000000 0.000000 0.000000 
0.031250 0.000000 0.000000 
0.031250 0.000000 0.000000 
0.062500 0.000000 0.000000 
0.062500 0.000000 0.000000 
0.093750 0.000000 0.000000 
0.093750 0.000000 0.000000 
0.125000 0.000000 0.000000 
0.187500 0.000000 0.000000 
0.218750 0.000000 0.000000 
0.218750 40.123319 0.000000 
0.250000 -80.246639 0.000000 
0.125000 0.000000 0.000000 
0.156250 0.000000 0.000000 
0.156250 0.000000 0.000000 
0.187500 0.000000 0.000000 
0.437500 -5.497922 0.000000 
0.468750 -5.513487 0.000000 
0.468750 -5.573269 0.000000 
0.500000 -5.378357 0.000000 
0.375000 -5.357525 0.000000 
0.406250 -5.554897 0.000000 
0.406250 -5.475102 0.000000 
0.437500 -5.517114 0.000000 
0.250000 -80.246639 0.000000 
0.281250 40.123319 0.000000 
0.281250 2.799816 0.000000 
0.312500 -5.599633 0.000000 
0.312500 -0.476062 0.000000 
0.343750 -7.447324 0.000000 
0.343750 -4.823825 0.000000 
0.375000 -5.723061 0.000000 
0.500000 -5.378357 0.000000 
0.531250 -5.573269 0.000000 
0.531250 -5.513487 0.000000 
0.562500 -5.497922 0.000000 
0.562500 -5.517114 0.000000 
0.593750 -5.475102 0.000000 
0.593750 -5.554897 0.000000 
0.625000 -5.357525 0.000000 
0.687500 -5.599633 0.000000 
0.718750 2.799816 0.000000 
0.718750 40.123319 0.000000 
0.750000 -80.246639 0.000000 
0.625000 -5.723061 0.000000 
0.656250 -4.823825 0.000000 
0.656250 -7.447324 0.000000 
0.687500 -0.476062 0.000000 
0.937500 0.000000 0.000000 
0.968750 0.000000 0.000000 
0.968750 0.000000 0.000000 
1.000000 0.000000 0.000000 
0.875000 0.000000 0.000000 
0.906250 0.000000 0.000000 
0.906250 0.000000 0.000000 
0.937500 0.000000 0.000000 
0.750000 -80.246639 0.000000 
0.781250 40.123319 0.000000 
0.781250 0.000000 0.000000 
0.812500 0.000000 0.000000 
0.812500 0.000000 0.000000 
0.843750 0.000000 0.000000 
0.843750 0.000000 0.000000 
0.875000 0.000000 0.000000 

CELLS 32 96
2  0 1 
2  2 3 
2  4 5 
2  6 7 
2  8 9 
2  10 11 
2  12 13 
2  14 15 
2  16 17 
2  18 19 
2  20 21 
2  22 23 
2  24 25 
2  26 27 
2  28 29 
2  30 31 
2  32 33 
2  34 35 
2  36 37 
2  38 39 
2  40 41 
2  42 43 
2  44 45 
2  46 47 
2  48 49 
2  50 51 
2  52 53 
2  54 55 
2  56 57 
2  58 59 
2  60 61 
2  62 63 

CELL_TYPES 32
3
3
3
3
3
3
3
3
3
3
3
3
3
3
3
3
3
3
3
3
3
3
3
3
3
3
3
3
3
3
3
3

POINT_DATA 64

SCALARS lambda_h float 1
LOOKUP_TABLE default
0.000000 
0.000000 
0.000000 
0.000000 
0.000000 
0.000000 
0.000000 
0.000000 
0.000000 
0.000000 
40.123319 
-80.246639 
0.000000 
0.000000 
0.000000 
0.000000 
-5.497922 
-5.513487 
-5.573269 
-5.378357 
-5.357525 
-5.554897 
-5.475102 
-5.517114 
-80.246639 
40.123319 
2.799816 
-5.599633 
-0.476062 
-7.447324 
-4.823825 
-5.723061 
-5.378357 
-5.573269 
-5.513487 
-5.497922 
-5.517114 
-5.475102 
-5.554897 
-5.357525 
-5.599633 
2.799816 
40.123319 
-80.246639 
-5.723061 
-4.823825 
-7.447324 
-0.476062 
0.000000 
0.000000 
0.000000 
0.000000 
0.000000 
0.000000 
0.000000 
0.000000 
-80.246639 
40.123319 
0.000000 
0.000000 
0.000000 
0.000000 
0.000000 
0.000000 

