# vtk DataFile Version 2.0
Unstructured Grid Example
ASCII
DATASET UNSTRUCTURED_GRID

POINTS 4225 float
0.013705 -0.190607 0.000000 
0.986295 -0.190607 0.000000 
1.000000 1.000000 0.000000 
0.000000 1.000000 0.000000 
0.500000 -0.100000 0.000000 
0.982664 0.364630 0.000000 
0.500000 1.000000 0.000000 
0.017336 0.364630 0.000000 
0.500000 0.364830 0.000000 
0.256094 -0.085369 0.000000 
0.500000 0.113451 0.000000 
0.241388 0.102981 0.000000 
0.743906 -0.085369 0.000000 
0.758612 0.102981 0.000000 
1.008283 0.082799 0.000000 
0.744525 0.359701 0.000000 
0.960904 0.661411 0.000000 
0.734410 0.662734 0.000000 
0.750000 1.000000 0.000000 
0.500000 0.664618 0.000000 
0.250000 1.000000 0.000000 
0.265590 0.662734 0.000000 
0.039096 0.661411 0.000000 
0.255475 0.359701 0.000000 
-0.008283 0.082799 0.000000 
0.142226 -0.162933 0.000000 
0.243859 -0.003469 0.000000 
0.114351 -0.036834 0.000000 
0.500000 0.003183 0.000000 
0.374393 0.002652 0.000000 
0.377325 -0.100000 0.000000 
0.373363 0.231048 0.000000 
0.371580 0.111404 0.000000 
0.500000 0.233157 0.000000 
0.622675 -0.100000 0.000000 
0.625607 0.002652 0.000000 
0.885649 -0.036834 0.000000 
0.756141 -0.003469 0.000000 
0.857774 -0.162933 0.000000 
0.628420 0.111404 0.000000 
0.626637 0.231048 0.000000 
1.006614 -0.057563 0.000000 
0.886503 0.088074 0.000000 
0.864398 0.357588 0.000000 
0.876921 0.218865 0.000000 
0.997368 0.222863 0.000000 
0.752924 0.225063 0.000000 
0.622762 0.363386 0.000000 
0.969130 0.510253 0.000000 
0.853472 0.504749 0.000000 
0.853965 0.827399 0.000000 
0.848154 0.661102 0.000000 
0.964124 0.819845 0.000000 
0.737273 0.505865 0.000000 
0.619275 0.508163 0.000000 
0.875000 1.000000 0.000000 
0.738708 0.828607 0.000000 
0.500000 0.829029 0.000000 
0.620064 0.828914 0.000000 
0.625000 1.000000 0.000000 
0.618019 0.664084 0.000000 
0.500000 0.509160 0.000000 
0.375000 1.000000 0.000000 
0.379936 0.828914 0.000000 
0.146035 0.827399 0.000000 
0.261292 0.828607 0.000000 
0.125000 1.000000 0.000000 
0.381981 0.664084 0.000000 
0.380725 0.508163 0.000000 
0.035876 0.819845 0.000000 
0.151846 0.661102 0.000000 
0.135602 0.357588 0.000000 
0.146528 0.504749 0.000000 
0.030870 0.510253 0.000000 
0.262727 0.505865 0.000000 
0.377238 0.363386 0.000000 
0.002632 0.222863 0.000000 
0.123079 0.218865 0.000000 
0.113497 0.088074 0.000000 
-0.006614 -0.057563 0.000000 
0.247076 0.225063 0.000000 
0.076751 -0.178909 0.000000 
0.123400 -0.099702 0.000000 
0.063112 -0.115277 0.000000 
0.251469 -0.046546 0.000000 
0.183032 -0.072433 0.000000 
0.208649 -0.131149 0.000000 
0.175354 0.037048 0.000000 
0.176840 -0.018607 0.000000 
0.241148 0.047369 0.000000 
0.500000 -0.049323 0.000000 
0.438218 -0.049337 0.000000 
0.438564 -0.100000 0.000000 
0.436409 0.057045 0.000000 
0.437323 0.003064 0.000000 
0.500000 0.057360 0.000000 
0.316292 -0.100000 0.000000 
0.376578 -0.049364 0.000000 
0.315438 -0.048784 0.000000 
0.437566 0.296984 0.000000 
0.436688 0.232627 0.000000 
0.500000 0.297442 0.000000 
0.306649 0.108269 0.000000 
0.372025 0.169678 0.000000 
0.307780 0.166684 0.000000 
0.500000 0.171913 0.000000 
0.436091 0.171365 0.000000 
0.435959 0.112971 0.000000 
0.310486 0.001497 0.000000 
0.372371 0.055940 0.000000 
0.307338 0.053273 0.000000 
0.561436 -0.100000 0.000000 
0.561782 -0.049337 0.000000 
0.684562 -0.048784 0.000000 
0.623422 -0.049364 0.000000 
0.683708 -0.100000 0.000000 
0.562677 0.003064 0.000000 
0.563591 0.057045 0.000000 
0.936888 -0.115277 0.000000 
0.876600 -0.099702 0.000000 
0.923249 -0.178909 0.000000 
0.758852 0.047369 0.000000 
0.823160 -0.018607 0.000000 
0.824646 0.037048 0.000000 
0.791351 -0.131149 0.000000 
0.816968 -0.072433 0.000000 
0.748531 -0.046546 0.000000 
0.563312 0.232627 0.000000 
0.562434 0.296984 0.000000 
0.564041 0.112971 0.000000 
0.563909 0.171365 0.000000 
0.692220 0.166684 0.000000 
0.627975 0.169678 0.000000 
0.693351 0.108269 0.000000 
0.689514 0.001497 0.000000 
0.692662 0.053273 0.000000 
0.627629 0.055940 0.000000 
0.997983 -0.126035 0.000000 
0.946304 -0.049744 0.000000 
0.948065 0.082950 0.000000 
0.949536 0.016345 0.000000 
1.009767 0.012576 0.000000 
0.888073 0.025232 0.000000 
0.823310 0.095660 0.000000 
0.923635 0.359351 0.000000 
0.930659 0.288344 0.000000 
0.990127 0.293351 0.000000 
0.810092 0.288478 0.000000 
0.870711 0.287203 0.000000 
0.804724 0.358065 0.000000 
1.003723 0.152806 0.000000 
0.937534 0.218728 0.000000 
0.943633 0.150331 0.000000 
0.624789 0.295618 0.000000 
0.561441 0.364519 0.000000 
0.756395 0.162353 0.000000 
0.689911 0.228452 0.000000 
0.683835 0.361665 0.000000 
0.686966 0.293478 0.000000 
0.748799 0.290892 0.000000 
0.882440 0.152521 0.000000 
0.815355 0.221494 0.000000 
0.819972 0.157185 0.000000 
0.975501 0.436816 0.000000 
0.916999 0.431909 0.000000 
0.906793 0.582355 0.000000 
0.911215 0.506183 0.000000 
0.964057 0.585065 0.000000 
0.858498 0.430075 0.000000 
0.799733 0.430211 0.000000 
0.920297 0.911978 0.000000 
0.909433 0.825030 0.000000 
0.974143 0.903710 0.000000 
0.791611 0.661902 0.000000 
0.849232 0.743018 0.000000 
0.792875 0.744056 0.000000 
0.960502 0.739518 0.000000 
0.904807 0.741379 0.000000 
0.904367 0.660646 0.000000 
0.620838 0.434278 0.000000 
0.560489 0.435199 0.000000 
0.740546 0.431389 0.000000 
0.680895 0.432906 0.000000 
0.676945 0.584008 0.000000 
0.678497 0.507075 0.000000 
0.735098 0.583030 0.000000 
0.849822 0.581716 0.000000 
0.792690 0.582145 0.000000 
0.795568 0.504905 0.000000 
0.937500 1.000000 0.000000 
0.862956 0.913567 0.000000 
0.743722 0.913857 0.000000 
0.803773 0.913840 0.000000 
0.812500 1.000000 0.000000 
0.796933 0.828262 0.000000 
0.735551 0.744725 0.000000 
0.500000 0.913816 0.000000 
0.561187 0.913813 0.000000 
0.562500 1.000000 0.000000 
0.559407 0.745779 0.000000 
0.560117 0.828994 0.000000 
0.500000 0.745864 0.000000 
0.687500 1.000000 0.000000 
0.622275 0.913818 0.000000 
0.683161 0.913835 0.000000 
0.559722 0.508898 0.000000 
0.500000 0.435513 0.000000 
0.676509 0.663485 0.000000 
0.618278 0.584850 0.000000 
0.500000 0.585615 0.000000 
0.559237 0.585411 0.000000 
0.559115 0.664475 0.000000 
0.679663 0.828791 0.000000 
0.618608 0.745556 0.000000 
0.677394 0.745205 0.000000 
0.437500 1.000000 0.000000 
0.438813 0.913813 0.000000 
0.316839 0.913835 0.000000 
0.377725 0.913818 0.000000 
0.312500 1.000000 0.000000 
0.439883 0.828994 0.000000 
0.440593 0.745779 0.000000 
0.079703 0.911978 0.000000 
0.137044 0.913567 0.000000 
0.062500 1.000000 0.000000 
0.264449 0.744725 0.000000 
0.203067 0.828262 0.000000 
0.207125 0.744056 0.000000 
0.187500 1.000000 0.000000 
0.196227 0.913840 0.000000 
0.256278 0.913857 0.000000 
0.440278 0.508898 0.000000 
0.439511 0.435199 0.000000 
0.440885 0.664475 0.000000 
0.440763 0.585411 0.000000 
0.323055 0.584008 0.000000 
0.381722 0.584850 0.000000 
0.323491 0.663485 0.000000 
0.320337 0.828791 0.000000 
0.322606 0.745205 0.000000 
0.381392 0.745556 0.000000 
0.025857 0.903710 0.000000 
0.090567 0.825030 0.000000 
0.095633 0.660646 0.000000 
0.095193 0.741379 0.000000 
0.039498 0.739518 0.000000 
0.150768 0.743018 0.000000 
0.208389 0.661902 0.000000 
0.076365 0.359351 0.000000 
0.083001 0.431909 0.000000 
0.024499 0.436816 0.000000 
0.200267 0.430211 0.000000 
0.141502 0.430075 0.000000 
0.195276 0.358065 0.000000 
0.035943 0.585065 0.000000 
0.088785 0.506183 0.000000 
0.093207 0.582355 0.000000 
0.379162 0.434278 0.000000 
0.438559 0.364519 0.000000 
0.264902 0.583030 0.000000 
0.321503 0.507075 0.000000 
0.316165 0.361665 0.000000 
0.319105 0.432906 0.000000 
0.259454 0.431389 0.000000 
0.150178 0.581716 0.000000 
0.204432 0.504905 0.000000 
0.207310 0.582145 0.000000 
0.009873 0.293351 0.000000 
0.069341 0.288344 0.000000 
0.056367 0.150331 0.000000 
0.062466 0.218728 0.000000 
-0.003723 0.152806 0.000000 
0.129289 0.287203 0.000000 
0.189908 0.288478 0.000000 
0.053696 -0.049744 0.000000 
0.002017 -0.126035 0.000000 
0.176690 0.095660 0.000000 
0.111927 0.025232 0.000000 
-0.009767 0.012576 0.000000 
0.050464 0.016345 0.000000 
0.051935 0.082950 0.000000 
0.375211 0.295618 0.000000 
0.251201 0.290892 0.000000 
0.313034 0.293478 0.000000 
0.310089 0.228452 0.000000 
0.243605 0.162353 0.000000 
0.117560 0.152521 0.000000 
0.180028 0.157185 0.000000 
0.184645 0.221494 0.000000 
0.044974 -0.184822 0.000000 
0.069836 -0.147479 0.000000 
0.038759 -0.153237 0.000000 
0.131667 -0.131611 0.000000 
0.100892 -0.140619 0.000000 
0.109191 -0.171952 0.000000 
0.087771 -0.076242 0.000000 
0.093437 -0.108523 0.000000 
0.117806 -0.068067 0.000000 
0.258660 -0.062972 0.000000 
0.220783 -0.073685 0.000000 
0.238354 -0.094441 0.000000 
0.212060 -0.033509 0.000000 
0.215356 -0.054948 0.000000 
0.246833 -0.026330 0.000000 
0.175627 -0.150371 0.000000 
0.190862 -0.100612 0.000000 
0.161753 -0.119032 0.000000 
0.208175 0.070630 0.000000 
0.208032 0.042701 0.000000 
0.240969 0.074664 0.000000 
0.145143 -0.028165 0.000000 
0.175682 0.008863 0.000000 
0.143712 0.001304 0.000000 
0.242053 0.021243 0.000000 
0.208562 0.015851 0.000000 
0.209866 -0.009690 0.000000 
0.153046 -0.087894 0.000000 
0.179069 -0.045527 0.000000 
0.147999 -0.057736 0.000000 
0.500000 -0.074914 0.000000 
0.469227 -0.074910 0.000000 
0.469269 -0.100000 0.000000 
0.468908 -0.023290 0.000000 
0.469102 -0.049323 0.000000 
0.500000 -0.023279 0.000000 
0.407909 -0.100000 0.000000 
0.438478 -0.074915 0.000000 
0.407778 -0.074923 0.000000 
0.468081 0.085036 0.000000 
0.468231 0.057280 0.000000 
0.500000 0.085139 0.000000 
0.405914 0.002904 0.000000 
0.436830 0.029843 0.000000 
0.405129 0.029554 0.000000 
0.500000 0.030055 0.000000 
0.468437 0.030002 0.000000 
0.468675 0.003154 0.000000 
0.285105 -0.100000 0.000000 
0.316660 -0.074589 0.000000 
0.287977 -0.072364 0.000000 
0.377165 -0.074926 0.000000 
0.346712 -0.074887 0.000000 
0.346819 -0.100000 0.000000 
0.344396 -0.023537 0.000000 
0.345909 -0.049269 0.000000 
0.375584 -0.023476 0.000000 
0.437813 -0.023331 0.000000 
0.406708 -0.023397 0.000000 
0.407367 -0.049359 0.000000 
0.469018 0.330665 0.000000 
[...]
POINT_DATA 4225

SCALARS u_h float 2
LOOKUP_TABLE default
0.013705 -0.190607 
-0.013705 -0.190607 
0.000000 0.000000 
0.000000 0.000000 
0.000000 -0.100000 
-0.017336 -0.135370 
0.000000 0.000000 
0.017336 -0.135370 
0.000000 -0.135170 
0.006094 -0.085369 
0.000000 -0.136549 
-0.008612 -0.147019 
-0.006094 -0.085369 
0.008612 -0.147019 
0.008283 -0.167201 
-0.005475 -0.140299 
-0.039096 -0.088589 
-0.015590 -0.087266 
0.000000 0.000000 
0.000000 -0.085382 
0.000000 0.000000 
0.015590 -0.087266 
0.039096 -0.088589 
0.005475 -0.140299 
-0.008283 -0.167201 
0.017226 -0.162933 
-0.006141 -0.128469 
-0.010649 -0.161834 
0.000000 -0.121817 
-0.000607 -0.122348 
0.002325 -0.100000 
-0.001637 -0.143952 
-0.003420 -0.138596 
0.000000 -0.141843 
-0.002325 -0.100000 
0.000607 -0.122348 
0.010649 -0.161834 
0.006141 -0.128469 
-0.017226 -0.162933 
0.003420 -0.138596 
0.001637 -0.143952 
0.006614 -0.182563 
0.011503 -0.161926 
-0.010602 -0.142412 
0.001921 -0.156135 
-0.002632 -0.152137 
0.002924 -0.149937 
-0.002238 -0.136614 
-0.030870 -0.114747 
-0.021528 -0.120251 
-0.021035 -0.047601 
-0.026846 -0.088898 
-0.035876 -0.055155 
-0.012727 -0.119135 
-0.005725 -0.116837 
0.000000 0.000000 
-0.011292 -0.046393 
0.000000 -0.045971 
-0.004936 -0.046086 
0.000000 0.000000 
-0.006981 -0.085916 
0.000000 -0.115840 
0.000000 0.000000 
0.004936 -0.046086 
0.021035 -0.047601 
0.011292 -0.046393 
0.000000 0.000000 
0.006981 -0.085916 
0.005725 -0.116837 
0.035876 -0.055155 
0.026846 -0.088898 
0.010602 -0.142412 
0.021528 -0.120251 
0.030870 -0.114747 
0.012727 -0.119135 
0.002238 -0.136614 
0.002632 -0.152137 
-0.001921 -0.156135 
-0.011503 -0.161926 
-0.006614 -0.182563 
-0.002924 -0.149937 
0.014251 -0.178909 
-0.001600 -0.162202 
0.000612 -0.177777 
0.001469 -0.109046 
-0.004468 -0.134933 
0.021149 -0.131149 
-0.012146 -0.150452 
-0.010660 -0.143607 
-0.008852 -0.140131 
0.000000 -0.111823 
0.000718 -0.111837 
0.001064 -0.100000 
-0.001091 -0.130455 
-0.000177 -0.121936 
0.000000 -0.130140 
0.003792 -0.100000 
0.001578 -0.111864 
0.002938 -0.111284 
0.000066 -0.140516 
-0.000812 -0.142373 
0.000000 -0.140058 
-0.005851 -0.141731 
-0.002975 -0.142822 
-0.004720 -0.145816 
0.000000 -0.140587 
-0.001409 -0.141135 
-0.001541 -0.137029 
-0.002014 -0.123503 
-0.002629 -0.131560 
-0.005162 -0.134227 
-0.001064 -0.100000 
-0.000718 -0.111837 
-0.002938 -0.111284 
-0.001578 -0.111864 
-0.003792 -0.100000 
0.000177 -0.121936 
0.001091 -0.130455 
-0.000612 -0.177777 
0.001600 -0.162202 
-0.014251 -0.178909 
0.008852 -0.140131 
0.010660 -0.143607 
0.012146 -0.150452 
-0.021149 -0.131149 
0.004468 -0.134933 
-0.001469 -0.109046 
0.000812 -0.142373 
-0.000066 -0.140516 
0.001541 -0.137029 
0.001409 -0.141135 
0.004720 -0.145816 
0.002975 -0.142822 
0.005851 -0.141731 
0.002014 -0.123503 
0.005162 -0.134227 
0.002629 -0.131560 
-0.002017 -0.188535 
0.008804 -0.174744 
0.010565 -0.167050 
0.012036 -0.171155 
0.009767 -0.174924 
0.013073 -0.162268 
0.010810 -0.154340 
-0.013865 -0.140649 
-0.006841 -0.149156 
-0.009873 -0.144149 
-0.002408 -0.149022 
-0.004289 -0.150297 
-0.007776 -0.141935 
0.003723 -0.159694 
0.000034 -0.156272 
0.006133 -0.162169 
-0.000211 -0.141882 
-0.001059 -0.135481 
0.006395 -0.150147 
0.002411 -0.146548 
-0.003665 -0.138335 
-0.000534 -0.144022 
-0.001201 -0.146608 
0.007440 -0.159979 
0.002855 -0.153506 
0.007472 -0.155315 
-0.024499 -0.125684 
-0.020501 -0.130591 
-0.030707 -0.105145 
-0.026285 -0.118817 
-0.035943 -0.102435 
-0.016502 -0.132425 
-0.012767 -0.132289 
-0.017203 -0.025522 
-0.028067 -0.049970 
-0.025857 -0.033790 
-0.020889 -0.088098 
-0.025768 -0.069482 
-0.019625 -0.068444 
-0.039498 -0.072982 
-0.032693 -0.071121 
-0.033133 -0.089354 
-0.004162 -0.128222 
-0.002011 -0.127301 
-0.009454 -0.131111 
-0.006605 -0.129594 
-0.010555 -0.103492 
-0.009003 -0.117925 
-0.014902 -0.104470 
-0.025178 -0.105784 
-0.019810 -0.105355 
-0.016932 -0.120095 
0.000000 0.000000 
-0.012044 -0.023933 
-0.006278 -0.023643 
-0.008727 -0.023660 
0.000000 0.000000 
-0.015567 -0.046738 
-0.014449 -0.067775 
0.000000 -0.023684 
-0.001313 -0.023687 
0.000000 0.000000 
-0.003093 -0.066721 
-0.002383 -0.046006 
0.000000 -0.066636 
0.000000 0.000000 
-0.002725 -0.023682 
-0.004339 -0.023665 
-0.002778 -0.116102 
0.000000 -0.126987 
-0.010991 -0.086515 
-0.006722 -0.102650 
0.000000 -0.101885 
-0.003263 -0.102089 
-0.003385 -0.085525 
-0.007837 -0.046209 
-0.006392 -0.066944 
-0.010106 -0.067295 
0.000000 0.000000 
0.001313 -0.023687 
0.004339 -0.023665 
0.002725 -0.023682 
0.000000 0.000000 
0.002383 -0.046006 
0.003093 -0.066721 
0.017203 -0.025522 
0.012044 -0.023933 
0.000000 0.000000 
0.014449 -0.067775 
0.015567 -0.046738 
0.019625 -0.068444 
0.000000 0.000000 
0.008727 -0.023660 
0.006278 -0.023643 
0.002778 -0.116102 
0.002011 -0.127301 
0.003385 -0.085525 
0.003263 -0.102089 
0.010555 -0.103492 
0.006722 -0.102650 
0.010991 -0.086515 
0.007837 -0.046209 
0.010106 -0.067295 
0.006392 -0.066944 
0.025857 -0.033790 
0.028067 -0.049970 
0.033133 -0.089354 
0.032693 -0.071121 
0.039498 -0.072982 
0.025768 -0.069482 
0.020889 -0.088098 
0.013865 -0.140649 
0.020501 -0.130591 
0.024499 -0.125684 
0.012767 -0.132289 
0.016502 -0.132425 
0.007776 -0.141935 
0.035943 -0.102435 
0.026285 -0.118817 
0.030707 -0.105145 
0.004162 -0.128222 
0.001059 -0.135481 
0.014902 -0.104470 
0.009003 -0.117925 
0.003665 -0.138335 
0.006605 -0.129594 
0.009454 -0.131111 
0.025178 -0.105784 
0.016932 -0.120095 
0.019810 -0.105355 
0.009873 -0.144149 
0.006841 -0.149156 
-0.006133 -0.162169 
-0.000034 -0.156272 
-0.003723 -0.159694 
0.004289 -0.150297 
0.002408 -0.149022 
-0.008804 -0.174744 
0.002017 -0.188535 
-0.010810 -0.154340 
-0.013073 -0.162268 
-0.009767 -0.174924 
-0.012036 -0.171155 
-0.010565 -0.167050 
0.000211 -0.141882 
0.001201 -0.146608 
0.000534 -0.144022 
-0.002411 -0.146548 
-0.006395 -0.150147 
-0.007440 -0.159979 
-0.007472 -0.155315 
-0.002855 -0.153506 
0.013724 -0.184822 
0.007336 -0.178729 
0.007509 -0.184487 
0.006667 -0.162861 
0.007142 -0.171869 
0.015441 -0.171952 
-0.005979 -0.169992 
-0.000313 -0.171023 
-0.007194 -0.161817 
0.008660 -0.094222 
0.002033 -0.104935 
0.019604 -0.094441 
-0.006690 -0.127259 
-0.003394 -0.117448 
-0.003167 -0.120080 
0.019377 -0.150371 
0.003362 -0.131862 
0.005503 -0.150282 
-0.010575 -0.148120 
-0.010718 -0.144799 
-0.009031 -0.144086 
-0.011107 -0.153165 
-0.011818 -0.147387 
-0.012538 -0.154946 
-0.007947 -0.135007 
-0.010188 -0.140399 
-0.008884 -0.134690 
-0.003204 -0.150394 
-0.008431 -0.139277 
-0.008251 -0.151486 
0.000000 -0.106164 
0.000477 -0.106160 
0.000519 -0.100000 
0.000158 -0.117040 
0.000352 -0.111823 
0.000000 -0.117029 
0.001659 -0.100000 
0.000978 -0.106165 
0.001528 -0.106173 
-0.000669 -0.133714 
-0.000519 -0.130220 
0.000000 -0.133611 
-0.000336 -0.122096 
-0.000670 -0.126407 
-0.001121 -0.126696 
0.000000 -0.126195 
-0.000313 -0.126248 
-0.000075 -0.121846 
0.003855 -0.100000 
0.004160 -0.105839 
0.006727 -0.103614 
0.002165 -0.106176 
0.002962 -0.106137 
0.003069 -0.100000 
0.000646 -0.117287 
0.002159 -0.111769 
0.000584 -0.117226 
0.000313 -0.117081 
0.000458 -0.117147 
0.001117 -0.111859 
0.000268 -0.138085 
0.000027 -0.140172 
0.000000 -0.137994 
-0.001224 -0.143031 
-0.000396 -0.141839 
-0.000584 -0.142459 
0.000000 -0.141340 
-0.000201 -0.141466 
-0.000404 -0.141978 
-0.007231 -0.144083 
-0.005470 -0.144198 
-0.006609 -0.146395 
-0.003333 -0.141084 
-0.004363 -0.142437 
-0.004565 -0.139927 
-0.003038 -0.145045 
-0.003833 -0.144147 
-0.002393 -0.143784 
0.000000 -0.138893 
-0.000755 -0.139027 
-0.000749 -0.136671 
-0.000573 -0.141723 
-0.000693 -0.140727 
0.000000 -0.141584 
-0.002420 -0.137653 
-0.001544 -0.139420 
-0.002396 -0.140093 
-0.001763 -0.142814 
-0.002166 -0.141826 
-0.001157 -0.142130 
0.003519 -0.109920 
-0.001097 -0.122751 
0.000456 -0.117336 
-0.000555 -0.117773 
-0.003657 -0.125105 
-0.001390 -0.134019 
-0.003194 -0.135400 
-0.002214 -0.134559 
-0.001772 -0.130879 
-0.001739 -0.127168 
-0.007367 -0.140851 
-0.005721 -0.131415 
-0.006907 -0.136648 
-0.005777 -0.138406 
-0.004375 -0.136638 
-0.002628 -0.127936 
-0.003737 -0.132614 
-0.003922 -0.129224 
-0.000519 -0.100000 
-0.000477 -0.106160 
-0.001528 -0.106173 
-0.000978 -0.106165 
-0.001659 -0.100000 
-0.000352 -0.111823 
-0.000158 -0.117040 
-0.006727 -0.103614 
-0.004160 -0.105839 
-0.003855 -0.100000 
-0.000584 -0.117226 
-0.002159 -0.111769 
-0.000646 -0.117287 
-0.003069 -0.100000 
-0.002962 -0.106137 
-0.002165 -0.106176 
0.000519 -0.130220 
0.000669 -0.133714 
0.000075 -0.121846 
0.000313 -0.126248 
0.001121 -0.126696 
0.000670 -0.126407 
0.000336 -0.122096 
-0.001117 -0.111859 
-0.000458 -0.117147 
-0.000313 -0.117081 
-0.007509 -0.184487 
-0.007336 -0.178729 
-0.013724 -0.184822 
0.007194 -0.161817 
0.000313 -0.171023 
0.005979 -0.169992 
-0.015441 -0.171952 
-0.007142 -0.171869 
-0.006667 -0.162861 
0.009031 -0.144086 
0.010718 -0.144799 
0.010575 -0.148120 
0.008884 -0.134690 
0.010188 -0.140399 
0.007947 -0.135007 
0.012538 -0.154946 
0.011818 -0.147387 
0.011107 -0.153165 
-0.019604 -0.094441 
-0.002033 -0.104935 
-0.008660 -0.094222 
-0.005503 -0.150282 
-0.003362 -0.131862 
-0.019377 -0.150371 
0.003167 -0.120080 
0.003394 -0.117448 
0.006690 -0.127259 
0.008251 -0.151486 
0.008431 -0.139277 
0.003204 -0.150394 
-0.000027 -0.140172 
-0.000268 -0.138085 
0.000404 -0.141978 
0.000201 -0.141466 
0.000584 -0.142459 
0.000396 -0.141839 
0.001224 -0.143031 
0.000749 -0.136671 
0.000755 -0.139027 
0.002396 -0.140093 
0.001544 -0.139420 
0.002420 -0.137653 
0.000693 -0.140727 
0.000573 -0.141723 
0.006609 -0.146395 
0.005470 -0.144198 
0.007231 -0.144083 
0.002393 -0.143784 
0.003833 -0.144147 
0.003038 -0.145045 
0.004565 -0.139927 
0.004363 -0.142437 
0.003333 -0.141084 
0.001157 -0.142130 
0.002166 -0.141826 
0.001763 -0.142814 
-0.003519 -0.109920 
0.003657 -0.125105 
0.000555 -0.117773 
-0.000456 -0.117336 
0.001097 -0.122751 
0.007367 -0.140851 
0.004375 -0.136638 
0.005777 -0.138406 
0.006907 -0.136648 
0.005721 -0.131415 
0.001390 -0.134019 
0.001739 -0.127168 
0.001772 -0.130879 
0.002214 -0.134559 
0.003194 -0.135400 
0.003922 -0.129224 
0.003737 -0.132614 
0.002628 -0.127936 
-0.007800 -0.190108 
-0.001317 -0.183327 
0.007793 -0.179170 
0.003944 -0.181484 
0.002942 -0.185916 
0.004893 -0.176370 
0.009782 -0.169035 
0.009579 -0.167903 
0.010802 -0.170882 
0.009505 -0.171033 
0.012413 -0.166221 
0.011771 -0.169183 
0.011219 -0.164959 
0.008863 -0.178816 
0.011061 -0.173776 
0.010127 -0.176561 
0.011776 -0.152768 
0.009854 -0.150494 
0.012484 -0.162063 
0.012926 -0.156499 
0.011373 -0.158269 
0.012486 -0.157640 
0.012678 -0.162264 
0.011126 -0.173000 
0.012729 -0.167255 
0.011939 -0.168155 
-0.015595 -0.138539 
-0.011964 -0.143029 
-0.013612 -0.139881 
-0.008857 -0.146224 
-0.010367 -0.145087 
-0.012190 -0.141886 
-0.006187 -0.148220 
-0.008316 -0.147227 
-0.004711 -0.151159 
-0.004157 -0.144893 
-0.005109 -0.145801 
-0.006559 -0.141204 
-0.001138 -0.153468 
-0.003260 -0.149875 
-0.000331 -0.152744 
-0.009125 -0.142381 
-0.006212 -0.146421 
-0.007465 -0.146614 
0.006298 -0.163431 
0.005045 -0.161657 
0.007600 -0.164835 
-0.001223 -0.154853 
0.002063 -0.158341 
0.000706 -0.155945 
0.004154 -0.159264 
0.003229 -0.159361 
0.001092 -0.156623 
-0.005488 -0.150117 
-0.002149 -0.153579 
-0.003350 -0.152877 
-0.000557 -0.138396 
-0.000522 -0.135200 
0.000755 -0.143319 
-0.000125 -0.141090 
-0.001626 -0.135959 
-0.000871 -0.138922 
-0.001221 -0.139645 
0.007702 -0.149020 
0.005594 -0.147828 
0.002719 -0.148170 
0.004272 -0.148412 
0.004776 -0.150443 
0.003676 -0.146595 
0.002040 -0.145130 
-0.004514 -0.139316 
-0.002669 -0.142683 
-0.003348 -0.143819 
-0.001625 -0.140539 
-0.002101 -0.141568 
-0.002912 -0.137419 
0.000909 -0.148652 
-0.000812 -0.145290 
0.001003 -0.147124 
0.000897 -0.144404 
0.000988 -0.145687 
-0.000341 -0.142870 
0.008627 -0.164723 
0.004810 -0.158302 
0.006941 -0.161518 
0.009341 -0.163407 
0.009711 -0.161179 
-0.001726 -0.147888 
0.002983 -0.151757 
0.000675 -0.150181 
0.000269 -0.151592 
0.002508 -0.155027 
0.008648 -0.152000 
0.009712 -0.158338 
0.009345 -0.155183 
0.007046 -0.152690 
0.005131 -0.152600 
0.005184 -0.156721 
0.005282 -0.154751 
0.007615 -0.157824 
-0.020990 -0.130678 
-0.019132 -0.133737 
-0.025702 -0.123084 
-0.022520 -0.128594 
-0.027813 -0.120379 
-0.017260 -0.135824 
-0.015415 -0.137090 
-0.035089 -0.096921 
-0.033392 -0.104130 
-0.037805 -0.095715 
-0.023906 -0.119792 
-0.028702 -0.112230 
-0.026135 -0.112996 
-0.033604 -0.108772 
-0.031208 -0.110876 
-0.028621 -0.117185 
-0.010347 -0.137431 
-0.008876 -0.136831 
-0.013631 -0.137686 
-0.011935 -0.137756 
-0.017027 -0.126729 
-0.014588 -0.132540 
-0.019154 -0.126618 
-0.023529 -0.124929 
-0.021333 -0.126060 
-0.018483 -0.131820 
-0.011645 -0.014084 
-0.021156 -0.028180 
-0.016763 -0.020261 
-0.024351 -0.048501 
-0.023565 -0.038142 
-0.020017 -0.036668 
-0.031902 -0.045082 
-0.027682 -0.040825 
-0.032031 -0.052198 
-0.018150 -0.087677 
-0.020583 -0.078556 
-0.017821 -0.078151 
-0.026705 -0.079510 
-0.023551 -0.079009 
-0.023797 -0.088513 
-0.020786 -0.058229 
-0.022575 -0.068901 
-0.023915 -0.058830 
-0.039706 -0.081026 
-0.036621 -0.080963 
-0.036204 -0.089214 
-0.034751 -0.062562 
-0.036198 -0.072109 
-0.038298 -0.064393 
-0.029983 -0.089205 
-0.033340 -0.080568 
-0.029996 -0.080046 
-0.027346 -0.059706 
-0.029169 -0.070221 
-0.031013 -0.060945 
-0.001552 -0.131778 
-0.000773 -0.131522 
-0.003231 -0.132802 
-0.002366 -0.132211 
-0.003684 -0.122419 
-0.003059 -0.127692 
-0.005003 -0.122893 
-0.007528 -0.136059 
-0.006300 -0.135204 
-0.009490 -0.124798 
-0.007973 -0.130360 
-0.011204 -0.125466 
-0.005183 -0.134339 
-0.004165 -0.133523 
-0.013115 -0.095728 
-0.012659 -0.103976 
-0.015455 -0.096173 
-0.007314 -0.117348 
-0.009903 -0.111042 
-0.008051 -0.110531 
-0.013976 -0.112131 
-0.011875 -0.111586 
-0.010805 -0.118534 
-0.005339 -0.128867 
-0.007891 -0.124116 
-0.006400 -0.123468 
-0.032217 -0.097532 
-0.026303 -0.097651 
-0.029263 -0.097729 
-0.027949 -0.105650 
-0.023560 -0.113312 
-0.017954 -0.096618 
-0.016208 -0.112633 
-0.017288 -0.104943 
-0.020608 -0.097037 
-0.023402 -0.097398 
-0.011052 -0.131781 
-0.019193 -0.120317 
-0.014981 -0.126510 
-0.013035 -0.126061 
-0.014772 -0.119676 
-0.022450 -0.105658 
-0.018563 -0.113043 
-0.021023 -0.113295 
0.000000 0.000000 
-0.008991 -0.012544 
-0.006218 -0.011911 
-0.007383 -0.012071 
0.000000 0.000000 
-0.014281 -0.024405 
-0.017062 -0.035906 
-0.003246 -0.011912 
-0.003838 -0.011887 
0.000000 0.000000 
-0.010618 -0.035212 
-0.007423 -0.023640 
-0.008990 -0.035155 
0.000000 0.000000 
-0.004510 -0.011867 
-0.005289 -0.011866 
-0.016921 -0.068078 
-0.015265 -0.077786 
-0.018124 -0.047063 
-0.017961 -0.057813 
-0.013123 -0.057289 
-0.015418 -0.057515 
-0.013307 -0.046532 
-0.010240 -0.023735 
-0.012462 -0.035317 
-0.014582 -0.035517 
0.000000 -0.012007 
-0.000335 -0.012007 
0.000000 0.000000 
-0.000935 -0.035020 
-0.000650 -0.023687 
0.000000 -0.035014 
0.000000 0.000000 
-0.000678 -0.012004 
-0.001033 -0.011998 
-0.001633 -0.076301 
-0.001533 -0.066661 
0.000000 -0.076269 
-0.003627 -0.046040 
-0.002788 -0.056582 
-0.004242 -0.056645 
0.000000 -0.056523 
-0.001382 -0.056541 
-0.001181 -0.045982 
0.000000 0.000000 
-0.002242 -0.011958 
-0.002719 -0.011937 
-0.001408 -0.011989 
-0.001808 -0.011975 
0.000000 0.000000 
-0.005022 -0.035075 
-0.003500 -0.023675 
-0.003913 -0.035058 
-0.001887 -0.035030 
-0.002874 -0.035043 
-0.002001 -0.023686 
-0.000999 -0.127065 
0.000000 -0.131449 
-0.004220 -0.116415 
-0.002424 -0.122068 
0.000000 -0.121778 
-0.001203 -0.121852 
-0.001379 -0.115908 
-0.013208 -0.086876 
-0.010928 -0.095305 
-0.006952 -0.094583 
-0.008879 -0.094918 
-0.008922 -0.086193 
-0.008582 -0.103043 
-0.006306 -0.110079 
0.000000 -0.093934 
-0.001674 -0.093981 
-0.001679 -0.085421 
-0.001519 -0.109260 
-0.001620 -0.101940 
0.000000 -0.109199 
-0.005144 -0.085691 
-0.003374 -0.094107 
-0.005125 -0.094310 
-0.004650 -0.109708 
-0.004956 -0.102328 
-0.003062 -0.109432 
-0.005258 -0.023654 
-0.006331 -0.046142 
-0.006222 -0.035095 
-0.007536 -0.035120 
-0.009481 -0.046290 
-0.003292 -0.076383 
-0.006796 -0.076688 
-0.005005 -0.076513 
-0.004703 -0.066816 
-0.005768 -0.056729 
-0.012905 -0.077457 
-0.011041 -0.057109 
-0.012185 -0.067517 
-0.010722 -0.077163 
-0.008694 -0.076906 
-0.007393 -0.056833 
-0.008184 -0.067104 
-0.009141 -0.056959 
0.000000 0.000000 
0.000335 -0.012007 
0.001033 -0.011998 
0.000678 -0.012004 
0.000000 0.000000 
0.000650 -0.023687 
0.000935 -0.035020 
0.002719 -0.011937 
0.002242 -0.011958 
0.000000 0.000000 
0.003913 -0.035058 
0.003500 -0.023675 
0.005022 -0.035075 
0.000000 0.000000 
0.001808 -0.011975 
0.001408 -0.011989 
0.001533 -0.066661 
0.001633 -0.076301 
0.001181 -0.045982 
0.001382 -0.056541 
0.004242 -0.056645 
0.002788 -0.056582 
0.003627 -0.046040 
0.002001 -0.023686 
0.002874 -0.035043 
0.001887 -0.035030 
0.011645 -0.014084 
0.008991 -0.012544 
0.000000 0.000000 
0.017062 -0.035906 
0.014281 -0.024405 
0.020017 -0.036668 
0.000000 0.000000 
0.007383 -0.012071 
0.006218 -0.011911 
0.015265 -0.077786 
0.016921 -0.068078 
0.017821 -0.078151 
0.013307 -0.046532 
0.015418 -0.057515 
0.013123 -0.057289 
0.020786 -0.058229 
0.017961 -0.057813 
0.018124 -0.047063 
0.000000 0.000000 
0.003838 -0.011887 
0.003246 -0.011912 
0.005289 -0.011866 
0.004510 -0.011867 
0.000000 0.000000 
0.008990 -0.035155 
0.007423 -0.023640 
0.010618 -0.035212 
0.014582 -0.035517 
0.012462 -0.035317 
0.010240 -0.023735 
0.000999 -0.127065 
0.000773 -0.131522 
0.001379 -0.115908 
0.001203 -0.121852 
0.003684 -0.122419 
0.002424 -0.122068 
0.004220 -0.116415 
0.001679 -0.085421 
0.001674 -0.093981 
0.005125 -0.094310 
0.003374 -0.094107 
0.005144 -0.085691 
0.001620 -0.101940 
0.001519 -0.109260 
0.013115 -0.095728 
0.010928 -0.095305 
0.013208 -0.086876 
0.006306 -0.110079 
0.008582 -0.103043 
0.008051 -0.110531 
0.008922 -0.086193 
0.008879 -0.094918 
0.006952 -0.094583 
0.003062 -0.109432 
0.004956 -0.102328 
0.004650 -0.109708 
0.005258 -0.023654 
0.009481 -0.046290 
0.007536 -0.035120 
0.006222 -0.035095 
0.006331 -0.046142 
0.012905 -0.077457 
0.008694 -0.076906 
0.010722 -0.077163 
0.012185 -0.067517 
0.011041 -0.057109 
0.003292 -0.076383 
0.005768 -0.056729 
0.004703 -0.066816 
0.005005 -0.076513 
0.006796 -0.076688 
0.009141 -0.056959 
0.008184 -0.067104 
0.007393 -0.056833 
0.016763 -0.020261 
0.021156 -0.028180 
0.032031 -0.052198 
0.027682 -0.040825 
0.031902 -0.045082 
0.023565 -0.038142 
0.024351 -0.048501 
0.036204 -0.089214 
0.036621 -0.080963 
0.039706 -0.081026 
0.029996 -0.080046 
0.033340 -0.080568 
0.029983 -0.089205 
0.038298 -0.064393 
0.036198 -0.072109 
0.034751 -0.062562 
0.020583 -0.078556 
0.018150 -0.087677 
0.023915 -0.058830 
0.022575 -0.068901 
0.023797 -0.088513 
0.023551 -0.079009 
0.026705 -0.079510 
0.031013 -0.060945 
0.029169 -0.070221 
0.027346 -0.059706 
0.015595 -0.138539 
0.019132 -0.133737 
0.020990 -0.130678 
0.015415 -0.137090 
0.017260 -0.135824 
0.012190 -0.141886 
0.027813 -0.120379 
0.022520 -0.128594 
0.025702 -0.123084 
0.008876 -0.136831 
0.010347 -0.137431 
0.006559 -0.141204 
0.019154 -0.126618 
0.014588 -0.132540 
0.017027 -0.126729 
0.009125 -0.142381 
0.011935 -0.137756 
0.013631 -0.137686 
0.037805 -0.095715 
0.033392 -0.104130 
0.035089 -0.096921 
0.028621 -0.117185 
0.031208 -0.110876 
0.033604 -0.108772 
0.026135 -0.112996 
0.028702 -0.112230 
0.023906 -0.119792 
0.018483 -0.131820 
0.021333 -0.126060 
0.023529 -0.124929 
0.001552 -0.131778 
0.000522 -0.135200 
0.005003 -0.122893 
0.003059 -0.127692 
0.001626 -0.135959 
0.002366 -0.132211 
0.003231 -0.132802 
0.015455 -0.096173 
0.012659 -0.103976 
0.010805 -0.118534 
0.011875 -0.111586 
0.013976 -0.112131 
0.009903 -0.111042 
0.007314 -0.117348 
0.004514 -0.139316 
0.006300 -0.135204 
0.007528 -0.136059 
0.004165 -0.133523 
0.005183 -0.134339 
0.002912 -0.137419 
0.011204 -0.125466 
0.007973 -0.130360 
0.009490 -0.124798 