# vtk DataFile Version 2.0
Unstructured Grid Example
ASCII
DATASET UNSTRUCTURED_GRID

POINTS 25 float
0.007490 -0.239167 0.000000 
0.992510 -0.239167 0.000000 
1.000000 1.000000 0.000000 
0.000000 1.000000 0.000000 
0.500000 -0.100000 0.000000 
0.966445 0.329126 0.000000 
0.500000 1.000000 0.000000 
0.033555 0.329126 0.000000 
0.500000 0.338413 0.000000 
0.251590 -0.213670 0.000000 
0.500000 0.087698 0.000000 
0.249484 0.041085 0.000000 
0.748410 -0.213670 0.000000 
0.750516 0.041085 0.000000 
0.988670 0.031728 0.000000 
0.735397 0.327040 0.000000 
0.955787 0.641280 0.000000 
0.733252 0.649709 0.000000 
0.750000 1.000000 0.000000 
0.500000 0.655443 0.000000 
0.250000 1.000000 0.000000 
0.266748 0.649709 0.000000 
0.044213 0.641280 0.000000 
0.264603 0.327040 0.000000 
0.011330 0.031728 0.000000 

CELLS 32 128
3  0 9 11 
3  4 10 9 
3  8 11 10 
3  9 10 11 
3  4 12 10 
3  1 13 12 
3  8 10 13 
3  12 13 10 
3  1 14 13 
3  5 15 14 
3  8 13 15 
3  14 15 13 
3  5 16 15 
3  2 17 16 
3  8 15 17 
3  16 17 15 
3  2 18 17 
3  6 19 18 
3  8 17 19 
3  18 19 17 
3  6 20 19 
3  3 21 20 
3  8 19 21 
3  20 21 19 
3  3 22 21 
3  7 23 22 
3  8 21 23 
3  22 23 21 
3  7 24 23 
3  0 11 24 
3  8 23 11 
3  24 11 23 

CELL_TYPES 32
5
5
5
5
5
5
5
5
5
5
5
5
5
5
5
5
5
5
5
5
5
5
5
5
5
5
5
5
5
5
5
5

POINT_DATA 25

SCALARS u_h float 2
LOOKUP_TABLE default
0.007490 -0.239167 
-0.007490 -0.239167 
0.000000 0.000000 
0.000000 0.000000 
0.000000 -0.100000 
-0.033555 -0.170874 
0.000000 0.000000 
0.033555 -0.170874 
0.000000 -0.161587 
0.001590 -0.213670 
0.000000 -0.162302 
-0.000516 -0.208915 
-0.001590 -0.213670 
0.000516 -0.208915 
-0.011330 -0.218272 
-0.014603 -0.172960 
-0.044213 -0.108720 
-0.016748 -0.100291 
0.000000 0.000000 
0.000000 -0.094557 
0.000000 0.000000 
0.016748 -0.100291 
0.044213 -0.108720 
0.014603 -0.172960 
0.011330 -0.218272 

CELL_DATA 32

SCALARS epsilon float 4
LOOKUP_TABLE default
-0.022980 0.024946 0.000000 0.045705
-0.006380 -0.091107 0.000000 0.302788
0.002060 0.020068 0.000000 0.092961
0.003631 0.036995 0.000000 0.087285
-0.006380 -0.091107 0.000000 -0.302788
-0.022980 0.024946 0.000000 -0.045705
0.002060 0.020068 0.000000 -0.092961
0.003631 0.036995 0.000000 -0.087285
-0.048946 0.080214 0.000000 -0.025241
-0.074727 0.172761 0.000000 -0.043382
-0.061074 0.132019 0.000000 -0.051426
-0.049028 0.132186 0.000000 -0.047570
-0.077674 0.219258 0.000000 -0.018829
-0.101718 0.353577 0.000000 0.078434
-0.060406 0.250971 0.000000 -0.021881
-0.116025 0.250767 0.000000 -0.017438
0.001143 0.327293 0.000000 0.030750
0.000000 0.312087 0.000000 -0.000000
-0.069223 0.233970 0.000000 -0.008996
-0.066745 0.328524 0.000000 0.024797
0.000000 0.312087 0.000000 -0.000000
0.001143 0.327293 0.000000 -0.030750
-0.069223 0.233970 0.000000 0.008996
-0.066745 0.328524 0.000000 -0.024797
-0.101718 0.353577 0.000000 -0.078434
-0.077674 0.219258 0.000000 0.018829
-0.060406 0.250971 0.000000 0.021881
-0.116025 0.250767 0.000000 0.017438
-0.074727 0.172761 0.000000 0.043382
-0.048946 0.080214 0.000000 0.025241
-0.061074 0.132019 0.000000 0.051426
-0.049028 0.132186 0.000000 0.047570

SCALARS sigma float 4
LOOKUP_TABLE default
-0.419673 0.282225 -0.037760 0.770466
-3.488219 -8.826839 -3.383258 4.997710
0.082845 0.095853 0.049093 1.521422
0.296500 0.568434 0.237619 1.427469
-3.488219 -8.826839 -3.383258 -4.997710
-0.419673 0.282225 -0.037760 -0.770466
0.082845 0.095853 0.049093 -1.521422
0.296500 0.568434 0.237619 -1.427469
-0.562313 1.519554 0.262978 -0.419562
-0.546824 3.409489 0.786446 -0.600428
-0.474556 2.612771 0.587422 -0.808869
-0.131600 2.752157 0.719933 -0.738289
-0.163096 4.446177 1.176670 -0.243581
-0.057338 6.904755 1.881159 0.914665
0.602924 5.315321 1.625892 -0.364969
-1.015614 4.703454 1.013143 -0.301973
2.863069 7.558503 2.863069 0.392049
2.744310 7.244978 2.744310 -0.000000
0.218767 4.863763 1.396300 -0.158945
1.009122 6.875194 2.166021 0.276021
2.744310 7.244978 2.744310 -0.000000
2.863069 7.558503 2.863069 -0.392049
0.218767 4.863763 1.396300 0.158945
1.009122 6.875194 2.166021 -0.276021
-0.057338 6.904755 1.881159 -0.914665
-0.163096 4.446177 1.176670 0.243581
0.602924 5.315321 1.625892 0.364969
-1.015614 4.703454 1.013143 0.301973
-0.546824 3.409489 0.786446 0.600428
-0.562313 1.519554 0.262978 0.419562
-0.474556 2.612771 0.587422 0.808869
-0.131600 2.752157 0.719933 0.738289

