# vtk DataFile Version 2.0
Unstructured Grid Example
ASCII
DATASET UNSTRUCTURED_GRID

POINTS 81 float
0.017633 -0.229257 0.000000 
0.982367 -0.229257 0.000000 
1.000000 1.000000 0.000000 
0.000000 1.000000 0.000000 
0.500000 -0.100000 0.000000 
0.974901 0.339877 0.000000 
0.500000 1.000000 0.000000 
0.025099 0.339877 0.000000 
0.500000 0.349288 0.000000 
0.266590 -0.182002 0.000000 
0.500000 0.102676 0.000000 
0.243158 0.066315 0.000000 
0.733410 -0.182002 0.000000 
0.756842 0.066315 0.000000 
0.996060 0.044519 0.000000 
0.742665 0.340975 0.000000 
0.958178 0.648642 0.000000 
0.734169 0.654513 0.000000 
0.750000 1.000000 0.000000 
0.500000 0.658306 0.000000 
0.250000 1.000000 0.000000 
0.265831 0.654513 0.000000 
0.041822 0.648642 0.000000 
0.257335 0.340975 0.000000 
0.003940 0.044519 0.000000 
0.142078 -0.213749 0.000000 
0.245652 -0.059574 0.000000 
0.125029 -0.085294 0.000000 
0.500000 0.000779 0.000000 
0.369455 -0.013358 0.000000 
0.393450 -0.100000 0.000000 
0.371750 0.213627 0.000000 
0.368099 0.092711 0.000000 
0.500000 0.218707 0.000000 
0.606550 -0.100000 0.000000 
0.630545 -0.013358 0.000000 
0.874971 -0.085294 0.000000 
0.754348 -0.059574 0.000000 
0.857922 -0.213749 0.000000 
0.631901 0.092711 0.000000 
0.628250 0.213627 0.000000 
0.995763 -0.096265 0.000000 
0.877411 0.048735 0.000000 
0.859274 0.335417 0.000000 
0.870450 0.188717 0.000000 
0.987325 0.190165 0.000000 
0.751299 0.199015 0.000000 
0.623196 0.348777 0.000000 
0.964254 0.491112 0.000000 
0.850465 0.488947 0.000000 
0.854970 0.823409 0.000000 
0.847018 0.651156 0.000000 
0.963588 0.815094 0.000000 
0.736013 0.492736 0.000000 
0.618718 0.497052 0.000000 
0.875000 1.000000 0.000000 
0.739034 0.824737 0.000000 
0.500000 0.826169 0.000000 
0.620158 0.825479 0.000000 
0.625000 1.000000 0.000000 
0.617893 0.656961 0.000000 
0.500000 0.498594 0.000000 
0.375000 1.000000 0.000000 
0.379842 0.825479 0.000000 
0.145030 0.823409 0.000000 
0.260966 0.824737 0.000000 
0.125000 1.000000 0.000000 
0.382107 0.656961 0.000000 
0.381282 0.497052 0.000000 
0.036412 0.815094 0.000000 
0.152982 0.651156 0.000000 
0.140726 0.335417 0.000000 
0.149535 0.488947 0.000000 
0.035746 0.491112 0.000000 
0.263987 0.492736 0.000000 
0.376804 0.348777 0.000000 
0.012675 0.190165 0.000000 
0.129550 0.188717 0.000000 
0.122589 0.048735 0.000000 
0.004237 -0.096265 0.000000 
0.248701 0.199015 0.000000 

CELLS 128 512
3  0 25 27 
3  9 26 25 
3  11 27 26 
3  25 26 27 
3  4 28 30 
3  10 29 28 
3  9 30 29 
3  28 29 30 
3  8 31 33 
3  11 32 31 
3  10 33 32 
3  31 32 33 
3  9 29 26 
3  10 32 29 
3  11 26 32 
3  29 32 26 
3  4 34 28 
3  12 35 34 
3  10 28 35 
3  34 35 28 
3  1 36 38 
3  13 37 36 
3  12 38 37 
3  36 37 38 
3  8 33 40 
3  10 39 33 
3  13 40 39 
3  33 39 40 
3  12 37 35 
3  13 39 37 
3  10 35 39 
3  37 39 35 
3  1 41 36 
3  14 42 41 
3  13 36 42 
3  41 42 36 
3  5 43 45 
3  15 44 43 
3  14 45 44 
3  43 44 45 
3  8 40 47 
3  13 46 40 
3  15 47 46 
3  40 46 47 
3  14 44 42 
3  15 46 44 
3  13 42 46 
3  44 46 42 
3  5 48 43 
3  16 49 48 
3  15 43 49 
3  48 49 43 
3  2 50 52 
3  17 51 50 
3  16 52 51 
3  50 51 52 
3  8 47 54 
3  15 53 47 
3  17 54 53 
3  47 53 54 
3  16 51 49 
3  17 53 51 
3  15 49 53 
3  51 53 49 
3  2 55 50 
3  18 56 55 
3  17 50 56 
3  55 56 50 
3  6 57 59 
3  19 58 57 
3  18 59 58 
3  57 58 59 
3  8 54 61 
3  17 60 54 
3  19 61 60 
3  54 60 61 
3  18 58 56 
3  19 60 58 
3  17 56 60 
3  58 60 56 
3  6 62 57 
3  20 63 62 
3  19 57 63 
3  62 63 57 
3  3 64 66 
3  21 65 64 
3  20 66 65 
3  64 65 66 
3  8 61 68 
3  19 67 61 
3  21 68 67 
3  61 67 68 
3  20 65 63 
3  21 67 65 
3  19 63 67 
3  65 67 63 
3  3 69 64 
3  22 70 69 
3  21 64 70 
3  69 70 64 
3  7 71 73 
3  23 72 71 
3  22 73 72 
3  71 72 73 
3  8 68 75 
3  21 74 68 
3  23 75 74 
3  68 74 75 
3  22 72 70 
3  23 74 72 
3  21 70 74 
3  72 74 70 
3  7 76 71 
3  24 77 76 
3  23 71 77 
3  76 77 71 
3  0 27 79 
3  11 78 27 
3  24 79 78 
3  27 78 79 
3  8 75 31 
3  23 80 75 
3  11 31 80 
3  75 80 31 
3  24 78 77 
3  11 80 78 
3  23 77 80 
3  78 80 77 

CELL_TYPES 128
5
5
5
5
5
5
5
5
5
5
5
5
5
5
5
5
5
5
5
5
5
5
5
5
5
5
5
5
5
5
5
5
5
5
5
5
5
5
5
5
5
5
5
5
5
5
5
5
5
5
5
5
5
5
5
5
5
5
5
5
5
5
5
5
5
5
5
5
5
5
5
5
5
5
5
5
5
5
5
5
5
5
5
5
5
5
5
5
5
5
5
5
5
5
5
5
5
5
5
5
5
5
5
5
5
5
5
5
5
5
5
5
5
5
5
5
5
5
5
5
5
5
5
5
5
5
5
5

POINT_DATA 81

SCALARS u_h float 2
LOOKUP_TABLE default
0.017633 -0.229257 
-0.017633 -0.229257 
0.000000 0.000000 
0.000000 0.000000 
0.000000 -0.100000 
-0.025099 -0.160123 
0.000000 0.000000 
0.025099 -0.160123 
0.000000 -0.150712 
0.016590 -0.182002 
0.000000 -0.147324 
-0.006842 -0.183685 
-0.016590 -0.182002 
0.006842 -0.183685 
-0.003940 -0.205481 
-0.007335 -0.159025 
-0.041822 -0.101358 
-0.015831 -0.095487 
0.000000 0.000000 
0.000000 -0.091694 
0.000000 0.000000 
0.015831 -0.095487 
0.041822 -0.101358 
0.007335 -0.159025 
0.003940 -0.205481 
0.017078 -0.213749 
-0.004348 -0.184574 
0.000029 -0.210294 
0.000000 -0.124221 
-0.005545 -0.138358 
0.018450 -0.100000 
-0.003250 -0.161373 
-0.006901 -0.157289 
0.000000 -0.156293 
-0.018450 -0.100000 
0.005545 -0.138358 
-0.000029 -0.210294 
0.004348 -0.184574 
-0.017078 -0.213749 
0.006901 -0.157289 
0.003250 -0.161373 
-0.004237 -0.221265 
0.002411 -0.201265 
-0.015726 -0.164583 
-0.004550 -0.186283 
-0.012675 -0.184835 
0.001299 -0.175985 
-0.001804 -0.151223 
-0.035746 -0.133888 
-0.024535 -0.136053 
-0.020030 -0.051591 
-0.027982 -0.098844 
-0.036412 -0.059906 
-0.013987 -0.132264 
-0.006282 -0.127948 
0.000000 0.000000 
-0.010966 -0.050263 
0.000000 -0.048831 
-0.004842 -0.049521 
0.000000 0.000000 
-0.007107 -0.093039 
0.000000 -0.126406 
0.000000 0.000000 
0.004842 -0.049521 
0.020030 -0.051591 
0.010966 -0.050263 
0.000000 0.000000 
0.007107 -0.093039 
0.006282 -0.127948 
0.036412 -0.059906 
0.027982 -0.098844 
0.015726 -0.164583 
0.024535 -0.136053 
0.035746 -0.133888 
0.013987 -0.132264 
0.001804 -0.151223 
0.012675 -0.184835 
0.004550 -0.186283 
-0.002411 -0.201265 
0.004237 -0.221265 
-0.001299 -0.175985 

CELL_DATA 128

SCALARS epsilon float 4
LOOKUP_TABLE default
0.020549 0.050756 0.000000 -0.008023
0.052294 0.053004 0.000000 0.045429
-0.031209 0.033527 0.000000 0.091719
0.001210 0.075478 0.000000 0.029644
-0.158170 -0.211456 0.000000 -0.000000
0.043377 -0.192201 0.000000 0.069246
0.204550 0.114165 0.000000 0.370610
0.105977 -0.308923 0.000000 0.004035
0.025661 0.044371 0.000000 0.019436
-0.006414 -0.015435 0.000000 0.123729
0.053689 -0.071002 0.000000 0.042826
0.024899 -0.033554 0.000000 0.035209
0.065397 0.105252 0.000000 0.103828
0.054725 -0.157659 0.000000 0.041864
0.003893 0.033081 0.000000 0.094857
-0.004776 -0.062088 0.000000 0.212535
-0.158170 -0.211456 0.000000 -0.000000
0.204550 0.114165 0.000000 -0.370610
0.043377 -0.192201 0.000000 -0.069246
0.105977 -0.308923 0.000000 -0.004035
0.020549 0.050756 0.000000 0.008023
-0.031209 0.033527 0.000000 -0.091719
0.052294 0.053004 0.000000 -0.045429
0.001210 0.075478 0.000000 -0.029644
0.025661 0.044371 0.000000 -0.019436
0.053689 -0.071002 0.000000 -0.042826
-0.006414 -0.015435 0.000000 -0.123729
0.024899 -0.033554 0.000000 -0.035209
0.065397 0.105252 0.000000 -0.103828
0.003893 0.033081 0.000000 -0.094857
0.054725 -0.157659 0.000000 -0.041864
-0.004776 -0.062088 0.000000 -0.212535
-0.019803 0.074543 0.000000 0.013970
-0.052012 0.118972 0.000000 -0.013690
-0.033251 0.081472 0.000000 -0.055443
-0.032409 0.074855 0.000000 -0.030832
-0.070603 0.182307 0.000000 -0.037408
-0.069627 0.156133 0.000000 -0.065751
-0.064311 0.152588 0.000000 -0.031664
-0.062852 0.159840 0.000000 -0.041842
-0.013968 0.077771 0.000000 -0.022284
-0.019790 0.061068 0.000000 -0.077492
-0.047158 0.124350 0.000000 -0.063058
-0.019450 0.079577 0.000000 -0.074469
-0.052475 0.111516 0.000000 -0.044016
-0.051080 0.124336 0.000000 -0.071916
-0.041225 0.063164 0.000000 -0.089042
-0.050804 0.111504 0.000000 -0.065573
-0.072202 0.191651 0.000000 -0.029965
-0.092048 0.228637 0.000000 -0.018750
-0.070190 0.201205 0.000000 -0.054498
-0.090608 0.204265 0.000000 -0.030376
-0.099865 0.391107 0.000000 0.126830
-0.099216 0.313452 0.000000 0.022927
-0.115369 0.280874 0.000000 0.015384
-0.134595 0.316743 0.000000 0.010181
-0.014189 0.169177 0.000000 -0.019451
-0.047031 0.190560 0.000000 -0.052637
-0.063873 0.253176 0.000000 -0.020737
-0.064117 0.168690 0.000000 -0.033113
-0.116947 0.255394 0.000000 -0.022319
-0.102132 0.253112 0.000000 -0.018004
-0.088208 0.190850 0.000000 -0.040541
-0.088346 0.255357 0.000000 -0.025847
0.006433 0.334824 0.000000 0.073282
0.001957 0.327910 0.000000 0.040255
-0.074328 0.301305 0.000000 0.015623
-0.066379 0.336044 0.000000 0.075228
0.000000 0.320367 0.000000 -0.000000
-0.039484 0.287955 0.000000 -0.002050
0.000385 0.324010 0.000000 0.017808
-0.038909 0.324165 0.000000 0.016552
-0.051515 0.176107 0.000000 -0.005151
-0.072303 0.242167 0.000000 -0.010992
-0.058470 0.240998 0.000000 -0.004195
-0.051567 0.242123 0.000000 -0.008120
-0.047636 0.328278 0.000000 0.040209
-0.058216 0.291764 0.000000 0.004992
-0.071141 0.301644 0.000000 0.012288
-0.050004 0.291674 0.000000 0.006696
0.000000 0.320367 0.000000 -0.000000
0.000385 0.324010 0.000000 -0.017808
-0.039484 0.287955 0.000000 0.002050
-0.038909 0.324165 0.000000 -0.016552
0.006433 0.334824 0.000000 -0.073282
-0.074328 0.301305 0.000000 -0.015623
0.001957 0.327910 0.000000 -0.040255
-0.066379 0.336044 0.000000 -0.075228
-0.051515 0.176107 0.000000 0.005151
-0.058470 0.240998 0.000000 0.004195
-0.072303 0.242167 0.000000 0.010992
-0.051567 0.242123 0.000000 0.008120
-0.047636 0.328278 0.000000 -0.040209
-0.071141 0.301644 0.000000 -0.012288
-0.058216 0.291764 0.000000 -0.004992
-0.050004 0.291674 0.000000 -0.006696
-0.099865 0.391107 0.000000 -0.126830
-0.115369 0.280874 0.000000 -0.015384
-0.099216 0.313452 0.000000 -0.022927
-0.134595 0.316743 0.000000 -0.010181
-0.072202 0.191651 0.000000 0.029965
-0.070190 0.201205 0.000000 0.054498
-0.092048 0.228637 0.000000 0.018750
-0.090608 0.204265 0.000000 0.030376
-0.014189 0.169177 0.000000 0.019451
-0.063873 0.253176 0.000000 0.020737
-0.047031 0.190560 0.000000 0.052637
-0.064117 0.168690 0.000000 0.033113
-0.116947 0.255394 0.000000 0.022319
-0.088208 0.190850 0.000000 0.040541
-0.102132 0.253112 0.000000 0.018004
-0.088346 0.255357 0.000000 0.025847
-0.070603 0.182307 0.000000 0.037408
-0.064311 0.152588 0.000000 0.031664
-0.069627 0.156133 0.000000 0.065751
-0.062852 0.159840 0.000000 0.041842
-0.019803 0.074543 0.000000 -0.013970
-0.033251 0.081472 0.000000 0.055443
-0.052012 0.118972 0.000000 0.013690
-0.032409 0.074855 0.000000 0.030832
-0.013968 0.077771 0.000000 0.022284
-0.047158 0.124350 0.000000 0.063058
-0.019790 0.061068 0.000000 0.077492
-0.019450 0.079577 0.000000 0.074469
-0.052475 0.111516 0.000000 0.044016
-0.041225 0.063164 0.000000 0.089042
-0.051080 0.124336 0.000000 0.071916
-0.050804 0.111504 0.000000 0.065573

SCALARS sigma float 4
LOOKUP_TABLE default
0.740892 1.246815 0.546074 -0.097251
1.220732 0.952075 0.596925 0.696439
-0.730509 -0.022605 -0.206899 1.561269
0.331787 1.339449 0.459131 0.557877
-6.974863 -8.076529 -4.134998 -0.000000
-1.145937 -5.560884 -1.842533 1.089368
2.100118 -4.262075 -0.593944 4.588042
-2.149706 -9.875295 -3.303572 -0.867333
1.096369 1.381716 0.680793 0.310881
-0.586240 -1.135745 -0.473073 2.051674
0.608241 -1.517576 -0.249817 0.667421
0.288093 -0.682466 -0.108344 0.577758
1.747100 1.572259 0.911912 1.606756
-0.367993 -4.149430 -1.241050 0.630134
0.209455 0.332574 0.148909 1.551142
-1.857375 -4.612722 -1.777499 3.484853
-6.974863 -8.076529 -4.134998 -0.000000
2.100118 -4.262075 -0.593944 -4.588042
-1.145937 -5.560884 -1.842533 -1.089368
-2.149706 -9.875295 -3.303572 0.867333
0.740892 1.246815 0.546074 0.097251
-0.730509 -0.022605 -0.206899 -1.561269
1.220732 0.952075 0.596925 -0.696439
0.331787 1.339449 0.459131 -0.557877
1.096369 1.381716 0.680793 -0.310881
0.608241 -1.517576 -0.249817 -0.667421
-0.586240 -1.135745 -0.473073 -2.051674
0.288093 -0.682466 -0.108344 -0.577758
1.747100 1.572259 0.911912 -1.606756
0.209455 0.332574 0.148909 -1.551142
-0.367993 -4.149430 -1.241050 -0.630134
-1.857375 -4.612722 -1.777499 -3.484853
0.013924 1.556732 0.431499 0.153340
-0.289045 2.427199 0.587405 -0.240385
-0.199421 1.503588 0.358288 -0.957868
-0.185708 1.487766 0.357708 -0.539239
-0.371728 3.651832 0.901128 -0.470065
-0.554638 3.064510 0.689525 -1.006334
-0.390461 3.071911 0.736662 -0.438462
-0.321482 3.241215 0.802125 -0.581014
0.358887 1.830813 0.601566 -0.342605
-0.018971 1.198648 0.324087 -1.271501
-0.172886 2.556615 0.654871 -0.997287
0.171552 1.669816 0.505871 -1.217521
-0.407670 2.230051 0.500654 -0.690918
-0.294046 2.484904 0.601884 -1.153295
-0.615429 0.948373 0.091468 -1.490464
-0.383634 2.187743 0.495634 -1.065155
-0.305671 3.857362 0.975739 -0.361689
-0.508958 4.489773 1.093630 -0.223517
-0.141328 4.097922 1.086976 -0.824809
-0.702276 3.955999 0.893880 -0.389424
-0.190188 7.480903 2.002944 1.412607
-0.049280 6.206882 1.691649 0.241960
-0.769430 5.352177 1.258996 0.160333
-1.105835 5.841957 1.301132 -0.019854
1.178814 3.993613 1.420996 -0.279992
0.438097 4.099832 1.246684 -0.819444
0.524124 5.331614 1.608719 -0.332885
-0.205081 3.450591 0.891624 -0.518856
-1.011181 4.795550 1.039662 -0.339024
-0.581812 4.914104 1.190190 -0.292118
-0.723649 3.686174 0.813880 -0.617010
-0.164991 5.112189 1.359120 -0.399770
2.921490 7.712733 2.921490 0.930099
2.867866 7.571167 2.867866 0.513053
0.604385 6.241814 1.880824 0.183676
0.903529 6.969118 2.162815 0.935132
2.809116 7.416067 2.809116 -0.000000
1.489639 6.338152 2.150492 -0.035039
2.837526 7.491070 2.837526 0.227500
1.779225 7.092776 2.437363 0.202932
0.231009 3.768678 1.098815 -0.089190
0.198473 5.009634 1.430798 -0.180487
0.581808 5.134888 1.570521 -0.073205
0.783721 5.232055 1.652686 -0.127854
1.521505 7.067481 2.359612 0.502762
0.996248 6.219305 1.982295 0.047499
0.697564 6.281663 1.917370 0.125095
1.225369 6.304930 2.068763 0.077927
2.809116 7.416067 2.809116 -0.000000
2.837526 7.491070 2.837526 -0.227500
1.489639 6.338152 2.150492 0.035039
1.779225 7.092776 2.437363 -0.202932
2.921490 7.712733 2.921490 -0.930099
0.604385 6.241814 1.880824 -0.183676
2.867866 7.571167 2.867866 -0.513053
0.903529 6.969118 2.162815 -0.935132
0.231009 3.768678 1.098815 0.089190
0.581808 5.134888 1.570521 0.073205
0.198473 5.009634 1.430798 0.180487
0.783721 5.232055 1.652686 0.127854
1.521505 7.067481 2.359612 -0.502762
0.697564 6.281663 1.917370 -0.125095
0.996248 6.219305 1.982295 -0.047499
1.225369 6.304930 2.068763 -0.077927
-0.190188 7.480903 2.002944 -1.412607
-0.769430 5.352177 1.258996 -0.160333
-0.049280 6.206882 1.691649 -0.241960
-1.105835 5.841957 1.301132 0.019854
-0.305671 3.857362 0.975739 0.361689
-0.141328 4.097922 1.086976 0.824809
-0.508958 4.489773 1.093630 0.223517
-0.702276 3.955999 0.893880 0.389424
1.178814 3.993613 1.420996 0.279992
0.524124 5.331614 1.608719 0.332885
0.438097 4.099832 1.246684 0.819444
-0.205081 3.450591 0.891624 0.518856
-1.011181 4.795550 1.039662 0.339024
-0.723649 3.686174 0.813880 0.617010
-0.581812 4.914104 1.190190 0.292118
-0.164991 5.112189 1.359120 0.399770
-0.371728 3.651832 0.901128 0.470065
-0.390461 3.071911 0.736662 0.438462
-0.554638 3.064510 0.689525 1.006334
-0.321482 3.241215 0.802125 0.581014
0.013924 1.556732 0.431499 -0.153340
-0.199421 1.503588 0.358288 0.957868
-0.289045 2.427199 0.587405 0.240385
-0.185708 1.487766 0.357708 0.539239
0.358887 1.830813 0.601566 0.342605
-0.172886 2.556615 0.654871 0.997287
-0.018971 1.198648 0.324087 1.271501
0.171552 1.669816 0.505871 1.217521
-0.407670 2.230051 0.500654 0.690918
-0.615429 0.948373 0.091468 1.490464
-0.294046 2.484904 0.601884 1.153295
-0.383634 2.187743 0.495634 1.065155

