# vtk DataFile Version 2.0
Unstructured Grid Example
ASCII
DATASET UNSTRUCTURED_GRID

POINTS 1089 float
0.014243 -0.191080 0.000000 
0.985757 -0.191080 0.000000 
1.000000 1.000000 0.000000 
0.000000 1.000000 0.000000 
0.500000 -0.100000 0.000000 
0.983020 0.364938 0.000000 
0.500000 1.000000 0.000000 
0.016980 0.364938 0.000000 
0.500000 0.365296 0.000000 
0.270428 -0.045096 0.000000 
0.500000 0.114426 0.000000 
0.241047 0.104304 0.000000 
0.729572 -0.045096 0.000000 
0.758953 0.104304 0.000000 
1.008247 0.082459 0.000000 
0.744825 0.360329 0.000000 
0.961335 0.661581 0.000000 
0.734664 0.663040 0.000000 
0.750000 1.000000 0.000000 
0.500000 0.664967 0.000000 
0.250000 1.000000 0.000000 
0.265336 0.663040 0.000000 
0.038665 0.661581 0.000000 
0.255175 0.360329 0.000000 
-0.008247 0.082459 0.000000 
0.142104 -0.163334 0.000000 
0.242929 -0.000145 0.000000 
0.114676 -0.037380 0.000000 
0.500000 0.003706 0.000000 
0.374999 0.004034 0.000000 
0.376840 -0.100000 0.000000 
0.373239 0.231962 0.000000 
0.371662 0.112608 0.000000 
0.500000 0.234033 0.000000 
0.623160 -0.100000 0.000000 
0.625001 0.004034 0.000000 
0.885324 -0.037380 0.000000 
0.757071 -0.000145 0.000000 
0.857896 -0.163334 0.000000 
0.628338 0.112608 0.000000 
0.626761 0.231962 0.000000 
1.006367 -0.057750 0.000000 
0.886710 0.088249 0.000000 
0.864762 0.358014 0.000000 
0.877304 0.219269 0.000000 
0.997632 0.222826 0.000000 
0.753246 0.225917 0.000000 
0.622918 0.364063 0.000000 
0.969532 0.510478 0.000000 
0.853824 0.505113 0.000000 
0.854348 0.827594 0.000000 
0.848521 0.661393 0.000000 
0.964652 0.820104 0.000000 
0.737530 0.506323 0.000000 
0.619393 0.508646 0.000000 
0.875000 1.000000 0.000000 
0.738900 0.828753 0.000000 
0.500000 0.829203 0.000000 
0.620146 0.829055 0.000000 
0.625000 1.000000 0.000000 
0.618138 0.664395 0.000000 
0.500000 0.509641 0.000000 
0.375000 1.000000 0.000000 
0.379854 0.829055 0.000000 
0.145652 0.827594 0.000000 
0.261100 0.828753 0.000000 
0.125000 1.000000 0.000000 
0.381862 0.664395 0.000000 
0.380607 0.508646 0.000000 
0.035348 0.820104 0.000000 
0.151479 0.661393 0.000000 
0.135238 0.358014 0.000000 
0.146176 0.505113 0.000000 
0.030468 0.510478 0.000000 
0.262470 0.506323 0.000000 
0.377082 0.364063 0.000000 
0.002368 0.222826 0.000000 
0.122696 0.219269 0.000000 
0.113290 0.088249 0.000000 
-0.006367 -0.057750 0.000000 
0.246754 0.225917 0.000000 
0.077213 -0.179220 0.000000 
0.123841 -0.100307 0.000000 
0.063298 -0.115503 0.000000 
0.248887 -0.038753 0.000000 
0.183738 -0.074789 0.000000 
0.206828 -0.134020 0.000000 
0.174952 0.037611 0.000000 
0.176612 -0.018864 0.000000 
0.240685 0.049266 0.000000 
0.500000 -0.049128 0.000000 
0.438313 -0.049052 0.000000 
0.438426 -0.100000 0.000000 
0.436617 0.058005 0.000000 
0.437581 0.003765 0.000000 
0.500000 0.058187 0.000000 
0.314577 -0.100000 0.000000 
0.377030 -0.048611 0.000000 
0.317215 -0.045053 0.000000 
0.437478 0.297742 0.000000 
0.436631 0.233508 0.000000 
0.500000 0.298154 0.000000 
0.306570 0.109632 0.000000 
0.371975 0.170729 0.000000 
0.307612 0.167787 0.000000 
0.500000 0.172886 0.000000 
0.436091 0.172345 0.000000 
0.436049 0.113995 0.000000 
0.311001 0.004051 0.000000 
0.372680 0.057298 0.000000 
0.307431 0.055058 0.000000 
0.561574 -0.100000 0.000000 
0.561687 -0.049052 0.000000 
0.682785 -0.045053 0.000000 
0.622970 -0.048611 0.000000 
0.685423 -0.100000 0.000000 
0.562419 0.003765 0.000000 
0.563383 0.058005 0.000000 
0.936702 -0.115503 0.000000 
0.876159 -0.100307 0.000000 
0.922787 -0.179220 0.000000 
0.759315 0.049266 0.000000 
0.823388 -0.018864 0.000000 
0.825048 0.037611 0.000000 
0.793172 -0.134020 0.000000 
0.816262 -0.074789 0.000000 
0.751113 -0.038753 0.000000 
0.563369 0.233508 0.000000 
0.562522 0.297742 0.000000 
0.563951 0.113995 0.000000 
0.563909 0.172345 0.000000 
0.692388 0.167787 0.000000 
0.628025 0.170729 0.000000 
0.693430 0.109632 0.000000 
0.688999 0.004051 0.000000 
0.692569 0.055058 0.000000 
0.627320 0.057298 0.000000 
0.997824 -0.126178 0.000000 
0.946013 -0.050049 0.000000 
0.948112 0.082858 0.000000 
0.949365 0.016106 0.000000 
1.009556 0.012235 0.000000 
0.888070 0.025093 0.000000 
0.823707 0.096396 0.000000 
0.923995 0.359668 0.000000 
0.931036 0.288604 0.000000 
0.990454 0.293489 0.000000 
0.810470 0.289077 0.000000 
0.871106 0.287629 0.000000 
0.805071 0.358607 0.000000 
1.003866 0.152596 0.000000 
0.937869 0.218899 0.000000 
0.943860 0.150384 0.000000 
0.624945 0.296407 0.000000 
0.561521 0.365162 0.000000 
0.756715 0.163386 0.000000 
0.690128 0.229375 0.000000 
0.684067 0.362336 0.000000 
0.687202 0.294263 0.000000 
0.749117 0.291619 0.000000 
0.882766 0.152858 0.000000 
0.815744 0.222157 0.000000 
0.820362 0.157907 0.000000 
0.975887 0.437074 0.000000 
0.917371 0.432227 0.000000 
0.907178 0.582635 0.000000 
0.911593 0.506484 0.000000 
0.964471 0.585261 0.000000 
0.858854 0.430475 0.000000 
0.800056 0.430691 0.000000 
0.920779 0.912190 0.000000 
0.909916 0.825274 0.000000 
0.974663 0.904391 0.000000 
0.791928 0.662203 0.000000 
0.849616 0.743268 0.000000 
0.793190 0.744295 0.000000 
0.960971 0.739684 0.000000 
0.905241 0.741636 0.000000 
0.904768 0.660911 0.000000 
0.620963 0.434854 0.000000 
0.560535 0.435749 0.000000 
0.740815 0.431928 0.000000 
0.681096 0.433478 0.000000 
0.677134 0.584401 0.000000 
0.678688 0.507554 0.000000 
0.735354 0.583411 0.000000 
0.850178 0.582043 0.000000 
0.793003 0.582504 0.000000 
0.795881 0.505323 0.000000 
0.937500 1.000000 0.000000 
0.863217 0.913661 0.000000 
0.743827 0.913920 0.000000 
0.803933 0.913909 0.000000 
0.812500 1.000000 0.000000 
0.797208 0.828423 0.000000 
0.735791 0.744954 0.000000 
0.500000 0.913901 0.000000 
0.561210 0.913883 0.000000 
0.562500 1.000000 0.000000 
0.559460 0.746014 0.000000 
0.560158 0.829144 0.000000 
0.500000 0.746128 0.000000 
0.687500 1.000000 0.000000 
0.622319 0.913883 0.000000 
0.683232 0.913897 0.000000 
0.559773 0.509375 0.000000 
0.500000 0.436021 0.000000 
0.676695 0.663793 0.000000 
0.618399 0.585246 0.000000 
0.500000 0.586037 0.000000 
0.559293 0.585813 0.000000 
0.559172 0.664795 0.000000 
0.679793 0.828931 0.000000 
0.618716 0.745781 0.000000 
0.677564 0.745429 0.000000 
0.437500 1.000000 0.000000 
0.438790 0.913883 0.000000 
0.316768 0.913897 0.000000 
0.377681 0.913883 0.000000 
0.312500 1.000000 0.000000 
0.439842 0.829144 0.000000 
0.440540 0.746014 0.000000 
0.079221 0.912190 0.000000 
0.136783 0.913661 0.000000 
0.062500 1.000000 0.000000 
0.264209 0.744954 0.000000 
0.202792 0.828423 0.000000 
0.206810 0.744295 0.000000 
0.187500 1.000000 0.000000 
0.196067 0.913909 0.000000 
0.256173 0.913920 0.000000 
0.440227 0.509375 0.000000 
0.439465 0.435749 0.000000 
0.440828 0.664795 0.000000 
0.440707 0.585813 0.000000 
0.322866 0.584401 0.000000 
0.381601 0.585246 0.000000 
0.323305 0.663793 0.000000 
0.320207 0.828931 0.000000 
0.322436 0.745429 0.000000 
0.381284 0.745781 0.000000 
0.025337 0.904391 0.000000 
0.090084 0.825274 0.000000 
0.095232 0.660911 0.000000 
0.094759 0.741636 0.000000 
0.039029 0.739684 0.000000 
0.150384 0.743268 0.000000 
0.208072 0.662203 0.000000 
0.076005 0.359668 0.000000 
0.082629 0.432227 0.000000 
0.024113 0.437074 0.000000 
0.199944 0.430691 0.000000 
0.141146 0.430475 0.000000 
0.194929 0.358607 0.000000 
0.035529 0.585261 0.000000 
0.088407 0.506484 0.000000 
0.092822 0.582635 0.000000 
0.379037 0.434854 0.000000 
0.438479 0.365162 0.000000 
0.264646 0.583411 0.000000 
0.321312 0.507554 0.000000 
0.315933 0.362336 0.000000 
0.318904 0.433478 0.000000 
0.259185 0.431928 0.000000 
0.149822 0.582043 0.000000 
0.204119 0.505323 0.000000 
0.206997 0.582504 0.000000 
0.009546 0.293489 0.000000 
0.068964 0.288604 0.000000 
0.056140 0.150384 0.000000 
0.062131 0.218899 0.000000 
-0.003866 0.152596 0.000000 
0.128894 0.287629 0.000000 
0.189530 0.289077 0.000000 
0.053987 -0.050049 0.000000 
0.002176 -0.126178 0.000000 
0.176293 0.096396 0.000000 
0.111930 0.025093 0.000000 
-0.009556 0.012235 0.000000 
0.050635 0.016106 0.000000 
0.051888 0.082858 0.000000 
0.375055 0.296407 0.000000 
0.250883 0.291619 0.000000 
0.312798 0.294263 0.000000 
0.309872 0.229375 0.000000 
0.243285 0.163386 0.000000 
0.117234 0.152858 0.000000 
0.179638 0.157907 0.000000 
0.184256 0.222157 0.000000 
0.045498 -0.185166 0.000000 
0.070017 -0.147695 0.000000 
0.038988 -0.153495 0.000000 
0.131788 -0.132021 0.000000 
0.101010 -0.140842 0.000000 
0.109465 -0.172254 0.000000 
0.088122 -0.076641 0.000000 
0.093701 -0.108831 0.000000 
0.118269 -0.068727 0.000000 
0.254677 -0.049096 0.000000 
0.221603 -0.080739 0.000000 
0.237235 -0.106757 0.000000 
0.211162 -0.033193 0.000000 
0.214794 -0.056949 0.000000 
0.245320 -0.021442 0.000000 
0.174781 -0.151261 0.000000 
0.191868 -0.103808 0.000000 
0.162119 -0.120166 0.000000 
0.207709 0.071813 0.000000 
0.207481 0.043979 0.000000 
0.240588 0.076218 0.000000 
0.145324 -0.028779 0.000000 
0.175319 0.009145 0.000000 
0.143672 0.001091 0.000000 
0.241431 0.023676 0.000000 
0.207886 0.017161 0.000000 
0.209041 -0.008567 0.000000 
0.153746 -0.089189 0.000000 
0.179179 -0.046686 0.000000 
0.148477 -0.058776 0.000000 
0.500000 -0.074836 0.000000 
0.469204 -0.074818 0.000000 
0.469206 -0.100000 0.000000 
0.468998 -0.022898 0.000000 
0.469139 -0.049098 0.000000 
0.500000 -0.022930 0.000000 
0.407649 -0.100000 0.000000 
0.438437 -0.074804 0.000000 
0.407735 -0.074771 0.000000 
0.468162 0.085971 0.000000 
0.468339 0.058135 0.000000 
0.500000 0.086062 0.000000 
0.406339 0.003859 0.000000 
0.437082 0.030703 0.000000 
0.405505 0.030640 0.000000 
0.500000 0.030746 0.000000 
0.468562 0.030733 0.000000 
0.468795 0.003724 0.000000 
0.285261 -0.091592 0.000000 
0.318166 -0.071877 0.000000 
0.291476 -0.061600 0.000000 
0.377174 -0.074665 0.000000 
0.346986 -0.074232 0.000000 
0.345897 -0.100000 0.000000 
0.345379 -0.021504 0.000000 
0.346897 -0.047626 0.000000 
0.376234 -0.022294 0.000000 
0.438017 -0.022833 0.000000 
0.407087 -0.022675 0.000000 
0.407575 -0.048937 0.000000 
0.468958 0.331322 0.000000 
[...]
POINT_DATA 1089

SCALARS u_h float 2
LOOKUP_TABLE default
0.014243 -0.191080 
-0.014243 -0.191080 
0.000000 0.000000 
0.000000 0.000000 
0.000000 -0.100000 
-0.016980 -0.135062 
0.000000 0.000000 
0.016980 -0.135062 
0.000000 -0.134704 
0.020428 -0.045096 
0.000000 -0.135574 
-0.008953 -0.145696 
-0.020428 -0.045096 
0.008953 -0.145696 
0.008247 -0.167541 
-0.005175 -0.139671 
-0.038665 -0.088419 
-0.015336 -0.086960 
0.000000 0.000000 
0.000000 -0.085033 
0.000000 0.000000 
0.015336 -0.086960 
0.038665 -0.088419 
0.005175 -0.139671 
-0.008247 -0.167541 
0.017104 -0.163334 
-0.007071 -0.125145 
-0.010324 -0.162380 
0.000000 -0.121294 
-0.000001 -0.120966 
0.001840 -0.100000 
-0.001761 -0.143038 
-0.003338 -0.137392 
0.000000 -0.140967 
-0.001840 -0.100000 
0.000001 -0.120966 
0.010324 -0.162380 
0.007071 -0.125145 
-0.017104 -0.163334 
0.003338 -0.137392 
0.001761 -0.143038 
0.006367 -0.182750 
0.011710 -0.161751 
-0.010238 -0.141986 
0.002304 -0.155731 
-0.002368 -0.152174 
0.003246 -0.149083 
-0.002082 -0.135937 
-0.030468 -0.114522 
-0.021176 -0.119887 
-0.020652 -0.047406 
-0.026479 -0.088607 
-0.035348 -0.054896 
-0.012470 -0.118677 
-0.005607 -0.116354 
0.000000 0.000000 
-0.011100 -0.046247 
0.000000 -0.045797 
-0.004854 -0.045945 
0.000000 0.000000 
-0.006862 -0.085605 
0.000000 -0.115359 
0.000000 0.000000 
0.004854 -0.045945 
0.020652 -0.047406 
0.011100 -0.046247 
0.000000 0.000000 
0.006862 -0.085605 
0.005607 -0.116354 
0.035348 -0.054896 
0.026479 -0.088607 
0.010238 -0.141986 
0.021176 -0.119887 
0.030468 -0.114522 
0.012470 -0.118677 
0.002082 -0.135937 
0.002368 -0.152174 
-0.002304 -0.155731 
-0.011710 -0.161751 
-0.006367 -0.182750 
-0.003246 -0.149083 
0.014713 -0.179220 
-0.001159 -0.162807 
0.000798 -0.178003 
-0.001113 -0.101253 
-0.003762 -0.137289 
0.019328 -0.134020 
-0.012548 -0.149889 
-0.010888 -0.143864 
-0.009315 -0.138234 
0.000000 -0.111628 
0.000813 -0.111552 
0.000926 -0.100000 
-0.000883 -0.129495 
0.000081 -0.121235 
0.000000 -0.129313 
0.002077 -0.100000 
0.002030 -0.111111 
0.004715 -0.107553 
-0.000022 -0.139758 
-0.000869 -0.141492 
0.000000 -0.139346 
-0.005930 -0.140368 
-0.003025 -0.141771 
-0.004888 -0.144713 
0.000000 -0.139614 
-0.001409 -0.140155 
-0.001451 -0.136005 
-0.001499 -0.120949 
-0.002320 -0.130202 
-0.005069 -0.132442 
-0.000926 -0.100000 
-0.000813 -0.111552 
-0.004715 -0.107553 
-0.002030 -0.111111 
-0.002077 -0.100000 
-0.000081 -0.121235 
0.000883 -0.129495 
-0.000798 -0.178003 
0.001159 -0.162807 
-0.014713 -0.179220 
0.009315 -0.138234 
0.010888 -0.143864 
0.012548 -0.149889 
-0.019328 -0.134020 
0.003762 -0.137289 
0.001113 -0.101253 
0.000869 -0.141492 
0.000022 -0.139758 
0.001451 -0.136005 
0.001409 -0.140155 
0.004888 -0.144713 
0.003025 -0.141771 
0.005930 -0.140368 
0.001499 -0.120949 
0.005069 -0.132442 
0.002320 -0.130202 
-0.002176 -0.188678 
0.008513 -0.175049 
0.010612 -0.167142 
0.011865 -0.171394 
0.009556 -0.175265 
0.013070 -0.162407 
0.011207 -0.153604 
-0.013505 -0.140332 
-0.006464 -0.148896 
-0.009546 -0.144011 
-0.002030 -0.148423 
-0.003894 -0.149871 
-0.007429 -0.141393 
0.003866 -0.159904 
0.000369 -0.156101 
0.006360 -0.162116 
-0.000055 -0.141093 
-0.000979 -0.134838 
0.006715 -0.149114 
0.002628 -0.145625 
-0.003433 -0.137664 
-0.000298 -0.143237 
-0.000883 -0.145881 
0.007766 -0.159642 
0.003244 -0.152843 
0.007862 -0.154593 
-0.024113 -0.125426 
-0.020129 -0.130273 
-0.030322 -0.104865 
-0.025907 -0.118516 
-0.035529 -0.102239 
-0.016146 -0.132025 
-0.012444 -0.131809 
-0.016721 -0.025310 
-0.027584 -0.049726 
-0.025337 -0.033109 
-0.020572 -0.087797 
-0.025384 -0.069232 
-0.019310 -0.068205 
-0.039029 -0.072816 
-0.032259 -0.070864 
-0.032732 -0.089089 
-0.004037 -0.127646 
-0.001965 -0.126751 
-0.009185 -0.130572 
-0.006404 -0.129022 
-0.010366 -0.103099 
-0.008812 -0.117446 
-0.014646 -0.104089 
-0.024822 -0.105457 
-0.019497 -0.104996 
-0.016619 -0.119677 
0.000000 0.000000 
-0.011783 -0.023839 
-0.006173 -0.023580 
-0.008567 -0.023591 
0.000000 0.000000 
-0.015292 -0.046577 
-0.014209 -0.067546 
0.000000 -0.023599 
-0.001290 -0.023617 
0.000000 0.000000 
-0.003040 -0.066486 
-0.002342 -0.045856 
0.000000 -0.066372 
0.000000 0.000000 
-0.002681 -0.023617 
-0.004268 -0.023603 
-0.002727 -0.115625 
0.000000 -0.126479 
-0.010805 -0.086207 
-0.006601 -0.102254 
0.000000 -0.101463 
-0.003207 -0.101687 
-0.003328 -0.085205 
-0.007707 -0.046069 
-0.006284 -0.066719 
-0.009936 -0.067071 
0.000000 0.000000 
0.001290 -0.023617 
0.004268 -0.023603 
0.002681 -0.023617 
0.000000 0.000000 
0.002342 -0.045856 
0.003040 -0.066486 
0.016721 -0.025310 
0.011783 -0.023839 
0.000000 0.000000 
0.014209 -0.067546 
0.015292 -0.046577 
0.019310 -0.068205 
0.000000 0.000000 
0.008567 -0.023591 
0.006173 -0.023580 
0.002727 -0.115625 
0.001965 -0.126751 
0.003328 -0.085205 
0.003207 -0.101687 
0.010366 -0.103099 
0.006601 -0.102254 
0.010805 -0.086207 
0.007707 -0.046069 
0.009936 -0.067071 
0.006284 -0.066719 
0.025337 -0.033109 
0.027584 -0.049726 
0.032732 -0.089089 
0.032259 -0.070864 
0.039029 -0.072816 
0.025384 -0.069232 
0.020572 -0.087797 
0.013505 -0.140332 
0.020129 -0.130273 
0.024113 -0.125426 
0.012444 -0.131809 
0.016146 -0.132025 
0.007429 -0.141393 
0.035529 -0.102239 
0.025907 -0.118516 
0.030322 -0.104865 
0.004037 -0.127646 
0.000979 -0.134838 
0.014646 -0.104089 
0.008812 -0.117446 
0.003433 -0.137664 
0.006404 -0.129022 
0.009185 -0.130572 
0.024822 -0.105457 
0.016619 -0.119677 
0.019497 -0.104996 
0.009546 -0.144011 
0.006464 -0.148896 
-0.006360 -0.162116 
-0.000369 -0.156101 
-0.003866 -0.159904 
0.003894 -0.149871 
0.002030 -0.148423 
-0.008513 -0.175049 
0.002176 -0.188678 
-0.011207 -0.153604 
-0.013070 -0.162407 
-0.009556 -0.175265 
-0.011865 -0.171394 
-0.010612 -0.167142 
0.000055 -0.141093 
0.000883 -0.145881 
0.000298 -0.143237 
-0.002628 -0.145625 
-0.006715 -0.149114 
-0.007766 -0.159642 
-0.007862 -0.154593 
-0.003244 -0.152843 
0.014248 -0.185166 
0.007517 -0.178945 
0.007738 -0.184745 
0.006788 -0.163271 
0.007260 -0.172092 
0.015715 -0.172254 
-0.005628 -0.170391 
-0.000049 -0.171331 
-0.006731 -0.162477 
0.004677 -0.080346 
0.002853 -0.111989 
0.018485 -0.106757 
-0.007588 -0.126943 
-0.003956 -0.119449 
-0.004680 -0.115192 
0.018531 -0.151261 
0.004368 -0.135058 
0.005869 -0.151416 
-0.011041 -0.146937 
-0.011269 -0.143521 
-0.009412 -0.142532 
-0.010926 -0.153779 
-0.012181 -0.147105 
-0.012578 -0.155159 
-0.008569 -0.132574 
-0.010864 -0.139089 
-0.009709 -0.133567 
-0.002504 -0.151689 
-0.008321 -0.140436 
-0.007773 -0.152526 
0.000000 -0.106086 
0.000454 -0.106068 
0.000456 -0.100000 
0.000248 -0.116648 
0.000389 -0.111598 
0.000000 -0.116680 
0.001399 -0.100000 
0.000937 -0.106054 
0.001485 -0.106021 
-0.000588 -0.132779 
-0.000411 -0.129365 
0.000000 -0.132688 
0.000089 -0.121141 
-0.000418 -0.125547 
-0.000745 -0.125610 
0.000000 -0.125504 
-0.000188 -0.125517 
0.000045 -0.121276 
0.004011 -0.091592 
0.005666 -0.103127 
0.010226 -0.092850 
0.002174 -0.105915 
0.003236 -0.105482 
0.002147 -0.100000 
0.001629 -0.115254 
0.003147 -0.110126 
0.001234 -0.116044 
0.000517 -0.116583 
0.000837 -0.116425 
0.001325 -0.111437 
0.000208 -0.137428 
-0.000025 -0.139437 
0.000000 -0.137393 
-0.001311 -0.142134 
-0.000472 -0.141019 
-0.000692 -0.141623 
0.000000 -0.140537 
-0.000242 -0.140658 
-0.000433 -0.141106 
-0.007438 -0.142699 
-0.005600 -0.142978 
-0.006836 -0.145176 
-0.003326 -0.139958 
-0.004413 -0.141254 
-0.004545 -0.138631 
-0.003177 -0.144045 
-0.003934 -0.143061 
-0.002485 -0.142803 
0.000000 -0.137904 
-0.000730 -0.138045 
-0.000697 -0.135695 
-0.000587 -0.140797 
-0.000690 -0.139763 
0.000000 -0.140649 
-0.002316 -0.136547 
-0.001504 -0.138408 
-0.002360 -0.139029 
-0.001820 -0.141858 
-0.002183 -0.140814 
-0.001189 -0.141195 
0.004332 -0.103519 
-0.000401 -0.120789 
0.001454 -0.114183 
-0.000417 -0.113560 
-0.003710 -0.122057 
-0.001241 -0.133008 
-0.003012 -0.134117 
-0.002026 -0.133426 
-0.001488 -0.129745 
-0.001279 -0.125761 
-0.007552 -0.139247 
-0.005845 -0.129059 
-0.007066 -0.134738 
-0.005786 -0.136860 
-0.004258 -0.135208 
-0.002189 -0.126160 
-0.003487 -0.131023 
-0.003673 -0.127116 
-0.000456 -0.100000 
-0.000454 -0.106068 
-0.001485 -0.106021 
-0.000937 -0.106054 
-0.001399 -0.100000 
-0.000389 -0.111598 
-0.000248 -0.116648 
-0.010226 -0.092850 
-0.005666 -0.103127 
-0.004011 -0.091592 
-0.001234 -0.116044 
-0.003147 -0.110126 
-0.001629 -0.115254 
-0.002147 -0.100000 
-0.003236 -0.105482 
-0.002174 -0.105915 
0.000411 -0.129365 
0.000588 -0.132779 
-0.000045 -0.121276 
0.000188 -0.125517 
0.000745 -0.125610 
0.000418 -0.125547 
-0.000089 -0.121141 
-0.001325 -0.111437 
-0.000837 -0.116425 
-0.000517 -0.116583 
-0.007738 -0.184745 
-0.007517 -0.178945 
-0.014248 -0.185166 
0.006731 -0.162477 
0.000049 -0.171331 
0.005628 -0.170391 
-0.015715 -0.172254 
-0.007260 -0.172092 
-0.006788 -0.163271 
0.009412 -0.142532 
0.011269 -0.143521 
0.011041 -0.146937 
0.009709 -0.133567 
0.010864 -0.139089 
0.008569 -0.132574 
0.012578 -0.155159 
0.012181 -0.147105 
0.010926 -0.153779 
-0.018485 -0.106757 
-0.002853 -0.111989 
-0.004677 -0.080346 
-0.005869 -0.151416 
-0.004368 -0.135058 
-0.018531 -0.151261 
0.004680 -0.115192 
0.003956 -0.119449 
0.007588 -0.126943 
0.007773 -0.152526 
0.008321 -0.140436 
0.002504 -0.151689 
0.000025 -0.139437 
-0.000208 -0.137428 
0.000433 -0.141106 
0.000242 -0.140658 
0.000692 -0.141623 
0.000472 -0.141019 
0.001311 -0.142134 
0.000697 -0.135695 
0.000730 -0.138045 
0.002360 -0.139029 
0.001504 -0.138408 
0.002316 -0.136547 
0.000690 -0.139763 
0.000587 -0.140797 
0.006836 -0.145176 
0.005600 -0.142978 
0.007438 -0.142699 
0.002485 -0.142803 
0.003934 -0.143061 
0.003177 -0.144045 
0.004545 -0.138631 
0.004413 -0.141254 
0.003326 -0.139958 
0.001189 -0.141195 
0.002183 -0.140814 
0.001820 -0.141858 
-0.004332 -0.103519 
0.003710 -0.122057 
0.000417 -0.113560 
-0.001454 -0.114183 
0.000401 -0.120789 
0.007552 -0.139247 
0.004258 -0.135208 
0.005786 -0.136860 
0.007066 -0.134738 
0.005845 -0.129059 
0.001241 -0.133008 
0.001279 -0.125761 
0.001488 -0.129745 
0.002026 -0.133426 
0.003012 -0.134117 
0.003673 -0.127116 
0.003487 -0.131023 
0.002189 -0.126160 
-0.008059 -0.190403 
-0.001477 -0.183544 
0.007528 -0.179417 
0.003729 -0.181707 
0.002747 -0.186036 
0.004633 -0.176647 
0.009455 -0.169440 
0.009579 -0.168096 
0.010697 -0.171120 
0.009374 -0.171395 
0.012421 -0.166315 
0.011708 -0.169351 
0.011335 -0.164942 
0.008607 -0.179092 
0.010861 -0.174039 
0.009867 -0.176826 
0.012179 -0.152077 
0.010270 -0.149414 
0.012331 -0.162410 
0.013103 -0.156411 
0.011685 -0.157854 
0.012747 -0.157350 
0.012795 -0.162224 
0.010870 -0.173291 
0.012616 -0.167473 
0.011706 -0.168488 
-0.015239 -0.138252 
-0.011600 -0.142783 
-0.013271 -0.139655 
-0.008473 -0.145869 
-0.009990 -0.144794 
-0.011826 -0.141519 
-0.005885 -0.148169 
-0.007959 -0.147035 
-0.004374 -0.151027 
-0.003816 -0.144264 
-0.004744 -0.145232 
-0.006233 -0.140614 
-0.000743 -0.153050 
-0.002868 -0.149361 
0.000065 -0.152218 
-0.008767 -0.141895 
-0.005833 -0.145921 
-0.007079 -0.146187 
0.006357 -0.163716 
0.005231 -0.161727 
0.007701 -0.164970 
-0.000920 -0.154786 
0.002316 -0.158342 
0.000917 -0.156071 
0.004481 -0.159024 
0.003519 -0.159245 
0.001454 -0.156341 
-0.005099 -0.149779 
-0.001766 -0.153264 
-0.002987 -0.152658 
-0.000465 -0.137697 
-0.000481 -0.134610 
0.000899 -0.142469 
-0.000003 -0.140313 
-0.001508 -0.135293 
-0.000746 -0.138201 
-0.001062 -0.138913 
0.008027 -0.147862 
0.005839 -0.146737 
0.002990 -0.147269 
0.004532 -0.147424 
0.005097 -0.149508 
0.003873 -0.145589 
0.002207 -0.144206 
-0.004247 -0.138662 
-0.002394 -0.141977 
-0.003038 -0.143145 
-0.001428 -0.139805 
-0.001865 -0.140842 
-0.002718 -0.136740 
0.001232 -0.147866 
-0.000534 -0.144526 
0.001280 -0.146296 
0.001082 -0.143548 
0.001218 -0.144837 
-0.000147 -0.142078 
0.008773 -0.164739 
0.005170 -0.157923 
0.007216 -0.161335 
0.009546 -0.163296 
0.009986 -0.160907 
-0.001374 -0.147217 
0.003347 -0.150983 
0.001035 -0.149461 
0.000654 -0.150962 
0.002902 -0.154493 
0.009036 -0.151013 
0.010057 -0.157852 
0.009736 -0.154444 
0.007420 -0.151785 
0.005499 -0.151765 
0.005568 -0.156187 
0.005671 -0.154057 
0.007984 -0.157303 
-0.020616 -0.130399 
-0.018765 -0.133448 
-0.025318 -0.122808 
-0.022142 -0.128309 
-0.027417 -0.120138 
-0.016893 -0.135503 
-0.015050 -0.136725 
-0.034685 -0.096684 
-0.032994 -0.103885 
-0.037384 -0.095533 
-0.023539 -0.119459 
-0.028321 -0.111940 
-0.025767 -0.112676 
-0.033196 -0.108561 
-0.030815 -0.110621 
-0.028231 -0.116920 
-0.010014 -0.136920 
-0.008567 -0.136280 
-0.013271 -0.137272 
-0.011586 -0.137291 
-0.016690 -0.126312 
-0.014247 -0.132099 
-0.018801 -0.126235 
-0.023154 -0.124619 
-0.020967 -0.125714 
-0.018117 -0.131463 
-0.011104 -0.013709 
-0.020605 -0.027863 
-0.016330 -0.019224 
-0.023914 -0.048284 
-0.023068 -0.037913 
-0.019590 -0.036481 
-0.031354 -0.044677 
-0.027136 -0.040520 
-0.031516 -0.051916 
-0.017863 -0.087373 
-0.020266 -0.078285 
-0.017537 -0.077881 
-0.026329 -0.079239 
-0.023203 -0.078737 
-0.023453 -0.088217 
-0.020439 -0.058015 
-0.022224 -0.068656 
-0.023526 -0.058604 
-0.039259 -0.080863 
-0.036192 -0.080730 
-0.035790 -0.088981 
-0.034271 -0.062304 
-0.035747 -0.071867 
-0.037801 -0.064201 
-0.029597 -0.088924 
-0.032925 -0.080308 
-0.029598 -0.079777 
-0.026919 -0.059468 
-0.028757 -0.069966 
-0.030554 -0.060692 
-0.001498 -0.131185 
-0.000760 -0.130971 
-0.003094 -0.132176 
-0.002269 -0.131596 
-0.003601 -0.121897 
-0.002973 -0.127125 
-0.004883 -0.122365 
-0.007247 -0.135476 
-0.006051 -0.134598 
-0.009261 -0.124284 
-0.007737 -0.129801 
-0.010942 -0.124968 
-0.004969 -0.133719 
-0.003988 -0.132896 
-0.012893 -0.095380 
-0.012436 -0.103588 
-0.015200 -0.095829 
-0.007160 -0.116866 
-0.009714 -0.110607 
-0.007897 -0.110092 
-0.013721 -0.111712 
-0.011652 -0.111157 
-0.010580 -0.118063 
-0.005175 -0.128290 
-0.007697 -0.123592 
-0.006242 -0.122940 
-0.031825 -0.097260 
-0.025943 -0.097343 
-0.028886 -0.097436 
-0.027577 -0.105344 
-0.023207 -0.112966 
-0.017668 -0.096280 
-0.015923 -0.112228 
-0.017002 -0.104571 
-0.020294 -0.096707 
-0.023062 -0.097077 
-0.010755 -0.131268 
-0.018858 -0.119924 
-0.014665 -0.126062 
-0.012745 -0.125585 
-0.014485 -0.119236 
-0.022114 -0.105313 
-0.018251 -0.112654 
-0.020688 -0.112927 
0.000000 0.000000 
-0.008717 -0.012434 
-0.006086 -0.011875 
-0.007205 -0.012019 
0.000000 0.000000 
-0.013930 -0.024275 
-0.016715 -0.035754 
-0.003192 -0.011884 
-0.003772 -0.011859 
0.000000 0.000000 
-0.010432 -0.035105 
-0.007294 -0.023575 
-0.008838 -0.035052 
0.000000 0.000000 
-0.004428 -0.011839 
-0.005186 -0.011835 
-0.016644 -0.067845 
-0.015016 -0.077517 
-0.017797 -0.046887 
-0.017659 -0.057610 
-0.012902 -0.057101 
-0.015158 -0.057321 
-0.013077 -0.046381 
-0.010039 -0.023658 
-0.012235 -0.035201 
-0.014302 -0.035388 
0.000000 -0.011965 
-0.000329 -0.011971 
0.000000 0.000000 
-0.000918 -0.034903 
-0.000638 -0.023611 
0.000000 -0.034885 
0.000000 0.000000 
-0.000665 -0.011971 
-0.001016 -0.011966 
-0.001605 -0.076011 
-0.001507 -0.066414 
0.000000 -0.075962 
-0.003567 -0.045896 
-0.002741 -0.056389 
-0.004170 -0.056459 
0.000000 -0.056304 
-0.001358 -0.056338 
-0.001160 -0.045823 
0.000000 0.000000 
-0.002207 -0.011929 
-0.002675 -0.011908 
-0.001385 -0.011958 
-0.001779 -0.011946 
0.000000 0.000000 
-0.004940 -0.034975 
-0.003443 -0.023612 
-0.003848 -0.034956 
-0.001855 -0.034921 
-0.002826 -0.034938 
-0.001967 -0.023619 
-0.000984 -0.126537 
0.000000 -0.130952 
-0.004137 -0.115935 
-0.002376 -0.121555 
0.000000 -0.121278 
-0.001184 -0.121348 
-0.001356 -0.115433 
-0.012987 -0.086568 
-0.010739 -0.094954 
-0.006831 -0.094230 
-0.008725 -0.094566 
-0.008770 -0.085883 
-0.008427 -0.102648 
-0.006187 -0.109640 
0.000000 -0.093547 
-0.001646 -0.093609 
-0.001651 -0.085090 
-0.001494 -0.108816 
-0.001593 -0.101531 
0.000000 -0.108745 
-0.005056 -0.085377 
-0.003317 -0.093745 
-0.005037 -0.093954 
-0.004564 -0.109269 
-0.004869 -0.101930 
-0.003008 -0.108992 
-0.005172 -0.023591 
-0.006226 -0.046002 
-0.006120 -0.034995 
-0.007411 -0.035019 
-0.009322 -0.046148 
-0.003236 -0.076104 
-0.006681 -0.076420 
-0.004920 -0.076241 
-0.004624 -0.066587 
-0.005672 -0.056546 
-0.012690 -0.077190 
-0.010856 -0.056925 
-0.011982 -0.067291 
-0.010541 -0.076897 
-0.008547 -0.076640 
-0.007269 -0.056652 
-0.008046 -0.066881 
-0.008988 -0.056778 
0.000000 0.000000 
0.000329 -0.011971 
0.001016 -0.011966 
0.000665 -0.011971 
0.000000 0.000000 
0.000638 -0.023611 
0.000918 -0.034903 
0.002675 -0.011908 
0.002207 -0.011929 
0.000000 0.000000 
0.003848 -0.034956 
0.003443 -0.023612 
0.004940 -0.034975 
0.000000 0.000000 
0.001779 -0.011946 
0.001385 -0.011958 
0.001507 -0.066414 
0.001605 -0.076011 
0.001160 -0.045823 
0.001358 -0.056338 
0.004170 -0.056459 
0.002741 -0.056389 
0.003567 -0.045896 
0.001967 -0.023619 
0.002826 -0.034938 
0.001855 -0.034921 
0.011104 -0.013709 
0.008717 -0.012434 
0.000000 0.000000 
0.016715 -0.035754 
0.013930 -0.024275 
0.019590 -0.036481 
0.000000 0.000000 
0.007205 -0.012019 
0.006086 -0.011875 
0.015016 -0.077517 
0.016644 -0.067845 
0.017537 -0.077881 
0.013077 -0.046381 
0.015158 -0.057321 
0.012902 -0.057101 
0.020439 -0.058015 
0.017659 -0.057610 
0.017797 -0.046887 
0.000000 0.000000 
0.003772 -0.011859 
0.003192 -0.011884 
0.005186 -0.011835 
0.004428 -0.011839 
0.000000 0.000000 
0.008838 -0.035052 
0.007294 -0.023575 
0.010432 -0.035105 
0.014302 -0.035388 
0.012235 -0.035201 
0.010039 -0.023658 
0.000984 -0.126537 
0.000760 -0.130971 
0.001356 -0.115433 
0.001184 -0.121348 
0.003601 -0.121897 
0.002376 -0.121555 
0.004137 -0.115935 
0.001651 -0.085090 
0.001646 -0.093609 
0.005037 -0.093954 
0.003317 -0.093745 
0.005056 -0.085377 
0.001593 -0.101531 
0.001494 -0.108816 
0.012893 -0.095380 
0.010739 -0.094954 
0.012987 -0.086568 
0.006187 -0.109640 
0.008427 -0.102648 
0.007897 -0.110092 
0.008770 -0.085883 
0.008725 -0.094566 
0.006831 -0.094230 
0.003008 -0.108992 
0.004869 -0.101930 
0.004564 -0.109269 
0.005172 -0.023591 
0.009322 -0.046148 
0.007411 -0.035019 
0.006120 -0.034995 
0.006226 -0.046002 
0.012690 -0.077190 
0.008547 -0.076640 
0.010541 -0.076897 
0.011982 -0.067291 
0.010856 -0.056925 
0.003236 -0.076104 
0.005672 -0.056546 
0.004624 -0.066587 
0.004920 -0.076241 
0.006681 -0.076420 
0.008988 -0.056778 
0.008046 -0.066881 
0.007269 -0.056652 
0.016330 -0.019224 
0.020605 -0.027863 
0.031516 -0.051916 
0.027136 -0.040520 
0.031354 -0.044677 
0.023068 -0.037913 
0.023914 -0.048284 
0.035790 -0.088981 
0.036192 -0.080730 
0.039259 -0.080863 
0.029598 -0.079777 
0.032925 -0.080308 
0.029597 -0.088924 
0.037801 -0.064201 
0.035747 -0.071867 
0.034271 -0.062304 
0.020266 -0.078285 
0.017863 -0.087373 
0.023526 -0.058604 
0.022224 -0.068656 
0.023453 -0.088217 
0.023203 -0.078737 
0.026329 -0.079239 
0.030554 -0.060692 
0.028757 -0.069966 
0.026919 -0.059468 
0.015239 -0.138252 
0.018765 -0.133448 
0.020616 -0.130399 
0.015050 -0.136725 
0.016893 -0.135503 
0.011826 -0.141519 
0.027417 -0.120138 
0.022142 -0.128309 
0.025318 -0.122808 
0.008567 -0.136280 
0.010014 -0.136920 
0.006233 -0.140614 
0.018801 -0.126235 
0.014247 -0.132099 
0.016690 -0.126312 
0.008767 -0.141895 
0.011586 -0.137291 
0.013271 -0.137272 
0.037384 -0.095533 
0.032994 -0.103885 
0.034685 -0.096684 
0.028231 -0.116920 
0.030815 -0.110621 
0.033196 -0.108561 
0.025767 -0.112676 
0.028321 -0.111940 
0.023539 -0.119459 
0.018117 -0.131463 
0.020967 -0.125714 
0.023154 -0.124619 
0.001498 -0.131185 
0.000481 -0.134610 
0.004883 -0.122365 
0.002973 -0.127125 
0.001508 -0.135293 
0.002269 -0.131596 
0.003094 -0.132176 
0.015200 -0.095829 
0.012436 -0.103588 
0.010580 -0.118063 
0.011652 -0.111157 
0.013721 -0.111712 
0.009714 -0.110607 
0.007160 -0.116866 
0.004247 -0.138662 
0.006051 -0.134598 
0.007247 -0.135476 
0.003988 -0.132896 
0.004969 -0.133719 
0.002718 -0.136740 
0.010942 -0.124968 
0.007737 -0.129801 
0.009261 -0.124284 