# vtk DataFile Version 2.0
Unstructured Grid Example
ASCII
DATASET UNSTRUCTURED_GRID

POINTS 16641 float
0.016392 -0.203249 0.000000 
0.983608 -0.203249 0.000000 
1.000000 1.000000 0.000000 
0.000000 1.000000 0.000000 
0.500000 -0.100000 0.000000 
0.981498 0.357870 0.000000 
0.500000 1.000000 0.000000 
0.018502 0.357870 0.000000 
0.500000 0.361629 0.000000 
0.268093 -0.100000 0.000000 
0.500000 0.111068 0.000000 
0.240976 0.094606 0.000000 
0.731907 -0.100000 0.000000 
0.759024 0.094606 0.000000 
1.005510 0.071046 0.000000 
0.744688 0.354726 0.000000 
0.959725 0.658363 0.000000 
0.734213 0.660289 0.000000 
0.750000 1.000000 0.000000 
0.500000 0.662660 0.000000 
0.250000 1.000000 0.000000 
0.265787 0.660289 0.000000 
0.040275 0.658363 0.000000 
0.255312 0.354726 0.000000 
-0.005510 0.071046 0.000000 
0.144354 -0.179106 0.000000 
0.243420 -0.015769 0.000000 
0.117985 -0.051428 0.000000 
0.500000 0.002416 0.000000 
0.374288 0.000178 0.000000 
0.380352 -0.100000 0.000000 
0.372820 0.226848 0.000000 
0.370763 0.107353 0.000000 
0.500000 0.229908 0.000000 
0.619648 -0.100000 0.000000 
0.625712 0.000178 0.000000 
0.882015 -0.051428 0.000000 
0.756580 -0.015769 0.000000 
0.855646 -0.179106 0.000000 
0.629237 0.107353 0.000000 
0.627180 0.226848 0.000000 
1.002403 -0.070683 0.000000 
0.884914 0.077162 0.000000 
0.864014 0.351447 0.000000 
0.876320 0.210669 0.000000 
0.995793 0.213693 0.000000 
0.753264 0.218681 0.000000 
0.623037 0.359608 0.000000 
0.967986 0.505554 0.000000 
0.852976 0.500341 0.000000 
0.853441 0.826021 0.000000 
0.847543 0.658251 0.000000 
0.963061 0.818196 0.000000 
0.737221 0.502157 0.000000 
0.619368 0.505128 0.000000 
0.875000 1.000000 0.000000 
0.738537 0.827426 0.000000 
0.500000 0.828028 0.000000 
0.620035 0.827870 0.000000 
0.625000 1.000000 0.000000 
0.618003 0.661995 0.000000 
0.500000 0.506401 0.000000 
0.375000 1.000000 0.000000 
0.379965 0.827870 0.000000 
0.146559 0.826021 0.000000 
0.261463 0.827426 0.000000 
0.125000 1.000000 0.000000 
0.381997 0.661995 0.000000 
0.380632 0.505128 0.000000 
0.036939 0.818196 0.000000 
0.152457 0.658251 0.000000 
0.135986 0.351447 0.000000 
0.147024 0.500341 0.000000 
0.032014 0.505554 0.000000 
0.262779 0.502157 0.000000 
0.376963 0.359608 0.000000 
0.004207 0.213693 0.000000 
0.123680 0.210669 0.000000 
0.115086 0.077162 0.000000 
-0.002403 -0.070683 0.000000 
0.246736 0.218681 0.000000 
0.079319 -0.192789 0.000000 
0.127762 -0.115755 0.000000 
0.067151 -0.129155 0.000000 
0.250955 -0.063022 0.000000 
0.187087 -0.092676 0.000000 
0.211262 -0.154534 0.000000 
0.176499 0.024785 0.000000 
0.178999 -0.034123 0.000000 
0.240729 0.037442 0.000000 
0.500000 -0.049517 0.000000 
0.439145 -0.049670 0.000000 
0.439962 -0.100000 0.000000 
0.436083 0.055005 0.000000 
0.437457 0.001954 0.000000 
0.500000 0.055761 0.000000 
0.321934 -0.100000 0.000000 
0.378181 -0.050314 0.000000 
0.316403 -0.052529 0.000000 
0.437331 0.293465 0.000000 
0.436366 0.229133 0.000000 
0.500000 0.294114 0.000000 
0.305751 0.102195 0.000000 
0.371327 0.165451 0.000000 
0.307051 0.161017 0.000000 
0.500000 0.168969 0.000000 
0.435684 0.168097 0.000000 
0.435512 0.110180 0.000000 
0.309639 -0.004543 0.000000 
0.371624 0.052404 0.000000 
0.306316 0.046927 0.000000 
0.560038 -0.100000 0.000000 
0.560855 -0.049670 0.000000 
0.683597 -0.052529 0.000000 
0.621819 -0.050314 0.000000 
0.678066 -0.100000 0.000000 
0.562543 0.001954 0.000000 
0.563917 0.055005 0.000000 
0.932849 -0.129155 0.000000 
0.872238 -0.115755 0.000000 
0.920681 -0.192789 0.000000 
0.759271 0.037442 0.000000 
0.821001 -0.034123 0.000000 
0.823501 0.024785 0.000000 
0.788738 -0.154534 0.000000 
0.812913 -0.092676 0.000000 
0.749045 -0.063022 0.000000 
0.563634 0.229133 0.000000 
0.562669 0.293465 0.000000 
0.564488 0.110180 0.000000 
0.564316 0.168097 0.000000 
0.692949 0.161017 0.000000 
0.628673 0.165451 0.000000 
0.694249 0.102195 0.000000 
0.690361 -0.004543 0.000000 
0.693684 0.046927 0.000000 
0.628376 0.052404 0.000000 
0.994039 -0.138952 0.000000 
0.942220 -0.063180 0.000000 
0.945761 0.071695 0.000000 
0.946284 0.003878 0.000000 
1.006158 -0.000142 0.000000 
0.885569 0.012566 0.000000 
0.822731 0.085554 0.000000 
0.922882 0.352816 0.000000 
0.929807 0.280741 0.000000 
0.988833 0.285450 0.000000 
0.810052 0.282029 0.000000 
0.870281 0.280090 0.000000 
0.804655 0.352461 0.000000 
1.001661 0.142310 0.000000 
0.936436 0.209971 0.000000 
0.942066 0.140343 0.000000 
0.625187 0.291579 0.000000 
0.561608 0.361126 0.000000 
0.756785 0.155097 0.000000 
0.690477 0.223218 0.000000 
0.684116 0.357330 0.000000 
0.687382 0.288685 0.000000 
0.749060 0.285248 0.000000 
0.881474 0.143081 0.000000 
0.815267 0.214082 0.000000 
0.819721 0.148606 0.000000 
0.974372 0.431154 0.000000 
0.916244 0.426362 0.000000 
0.905937 0.578564 0.000000 
0.910412 0.501548 0.000000 
0.962888 0.581231 0.000000 
0.858075 0.424829 0.000000 
0.799587 0.425388 0.000000 
0.919726 0.911216 0.000000 
0.908646 0.823516 0.000000 
0.973262 0.902630 0.000000 
0.791234 0.659247 0.000000 
0.848626 0.740908 0.000000 
0.792495 0.742097 0.000000 
0.959351 0.737195 0.000000 
0.903934 0.739131 0.000000 
0.903480 0.657646 0.000000 
0.621015 0.430840 0.000000 
0.560603 0.432045 0.000000 
0.740601 0.427051 0.000000 
0.681059 0.429053 0.000000 
0.676920 0.581202 0.000000 
0.678556 0.503732 0.000000 
0.734958 0.579952 0.000000 
0.849255 0.578102 0.000000 
0.792367 0.578784 0.000000 
0.795328 0.500825 0.000000 
0.937500 1.000000 0.000000 
0.862636 0.912911 0.000000 
0.743633 0.913286 0.000000 
0.803597 0.913233 0.000000 
0.812500 1.000000 0.000000 
0.796617 0.826991 0.000000 
0.735342 0.742915 0.000000 
0.500000 0.913314 0.000000 
0.561185 0.913309 0.000000 
0.562500 1.000000 0.000000 
0.559400 0.744272 0.000000 
0.560110 0.827986 0.000000 
0.500000 0.744373 0.000000 
0.687500 1.000000 0.000000 
0.622263 0.913300 0.000000 
0.683124 0.913293 0.000000 
0.559787 0.506070 0.000000 
0.500000 0.432466 0.000000 
0.676431 0.661236 0.000000 
0.618306 0.582269 0.000000 
0.500000 0.583227 0.000000 
0.559265 0.582977 0.000000 
0.559119 0.662487 0.000000 
0.679584 0.827687 0.000000 
0.618575 0.743983 0.000000 
0.677298 0.743528 0.000000 
0.437500 1.000000 0.000000 
0.438815 0.913309 0.000000 
0.316876 0.913293 0.000000 
0.377737 0.913300 0.000000 
0.312500 1.000000 0.000000 
0.439890 0.827986 0.000000 
0.440600 0.744272 0.000000 
0.080274 0.911216 0.000000 
0.137364 0.912911 0.000000 
0.062500 1.000000 0.000000 
0.264658 0.742915 0.000000 
0.203383 0.826991 0.000000 
0.207505 0.742097 0.000000 
0.187500 1.000000 0.000000 
0.196403 0.913233 0.000000 
0.256367 0.913286 0.000000 
0.440213 0.506070 0.000000 
0.439397 0.432045 0.000000 
0.440881 0.662487 0.000000 
0.440735 0.582977 0.000000 
0.323080 0.581202 0.000000 
0.381694 0.582269 0.000000 
0.323569 0.661236 0.000000 
0.320416 0.827687 0.000000 
0.322702 0.743528 0.000000 
0.381425 0.743983 0.000000 
0.026738 0.902630 0.000000 
0.091354 0.823516 0.000000 
0.096520 0.657646 0.000000 
0.096066 0.739131 0.000000 
0.040649 0.737195 0.000000 
0.151374 0.740908 0.000000 
0.208766 0.659247 0.000000 
0.077118 0.352816 0.000000 
0.083756 0.426362 0.000000 
0.025628 0.431154 0.000000 
0.200413 0.425388 0.000000 
0.141925 0.424829 0.000000 
0.195345 0.352461 0.000000 
0.037112 0.581231 0.000000 
0.089588 0.501548 0.000000 
0.094063 0.578564 0.000000 
0.378985 0.430840 0.000000 
0.438392 0.361126 0.000000 
0.265042 0.579952 0.000000 
0.321444 0.503732 0.000000 
0.315884 0.357330 0.000000 
0.318941 0.429053 0.000000 
0.259399 0.427051 0.000000 
0.150745 0.578102 0.000000 
0.204672 0.500825 0.000000 
0.207633 0.578784 0.000000 
0.011167 0.285450 0.000000 
0.070193 0.280741 0.000000 
0.057934 0.140343 0.000000 
0.063564 0.209971 0.000000 
-0.001661 0.142310 0.000000 
0.129719 0.280090 0.000000 
0.189948 0.282029 0.000000 
0.057780 -0.063180 0.000000 
0.005961 -0.138952 0.000000 
0.177269 0.085554 0.000000 
0.114431 0.012566 0.000000 
-0.006158 -0.000142 0.000000 
0.053716 0.003878 0.000000 
0.054239 0.071695 0.000000 
0.374813 0.291579 0.000000 
0.250940 0.285248 0.000000 
0.312618 0.288685 0.000000 
0.309523 0.223218 0.000000 
0.243215 0.155097 0.000000 
0.118526 0.143081 0.000000 
0.180279 0.148606 0.000000 
0.184733 0.214082 0.000000 
0.047655 -0.198089 0.000000 
0.073268 -0.161367 0.000000 
0.042158 -0.166525 0.000000 
0.135509 -0.147850 0.000000 
0.104443 -0.155403 0.000000 
0.111557 -0.186710 0.000000 
0.091997 -0.090697 0.000000 
0.097611 -0.123263 0.000000 
0.121948 -0.083522 0.000000 
0.258368 -0.082517 0.000000 
0.225085 -0.101766 0.000000 
0.244191 -0.129417 0.000000 
0.213449 -0.051064 0.000000 
0.217768 -0.076730 0.000000 
0.246363 -0.040391 0.000000 
0.177634 -0.168994 0.000000 
0.195842 -0.123196 0.000000 
0.166140 -0.137689 0.000000 
0.208336 0.060371 0.000000 
0.208345 0.031323 0.000000 
0.240553 0.065584 0.000000 
0.148230 -0.043401 0.000000 
0.177255 -0.004852 0.000000 
0.146152 -0.012558 0.000000 
0.241629 0.010272 0.000000 
0.209087 0.003033 0.000000 
0.210711 -0.024453 0.000000 
0.157506 -0.105827 0.000000 
0.182047 -0.063246 0.000000 
0.151815 -0.074398 0.000000 
0.500000 -0.074977 0.000000 
0.469855 -0.074988 0.000000 
0.469957 -0.100000 0.000000 
0.469185 -0.023778 0.000000 
0.469575 -0.049551 0.000000 
0.500000 -0.023709 0.000000 
0.410071 -0.100000 0.000000 
0.439743 -0.075034 0.000000 
0.409695 -0.075122 0.000000 
0.467875 0.082918 0.000000 
0.468077 0.055575 0.000000 
0.500000 0.083127 0.000000 
0.405999 0.001291 0.000000 
0.436682 0.028260 0.000000 
0.404825 0.027393 0.000000 
0.500000 0.028885 0.000000 
0.468380 0.028733 0.000000 
0.468764 0.002306 0.000000 
0.293813 -0.100000 0.000000 
0.320179 -0.076105 0.000000 
0.290211 -0.077452 0.000000 
0.379746 -0.075277 0.000000 
0.349918 -0.075556 0.000000 
0.350913 -0.100000 0.000000 
0.344694 -0.026521 0.000000 
0.347500 -0.051063 0.000000 
0.376200 -0.025200 0.000000 
0.438325 -0.024004 0.000000 
0.407360 -0.024439 0.000000 
0.408694 -0.049901 0.000000 
[...]
POINT_DATA 16641

SCALARS u_h float 2
LOOKUP_TABLE default
0.016392 -0.203249 
-0.016392 -0.203249 
0.000000 0.000000 
0.000000 0.000000 
0.000000 -0.100000 
-0.018502 -0.142130 
0.000000 0.000000 
0.018502 -0.142130 
0.000000 -0.138371 
0.018093 -0.100000 
0.000000 -0.138932 
-0.009024 -0.155394 
-0.018093 -0.100000 
0.009024 -0.155394 
0.005510 -0.178954 
-0.005312 -0.145274 
-0.040275 -0.091637 
-0.015787 -0.089711 
0.000000 0.000000 
0.000000 -0.087340 
0.000000 0.000000 
0.015787 -0.089711 
0.040275 -0.091637 
0.005312 -0.145274 
-0.005510 -0.178954 
0.019354 -0.179106 
-0.006580 -0.140769 
-0.007015 -0.176428 
0.000000 -0.122584 
-0.000712 -0.124822 
0.005352 -0.100000 
-0.002180 -0.148152 
-0.004237 -0.142647 
0.000000 -0.145092 
-0.005352 -0.100000 
0.000712 -0.124822 
0.007015 -0.176428 
0.006580 -0.140769 
-0.019354 -0.179106 
0.004237 -0.142647 
0.002180 -0.148152 
0.002403 -0.195683 
0.009914 -0.172838 
-0.010986 -0.148553 
0.001320 -0.164331 
-0.004207 -0.161307 
0.003264 -0.156319 
-0.001963 -0.140392 
-0.032014 -0.119446 
-0.022024 -0.124659 
-0.021559 -0.048979 
-0.027457 -0.091749 
-0.036939 -0.056804 
-0.012779 -0.122843 
-0.005632 -0.119872 
0.000000 0.000000 
-0.011463 -0.047574 
0.000000 -0.046972 
-0.004965 -0.047130 
0.000000 0.000000 
-0.006997 -0.088005 
0.000000 -0.118599 
0.000000 0.000000 
0.004965 -0.047130 
0.021559 -0.048979 
0.011463 -0.047574 
0.000000 0.000000 
0.006997 -0.088005 
0.005632 -0.119872 
0.036939 -0.056804 
0.027457 -0.091749 
0.010986 -0.148553 
0.022024 -0.124659 
0.032014 -0.119446 
0.012779 -0.122843 
0.001963 -0.140392 
0.004207 -0.161307 
-0.001320 -0.164331 
-0.009914 -0.172838 
-0.002403 -0.195683 
-0.003264 -0.156319 
0.016819 -0.192789 
0.002762 -0.178255 
0.004651 -0.191655 
0.000955 -0.125522 
-0.000413 -0.155176 
0.023762 -0.154534 
-0.011001 -0.162715 
-0.008501 -0.159123 
-0.009271 -0.150058 
0.000000 -0.112017 
0.001645 -0.112170 
0.002462 -0.100000 
-0.001417 -0.132495 
-0.000043 -0.123046 
0.000000 -0.131739 
0.009434 -0.100000 
0.003181 -0.112814 
0.003903 -0.115029 
-0.000169 -0.144035 
-0.001134 -0.145867 
0.000000 -0.143386 
-0.006749 -0.147805 
-0.003673 -0.147049 
-0.005449 -0.151483 
0.000000 -0.143531 
-0.001816 -0.144403 
-0.001988 -0.139820 
-0.002861 -0.129543 
-0.003376 -0.135096 
-0.006184 -0.140573 
-0.002462 -0.100000 
-0.001645 -0.112170 
-0.003903 -0.115029 
-0.003181 -0.112814 
-0.009434 -0.100000 
0.000043 -0.123046 
0.001417 -0.132495 
-0.004651 -0.191655 
-0.002762 -0.178255 
-0.016819 -0.192789 
0.009271 -0.150058 
0.008501 -0.159123 
0.011001 -0.162715 
-0.023762 -0.154534 
0.000413 -0.155176 
-0.000955 -0.125522 
0.001134 -0.145867 
0.000169 -0.144035 
0.001988 -0.139820 
0.001816 -0.144403 
0.005449 -0.151483 
0.003673 -0.147049 
0.006749 -0.147805 
0.002861 -0.129543 
0.006184 -0.140573 
0.003376 -0.135096 
-0.005961 -0.201452 
0.004720 -0.188180 
0.008261 -0.178305 
0.008784 -0.183622 
0.006158 -0.187642 
0.010569 -0.174934 
0.010231 -0.164446 
-0.014618 -0.147184 
-0.007693 -0.156759 
-0.011167 -0.152050 
-0.002448 -0.155471 
-0.004719 -0.157410 
-0.007845 -0.147539 
0.001661 -0.170190 
-0.001064 -0.165029 
0.004566 -0.172157 
0.000187 -0.145921 
-0.000892 -0.138874 
0.006785 -0.157403 
0.002977 -0.151782 
-0.003384 -0.142670 
-0.000118 -0.148815 
-0.000940 -0.152252 
0.006474 -0.169419 
0.002767 -0.160918 
0.007221 -0.163894 
-0.025628 -0.131346 
-0.021256 -0.136138 
-0.031563 -0.108936 
-0.027088 -0.123452 
-0.037112 -0.106269 
-0.016925 -0.137671 
-0.012913 -0.137112 
-0.017774 -0.026284 
-0.028854 -0.051484 
-0.026738 -0.034870 
-0.021266 -0.090753 
-0.026374 -0.071592 
-0.020005 -0.070403 
-0.040649 -0.075305 
-0.033566 -0.073369 
-0.034020 -0.092354 
-0.003985 -0.131660 
-0.001897 -0.130455 
-0.009399 -0.135449 
-0.006441 -0.133447 
-0.010580 -0.106298 
-0.008944 -0.121268 
-0.015042 -0.107548 
-0.025745 -0.109398 
-0.020133 -0.108716 
-0.017172 -0.124175 
0.000000 0.000000 
-0.012364 -0.024589 
-0.006367 -0.024214 
-0.008903 -0.024267 
0.000000 0.000000 
-0.015883 -0.048009 
-0.014658 -0.069585 
0.000000 -0.024186 
-0.001315 -0.024191 
0.000000 0.000000 
-0.003100 -0.068228 
-0.002390 -0.047014 
0.000000 -0.068127 
0.000000 0.000000 
-0.002737 -0.024200 
-0.004376 -0.024207 
-0.002713 -0.118930 
0.000000 -0.130034 
-0.011069 -0.088764 
-0.006694 -0.105231 
0.000000 -0.104273 
-0.003235 -0.104523 
-0.003381 -0.087513 
-0.007916 -0.047313 
-0.006425 -0.068517 
-0.010202 -0.068972 
0.000000 0.000000 
0.001315 -0.024191 
0.004376 -0.024207 
0.002737 -0.024200 
0.000000 0.000000 
0.002390 -0.047014 
0.003100 -0.068228 
0.017774 -0.026284 
0.012364 -0.024589 
0.000000 0.000000 
0.014658 -0.069585 
0.015883 -0.048009 
0.020005 -0.070403 
0.000000 0.000000 
0.008903 -0.024267 
0.006367 -0.024214 
0.002713 -0.118930 
0.001897 -0.130455 
0.003381 -0.087513 
0.003235 -0.104523 
0.010580 -0.106298 
0.006694 -0.105231 
0.011069 -0.088764 
0.007916 -0.047313 
0.010202 -0.068972 
0.006425 -0.068517 
0.026738 -0.034870 
0.028854 -0.051484 
0.034020 -0.092354 
0.033566 -0.073369 
0.040649 -0.075305 
0.026374 -0.071592 
0.021266 -0.090753 
0.014618 -0.147184 
0.021256 -0.136138 
0.025628 -0.131346 
0.012913 -0.137112 
0.016925 -0.137671 
0.007845 -0.147539 
0.037112 -0.106269 
0.027088 -0.123452 
0.031563 -0.108936 
0.003985 -0.131660 
0.000892 -0.138874 
0.015042 -0.107548 
0.008944 -0.121268 
0.003384 -0.142670 
0.006441 -0.133447 
0.009399 -0.135449 
0.025745 -0.109398 
0.017172 -0.124175 
0.020133 -0.108716 
0.011167 -0.152050 
0.007693 -0.156759 
-0.004566 -0.172157 
0.001064 -0.165029 
-0.001661 -0.170190 
0.004719 -0.157410 
0.002448 -0.155471 
-0.004720 -0.188180 
0.005961 -0.201452 
-0.010231 -0.164446 
-0.010569 -0.174934 
-0.006158 -0.187642 
-0.008784 -0.183622 
-0.008261 -0.178305 
-0.000187 -0.145921 
0.000940 -0.152252 
0.000118 -0.148815 
-0.002977 -0.151782 
-0.006785 -0.157403 
-0.006474 -0.169419 
-0.007221 -0.163894 
-0.002767 -0.160918 
0.016405 -0.198089 
0.010768 -0.192617 
0.010908 -0.197775 
0.010509 -0.179100 
0.010693 -0.186653 
0.017807 -0.186710 
-0.001753 -0.184447 
0.003861 -0.185763 
-0.003052 -0.177272 
0.008368 -0.113767 
0.006335 -0.133016 
0.025441 -0.129417 
-0.005301 -0.144814 
-0.000982 -0.139230 
-0.003637 -0.134141 
0.021384 -0.168994 
0.008342 -0.154446 
0.009890 -0.168939 
-0.010414 -0.158379 
-0.010405 -0.156177 
-0.009447 -0.153166 
-0.008020 -0.168401 
-0.010245 -0.161102 
-0.010098 -0.168808 
-0.008371 -0.145978 
-0.009663 -0.153217 
-0.008039 -0.149453 
0.001256 -0.168327 
-0.005453 -0.156996 
-0.004435 -0.168148 
0.000000 -0.106227 
0.001105 -0.106238 
0.001207 -0.100000 
0.000435 -0.117528 
0.000825 -0.112051 
0.000000 -0.117459 
0.003821 -0.100000 
0.002243 -0.106284 
0.003445 -0.106372 
-0.000875 -0.135832 
-0.000673 -0.131925 
0.000000 -0.135623 
-0.000251 -0.123709 
-0.000818 -0.127990 
-0.001425 -0.128857 
0.000000 -0.127365 
-0.000370 -0.127517 
0.000014 -0.122694 
0.012563 -0.100000 
0.007679 -0.107355 
0.008961 -0.108702 
0.004746 -0.106527 
0.006168 -0.106806 
0.007163 -0.100000 
0.000944 -0.120271 
0.003750 -0.113563 
0.001200 -0.118950 
0.000825 -0.117754 
0.001110 -0.118189 
0.002444 -0.112401 
0.000168 -0.141430 
-0.000094 -0.143549 
0.000000 -0.141286 
-0.001676 -0.146826 
-0.000674 -0.145368 
-0.000973 -0.146247 
0.000000 -0.144654 
-0.000344 -0.144834 
-0.000571 -0.145286 
-0.007967 -0.151324 
-0.006284 -0.150075 
-0.007279 -0.153234 
-0.004101 -0.145255 
-0.005203 -0.147404 
-0.005479 -0.144912 
-0.003706 -0.149853 
-0.004588 -0.149050 
-0.003014 -0.148017 
0.000000 -0.141589 
-0.000979 -0.141812 
-0.000975 -0.139153 
-0.000763 -0.144918 
-0.000904 -0.143749 
0.000000 -0.144710 
-0.003070 -0.140968 
-0.001981 -0.142483 
-0.003021 -0.143622 
-0.002278 -0.146574 
-0.002742 -0.145500 
-0.001524 -0.145540 
0.003124 -0.118221 
-0.001546 -0.126633 
0.000120 -0.122620 
-0.001476 -0.126860 
-0.004643 -0.134098 
-0.001807 -0.136467 
-0.004016 -0.139248 
-0.002842 -0.137579 
-0.002299 -0.133515 
-0.002273 -0.130254 
-0.008171 -0.148528 
-0.006664 -0.140021 
-0.007782 -0.144790 
-0.006750 -0.144648 
-0.005333 -0.141572 
-0.003434 -0.132388 
-0.004679 -0.137390 
-0.004930 -0.135545 
-0.001207 -0.100000 
-0.001105 -0.106238 
-0.003445 -0.106372 
-0.002243 -0.106284 
-0.003821 -0.100000 
-0.000825 -0.112051 
-0.000435 -0.117528 
-0.008961 -0.108702 
-0.007679 -0.107355 
-0.012563 -0.100000 
-0.001200 -0.118950 
-0.003750 -0.113563 
-0.000944 -0.120271 
-0.007163 -0.100000 
-0.006168 -0.106806 
-0.004746 -0.106527 
0.000673 -0.131925 
0.000875 -0.135832 
-0.000014 -0.122694 
0.000370 -0.127517 
0.001425 -0.128857 
0.000818 -0.127990 
0.000251 -0.123709 
-0.002444 -0.112401 
-0.001110 -0.118189 
-0.000825 -0.117754 
-0.010908 -0.197775 
-0.010768 -0.192617 
-0.016405 -0.198089 
0.003052 -0.177272 
-0.003861 -0.185763 
0.001753 -0.184447 
-0.017807 -0.186710 
-0.010693 -0.186653 
-0.010509 -0.179100 
0.009447 -0.153166 
0.010405 -0.156177 
0.010414 -0.158379 
0.008039 -0.149453 
0.009663 -0.153217 
0.008371 -0.145978 
0.010098 -0.168808 
0.010245 -0.161102 
0.008020 -0.168401 
-0.025441 -0.129417 
-0.006335 -0.133016 
-0.008368 -0.113767 
-0.009890 -0.168939 
-0.008342 -0.154446 
-0.021384 -0.168994 
0.003637 -0.134141 
0.000982 -0.139230 
0.005301 -0.144814 
0.004435 -0.168148 
0.005453 -0.156996 
-0.001256 -0.168327 
0.000094 -0.143549 
-0.000168 -0.141430 
0.000571 -0.145286 
0.000344 -0.144834 
0.000973 -0.146247 
0.000674 -0.145368 
0.001676 -0.146826 
0.000975 -0.139153 
0.000979 -0.141812 
0.003021 -0.143622 
0.001981 -0.142483 
0.003070 -0.140968 
0.000904 -0.143749 
0.000763 -0.144918 
0.007279 -0.153234 
0.006284 -0.150075 
0.007967 -0.151324 
0.003014 -0.148017 
0.004588 -0.149050 
0.003706 -0.149853 
0.005479 -0.144912 
0.005203 -0.147404 
0.004101 -0.145255 
0.001524 -0.145540 
0.002742 -0.145500 
0.002278 -0.146574 
-0.003124 -0.118221 
0.004643 -0.134098 
0.001476 -0.126860 
-0.000120 -0.122620 
0.001546 -0.126633 
0.008171 -0.148528 
0.005333 -0.141572 
0.006750 -0.144648 
0.007782 -0.144790 
0.006664 -0.140021 
0.001807 -0.136467 
0.002273 -0.130254 
0.002299 -0.133515 
0.002842 -0.137579 
0.004016 -0.139248 
0.004930 -0.135545 
0.004679 -0.137390 
0.003434 -0.132388 
-0.011178 -0.202847 
-0.005295 -0.196642 
0.003621 -0.192310 
-0.000292 -0.194767 
-0.001283 -0.198990 
0.000659 -0.190107 
0.005853 -0.182977 
0.007023 -0.179353 
0.007801 -0.182885 
0.006315 -0.183322 
0.009972 -0.178046 
0.009008 -0.181060 
0.009232 -0.176060 
0.004887 -0.191818 
0.007599 -0.186261 
0.006247 -0.189432 
0.010952 -0.163849 
0.009807 -0.159852 
0.009427 -0.175693 
0.011023 -0.169127 
0.010262 -0.168876 
0.011022 -0.169186 
0.010668 -0.174017 
0.007407 -0.186000 
0.009785 -0.179820 
0.008477 -0.181443 
-0.016548 -0.145205 
-0.012963 -0.150241 
-0.014826 -0.147192 
-0.009445 -0.153082 
-0.011156 -0.152145 
-0.012753 -0.148245 
-0.007599 -0.156743 
-0.009386 -0.155007 
-0.005891 -0.159529 
-0.004060 -0.150562 
-0.005157 -0.151816 
-0.006500 -0.146500 
-0.001633 -0.161106 
-0.003488 -0.156677 
-0.000600 -0.160045 
-0.009344 -0.148268 
-0.006426 -0.152754 
-0.007860 -0.153229 
0.003906 -0.174576 
0.003226 -0.171889 
0.005443 -0.175688 
-0.002558 -0.163833 
0.000516 -0.167944 
-0.001085 -0.165777 
0.003115 -0.168365 
0.001928 -0.168725 
0.000238 -0.165122 
-0.006127 -0.157497 
-0.002873 -0.161505 
-0.004302 -0.161047 
-0.000360 -0.141868 
-0.000435 -0.138481 
0.001223 -0.147452 
0.000206 -0.144833 
-0.001394 -0.139519 
-0.000592 -0.142588 
-0.000888 -0.143564 
0.008106 -0.156796 
0.006201 -0.154298 
0.003202 -0.153980 
0.004817 -0.154540 
0.005145 -0.157239 
0.004322 -0.152047 
0.002624 -0.149818 
-0.004277 -0.143967 
-0.002371 -0.147614 
-0.003135 -0.149123 
-0.001267 -0.144763 
-0.001755 -0.146134 
-0.002619 -0.141458 
0.001214 -0.154653 
-0.000452 -0.150506 
0.001425 -0.152631 
0.001400 -0.148953 
0.001477 -0.150701 
0.000087 -0.147265 
0.006725 -0.175344 
0.004055 -0.167096 
0.005656 -0.171253 
0.007741 -0.173808 
0.008469 -0.171322 
-0.001601 -0.153948 
0.003128 -0.158680 
0.000818 -0.156655 
0.000217 -0.158504 
0.002166 -0.162863 
0.008685 -0.160609 
0.008881 -0.168125 
0.008953 -0.164468 
0.007140 -0.160662 
0.005261 -0.160017 
0.004729 -0.165141 
0.005129 -0.162713 
0.007000 -0.166889 
-0.022126 -0.136869 
-0.020067 -0.139876 
-0.026654 -0.128236 
-0.023457 -0.134227 
-0.028946 -0.125545 
-0.018005 -0.141855 
-0.015981 -0.142968 
-0.036114 -0.100351 
-0.034402 -0.107963 
-0.038982 -0.099147 
-0.024550 -0.124330 
-0.029532 -0.116436 
-0.026812 -0.117117 
-0.034761 -0.113028 
-0.032199 -0.115129 
-0.029591 -0.121878 
-0.010450 -0.142638 
-0.008862 -0.141767 
-0.014028 -0.143371 
-0.012177 -0.143215 
-0.017344 -0.131374 
-0.014865 -0.137586 
-0.019611 -0.131438 
-0.024306 -0.130011 
-0.021944 -0.131029 
-0.019066 -0.137235 
-0.012172 -0.014571 
-0.021892 -0.029061 
-0.017427 -0.021241 
-0.025002 -0.049942 
-0.024270 -0.039285 
-0.020581 -0.037738 
-0.032891 -0.046420 
-0.028533 -0.042071 
-0.032958 -0.053793 
-0.018429 -0.090227 
-0.020969 -0.080862 
-0.018111 -0.080367 
-0.027321 -0.081988 
-0.024046 -0.081402 
-0.024285 -0.091270 
-0.021246 -0.059906 
-0.023062 -0.070935 
-0.024492 -0.060573 
-0.040877 -0.083704 
-0.037649 -0.083629 
-0.037236 -0.092255 
-0.035729 -0.064507 
-0.037209 -0.074409 
-0.039414 -0.066372 
-0.030728 -0.092139 
-0.034227 -0.083189 
-0.030744 -0.082601 
-0.028051 -0.061518 
-0.029905 -0.072403 
-0.031853 -0.062826 
-0.001411 -0.135064 
-0.000695 -0.134712 
-0.003006 -0.136419 
-0.002174 -0.135641 
-0.003565 -0.125524 
-0.002905 -0.130969 
-0.004869 -0.126136 
-0.007419 -0.140713 
-0.006121 -0.139575 
-0.009424 -0.128605 
-0.007852 -0.134450 
-0.011203 -0.129488 
-0.004962 -0.138436 
-0.003929 -0.137365 
-0.013222 -0.098371 
-0.012733 -0.106914 
-0.015629 -0.098935 
-0.007229 -0.120527 
-0.009889 -0.114119 
-0.008007 -0.113467 
-0.014076 -0.115524 
-0.011909 -0.114818 
-0.010791 -0.122055 
-0.005157 -0.132499 
-0.007782 -0.127717 
-0.006269 -0.126879 
-0.033092 -0.100922 
-0.026897 -0.100880 
-0.029994 -0.101049 
-0.028656 -0.109365 
-0.024093 -0.117318 
-0.018210 -0.099502 
-0.016391 -0.116191 
-0.017511 -0.108163 
-0.020963 -0.100043 
-0.023870 -0.100520 
-0.011087 -0.136365 
-0.019552 -0.124570 
-0.015173 -0.130958 
-0.013121 -0.130299 
-0.014908 -0.123572 
-0.022888 -0.109151 
-0.018847 -0.116761 
-0.021424 -0.117165 
0.000000 0.000000 
-0.009320 -0.012907 
-0.006383 -0.012223 
-0.007611 -0.012399 
0.000000 0.000000 
-0.014708 -0.025101 
-0.017503 -0.036921 
-0.003289 -0.012192 
-0.003900 -0.012174 
0.000000 0.000000 
-0.010805 -0.036115 
-0.007550 -0.024228 
-0.009124 -0.036027 
0.000000 0.000000 
-0.004598 -0.012162 
-0.005410 -0.012168 
-0.017208 -0.069961 
-0.015475 -0.079913 
-0.018535 -0.048386 
-0.018319 -0.059427 
-0.013319 -0.058783 
-0.015687 -0.059067 
-0.013542 -0.047757 
-0.010479 -0.024364 
-0.012716 -0.036252 
-0.014920 -0.036488 
0.000000 -0.012258 
-0.000335 -0.012258 
0.000000 0.000000 
-0.000937 -0.035772 
-0.000651 -0.024188 
0.000000 -0.035766 
0.000000 0.000000 
-0.000678 -0.012256 
-0.001034 -0.012252 
-0.001633 -0.078032 
-0.001536 -0.068153 
0.000000 -0.077997 
-0.003643 -0.047064 
-0.002796 -0.057841 
-0.004260 -0.057924 
0.000000 -0.057771 
-0.001385 -0.057790 
-0.001184 -0.046984 
0.000000 0.000000 
-0.002259 -0.012226 
-0.002746 -0.012210 
-0.001411 -0.012246 
-0.001817 -0.012238 
0.000000 0.000000 
-0.005059 -0.035874 
-0.003522 -0.024204 
-0.003934 -0.035838 
-0.001892 -0.035786 
-0.002885 -0.035809 
-0.002006 -0.024195 
-0.000937 -0.130140 
0.000000 -0.134596 
-0.004134 -0.119332 
-0.002335 -0.125069 
0.000000 -0.124693 
-0.001155 -0.124788 
-0.001343 -0.118683 
-0.013338 -0.089220 
-0.010983 -0.097834 
-0.006950 -0.096922 
-0.008899 -0.097346 
-0.008963 -0.088355 
-0.008573 -0.105729 
-0.006248 -0.112893 
0.000000 -0.096113 
-0.001665 -0.096167 
-0.001676 -0.087384 
-0.001495 -0.111855 
-0.001603 -0.104337 
0.000000 -0.111781 
-0.005145 -0.087721 
-0.003359 -0.096323 
-0.005112 -0.096578 
-0.004593 -0.112421 
-0.004923 -0.104824 
-0.003016 -0.112071 
-0.005318 -0.024209 
-0.006381 -0.047214 
-0.006282 -0.035916 
-0.007628 -0.035965 
-0.009600 -0.047431 
-0.003295 -0.078133 
-0.006824 -0.078521 
-0.005016 -0.078298 
-0.004720 -0.068350 
-0.005802 -0.058038 
-0.013048 -0.079500 
-0.011178 -0.058549 
-0.012331 -0.069258 
-0.010814 -0.079128 
-0.008748 -0.078800 
-0.007450 -0.058180 
-0.008243 -0.068725 
-0.009233 -0.058350 
0.000000 0.000000 
0.000335 -0.012258 
0.001034 -0.012252 
0.000678 -0.012256 
0.000000 0.000000 
0.000651 -0.024188 
0.000937 -0.035772 
0.002746 -0.012210 
0.002259 -0.012226 
0.000000 0.000000 
0.003934 -0.035838 
0.003522 -0.024204 
0.005059 -0.035874 
0.000000 0.000000 
0.001817 -0.012238 
0.001411 -0.012246 
0.001536 -0.068153 
0.001633 -0.078032 
0.001184 -0.046984 
0.001385 -0.057790 
0.004260 -0.057924 
0.002796 -0.057841 
0.003643 -0.047064 
0.002006 -0.024195 
0.002885 -0.035809 
0.001892 -0.035786 
0.012172 -0.014571 
0.009320 -0.012907 
0.000000 0.000000 
0.017503 -0.036921 
0.014708 -0.025101 
0.020581 -0.037738 
0.000000 0.000000 
0.007611 -0.012399 
0.006383 -0.012223 
0.015475 -0.079913 
0.017208 -0.069961 
0.018111 -0.080367 
0.013542 -0.047757 
0.015687 -0.059067 
0.013319 -0.058783 
0.021246 -0.059906 
0.018319 -0.059427 
0.018535 -0.048386 
0.000000 0.000000 
0.003900 -0.012174 
0.003289 -0.012192 
0.005410 -0.012168 
0.004598 -0.012162 
0.000000 0.000000 
0.009124 -0.036027 
0.007550 -0.024228 
0.010805 -0.036115 
0.014920 -0.036488 
0.012716 -0.036252 
0.010479 -0.024364 
0.000937 -0.130140 
0.000695 -0.134712 
0.001343 -0.118683 
0.001155 -0.124788 
0.003565 -0.125524 
0.002335 -0.125069 
0.004134 -0.119332 
0.001676 -0.087384 
0.001665 -0.096167 
0.005112 -0.096578 
0.003359 -0.096323 
0.005145 -0.087721 
0.001603 -0.104337 
0.001495 -0.111855 
0.013222 -0.098371 
0.010983 -0.097834 
0.013338 -0.089220 
0.006248 -0.112893 
0.008573 -0.105729 
0.008007 -0.113467 
0.008963 -0.088355 
0.008899 -0.097346 
0.006950 -0.096922 
0.003016 -0.112071 
0.004923 -0.104824 
0.004593 -0.112421 
0.005318 -0.024209 
0.009600 -0.047431 
0.007628 -0.035965 
0.006282 -0.035916 
0.006381 -0.047214 
0.013048 -0.079500 
0.008748 -0.078800 
0.010814 -0.079128 
0.012331 -0.069258 
0.011178 -0.058549 
0.003295 -0.078133 
0.005802 -0.058038 
0.004720 -0.068350 
0.005016 -0.078298 
0.006824 -0.078521 
0.009233 -0.058350 
0.008243 -0.068725 
0.007450 -0.058180 
0.017427 -0.021241 
0.021892 -0.029061 
0.032958 -0.053793 
0.028533 -0.042071 
0.032891 -0.046420 
0.024270 -0.039285 
0.025002 -0.049942 
0.037236 -0.092255 
0.037649 -0.083629 
0.040877 -0.083704 
0.030744 -0.082601 
0.034227 -0.083189 
0.030728 -0.092139 
0.039414 -0.066372 
0.037209 -0.074409 
0.035729 -0.064507 
0.020969 -0.080862 
0.018429 -0.090227 
0.024492 -0.060573 
0.023062 -0.070935 
0.024285 -0.091270 
0.024046 -0.081402 
0.027321 -0.081988 
0.031853 -0.062826 
0.029905 -0.072403 
0.028051 -0.061518 
0.016548 -0.145205 
0.020067 -0.139876 
0.022126 -0.136869 
0.015981 -0.142968 
0.018005 -0.141855 
0.012753 -0.148245 
0.028946 -0.125545 
0.023457 -0.134227 
0.026654 -0.128236 
0.008862 -0.141767 
0.010450 -0.142638 
0.006500 -0.146500 
0.019611 -0.131438 
0.014865 -0.137586 
0.017344 -0.131374 
0.009344 -0.148268 
0.012177 -0.143215 
0.014028 -0.143371 
0.038982 -0.099147 
0.034402 -0.107963 
0.036114 -0.100351 
0.029591 -0.121878 
0.032199 -0.115129 
0.034761 -0.113028 
0.026812 -0.117117 
0.029532 -0.116436 
0.024550 -0.124330 
0.019066 -0.137235 
0.021944 -0.131029 
0.024306 -0.130011 
0.001411 -0.135064 
0.000435 -0.138481 
0.004869 -0.126136 
0.002905 -0.130969 
0.001394 -0.139519 
0.002174 -0.135641 
0.003006 -0.136419 
0.015629 -0.098935 
0.012733 -0.106914 
0.010791 -0.122055 
0.011909 -0.114818 
0.014076 -0.115524 
0.009889 -0.114119 
0.007229 -0.120527 
0.004277 -0.143967 
0.006121 -0.139575 
0.007419 -0.140713 
0.003929 -0.137365 
0.004962 -0.138436 
0.002619 -0.141458 
0.011203 -0.129488 
0.007852 -0.134450 
0.009424 -0.128605 