# vtk DataFile Version 2.0
Unstructured Grid Example
ASCII
DATASET UNSTRUCTURED_GRID

POINTS 64 float
0.000000 0.000000 0.000000 
0.031250 0.000000 0.000000 
0.031250 0.000000 0.000000 
0.062500 0.000000 0.000000 
0.062500 0.000000 0.000000 
0.093750 0.000000 0.000000 
0.093750 0.000000 0.000000 
0.125000 0.000000 0.000000 
0.187500 -4.848252 0.000000 
0.218750 -0.510418 0.000000 
0.218750 -3.912740 0.000000 
0.250000 1.956392 0.000000 
0.125000 1.773980 0.000000 
0.156250 -3.547959 0.000000 
0.156250 -0.145652 0.000000 
0.187500 -5.030635 0.000000 
0.437500 0.000012 0.000000 
0.468750 0.000017 0.000000 
0.468750 0.000013 0.000000 
0.500000 0.000020 0.000000 
0.375000 -7.319386 0.000000 
0.406250 3.300264 0.000000 
0.406250 -0.479252 0.000000 
0.437500 0.239646 0.000000 
0.250000 2.124097 0.000000 
0.281250 -4.248150 0.000000 
0.281250 -4.248135 0.000000 
0.312500 2.124068 0.000000 
0.312500 2.790157 0.000000 
0.343750 -5.580313 0.000000 
0.343750 -1.800811 0.000000 
0.375000 -4.768849 0.000000 
0.500000 0.000020 0.000000 
0.531250 0.000013 0.000000 
0.531250 0.000017 0.000000 
0.562500 0.000012 0.000000 
0.562500 0.239646 0.000000 
0.593750 -0.479252 0.000000 
0.593750 3.300264 0.000000 
0.625000 -7.319386 0.000000 
0.687500 2.124068 0.000000 
0.718750 -4.248135 0.000000 
0.718750 -4.248150 0.000000 
0.750000 2.124097 0.000000 
0.625000 -4.768849 0.000000 
0.656250 -1.800811 0.000000 
0.656250 -5.580313 0.000000 
0.687500 2.790157 0.000000 
0.937500 0.000000 0.000000 
0.968750 0.000000 0.000000 
0.968750 0.000000 0.000000 
1.000000 0.000000 0.000000 
0.875000 0.000000 0.000000 
0.906250 0.000000 0.000000 
0.906250 0.000000 0.000000 
0.937500 0.000000 0.000000 
0.750000 1.956392 0.000000 
0.781250 -3.912740 0.000000 
0.781250 -0.510418 0.000000 
0.812500 -4.848252 0.000000 
0.812500 -5.030635 0.000000 
0.843750 -0.145652 0.000000 
0.843750 -3.547959 0.000000 
0.875000 1.773980 0.000000 

CELLS 32 96
2  0 1 
2  2 3 
2  4 5 
2  6 7 
2  8 9 
2  10 11 
2  12 13 
2  14 15 
2  16 17 
2  18 19 
2  20 21 
2  22 23 
2  24 25 
2  26 27 
2  28 29 
2  30 31 
2  32 33 
2  34 35 
2  36 37 
2  38 39 
2  40 41 
2  42 43 
2  44 45 
2  46 47 
2  48 49 
2  50 51 
2  52 53 
2  54 55 
2  56 57 
2  58 59 
2  60 61 
2  62 63 

CELL_TYPES 32
3
3
3
3
3
3
3
3
3
3
3
3
3
3
3
3
3
3
3
3
3
3
3
3
3
3
3
3
3
3
3
3

POINT_DATA 64

SCALARS lambda_h float 1
LOOKUP_TABLE default
0.000000 
0.000000 
0.000000 
0.000000 
0.000000 
0.000000 
0.000000 
0.000000 
-4.848252 
-0.510418 
-3.912740 
1.956392 
1.773980 
-3.547959 
-0.145652 
-5.030635 
0.000012 
0.000017 
0.000013 
0.000020 
-7.319386 
3.300264 
-0.479252 
0.239646 
2.124097 
-4.248150 
-4.248135 
2.124068 
2.790157 
-5.580313 
-1.800811 
-4.768849 
0.000020 
0.000013 
0.000017 
0.000012 
0.239646 
-0.479252 
3.300264 
-7.319386 
2.124068 
-4.248135 
-4.248150 
2.124097 
-4.768849 
-1.800811 
-5.580313 
2.790157 
0.000000 
0.000000 
0.000000 
0.000000 
0.000000 
0.000000 
0.000000 
0.000000 
1.956392 
-3.912740 
-0.510418 
-4.848252 
-5.030635 
-0.145652 
-3.547959 
1.773980 

