# vtk DataFile Version 2.0
Unstructured Grid Example
ASCII
DATASET UNSTRUCTURED_GRID

POINTS 8 float
0.000000 4.212632 0.000000 
0.250000 -8.425264 0.000000 
0.250000 -1.687392 0.000000 
0.500000 -9.263114 0.000000 
0.500000 -9.263114 0.000000 
0.750000 -1.687392 0.000000 
0.750000 -8.425264 0.000000 
1.000000 4.212632 0.000000 

CELLS 4 12
2  0 1 
2  2 3 
2  4 5 
2  6 7 

CELL_TYPES 4
3
3
3
3

POINT_DATA 8

SCALARS lambda_h float 1
LOOKUP_TABLE default
4.212632 
-8.425264 
-1.687392 
-9.263114 
-9.263114 
-1.687392 
-8.425264 
4.212632 

