# vtk DataFile Version 2.0
Unstructured Grid Example
ASCII
DATASET UNSTRUCTURED_GRID

POINTS 128 float
0.000000 -0.000000 0.000000 
0.015625 0.000002 0.000000 
0.015625 -0.000002 0.000000 
0.031250 0.000007 0.000000 
0.031250 -0.000007 0.000000 
0.046875 0.000025 0.000000 
0.046875 -0.000025 0.000000 
0.062500 0.000093 0.000000 
0.093750 -0.001290 0.000000 
0.109375 0.004816 0.000000 
0.109375 -0.004816 0.000000 
0.125000 0.017972 0.000000 
0.062500 -0.000093 0.000000 
0.078125 0.000346 0.000000 
0.078125 -0.000346 0.000000 
0.093750 0.001290 0.000000 
0.218750 -4.636124 0.000000 
0.234375 1.726221 0.000000 
0.234375 -0.811373 0.000000 
0.250000 0.439063 0.000000 
0.187500 -2.615634 0.000000 
0.203125 -3.956559 0.000000 
0.203125 -4.503824 0.000000 
0.218750 -1.521102 0.000000 
0.125000 0.009650 0.000000 
0.140625 0.011828 0.000000 
0.140625 2.983866 0.000000 
0.156250 -5.934426 0.000000 
0.156250 -3.369174 0.000000 
0.171875 -2.146638 0.000000 
0.171875 -2.045691 0.000000 
0.187500 -3.571067 0.000000 
0.468750 0.455989 0.000000 
0.484375 -0.911395 0.000000 
0.484375 -0.962187 0.000000 
0.500000 0.557574 0.000000 
0.437500 0.004656 0.000000 
0.453125 -0.001246 0.000000 
0.453125 0.001247 0.000000 
0.468750 -0.000332 0.000000 
0.375000 -11.449966 0.000000 
0.390625 5.734152 0.000000 
0.390625 0.004361 0.000000 
0.406250 0.009616 0.000000 
0.406250 0.015555 0.000000 
0.421875 -0.007516 0.000000 
0.421875 -0.002340 0.000000 
0.437500 0.005203 0.000000 
0.250000 0.240903 0.000000 
0.265625 -0.415054 0.000000 
0.265625 1.431030 0.000000 
0.281250 -3.451264 0.000000 
0.281250 -3.669957 0.000000 
0.296875 1.868415 0.000000 
0.296875 0.017991 0.000000 
0.312500 0.030890 0.000000 
0.343750 -3.256156 0.000000 
0.359375 -7.469987 0.000000 
0.359375 -6.408827 0.000000 
0.375000 -5.378477 0.000000 
0.312500 2.269692 0.000000 
0.328125 -4.459612 0.000000 
0.328125 0.227745 0.000000 
0.343750 -7.105023 0.000000 
0.500000 0.626590 0.000000 
0.515625 -1.100220 0.000000 
0.515625 -1.049428 0.000000 
0.531250 0.525006 0.000000 
0.531250 -0.000332 0.000000 
0.546875 0.001247 0.000000 
0.546875 -0.001246 0.000000 
0.562500 0.004656 0.000000 
0.593750 0.009616 0.000000 
0.609375 0.004361 0.000000 
0.609375 5.320185 0.000000 
0.625000 -10.622032 0.000000 
0.562500 0.005203 0.000000 
0.578125 -0.002340 0.000000 
0.578125 -0.007516 0.000000 
0.593750 0.015555 0.000000 
0.718750 -3.387647 0.000000 
0.734375 1.015714 0.000000 
0.734375 -0.926397 0.000000 
0.750000 0.496575 0.000000 
0.687500 0.030890 0.000000 
0.703125 0.017991 0.000000 
0.703125 1.964442 0.000000 
0.718750 -3.862011 0.000000 
0.625000 -4.663548 0.000000 
0.640625 -6.596782 0.000000 
0.640625 -7.390472 0.000000 
0.656250 -3.076168 0.000000 
0.656250 -6.738186 0.000000 
0.671875 -0.066437 0.000000 
0.671875 -4.607297 0.000000 
0.687500 2.343534 0.000000 
0.968750 0.000007 0.000000 
0.984375 -0.000002 0.000000 
0.984375 0.000002 0.000000 
1.000000 -0.000000 0.000000 
0.937500 0.000093 0.000000 
0.953125 -0.000025 0.000000 
0.953125 0.000025 0.000000 
0.968750 -0.000007 0.000000 
0.875000 0.017972 0.000000 
0.890625 -0.004816 0.000000 
0.890625 0.004816 0.000000 
0.906250 -0.001290 0.000000 
0.906250 0.001290 0.000000 
0.921875 -0.000346 0.000000 
0.921875 0.000346 0.000000 
0.937500 -0.000093 0.000000 
0.750000 0.616401 0.000000 
0.765625 -1.166049 0.000000 
0.765625 1.413910 0.000000 
0.781250 -4.543518 0.000000 
0.781250 -1.641010 0.000000 
0.796875 -4.391104 0.000000 
0.796875 -3.954590 0.000000 
0.812500 -2.514038 0.000000 
0.843750 -5.795841 0.000000 
0.859375 2.914573 0.000000 
0.859375 0.011828 0.000000 
0.875000 0.009650 0.000000 
0.812500 -3.508103 0.000000 
0.828125 -1.966461 0.000000 
0.828125 -2.068314 0.000000 
0.843750 -3.304397 0.000000 

CELLS 64 192
2  0 1 
2  2 3 
2  4 5 
2  6 7 
2  8 9 
2  10 11 
2  12 13 
2  14 15 
2  16 17 
2  18 19 
2  20 21 
2  22 23 
2  24 25 
2  26 27 
2  28 29 
2  30 31 
2  32 33 
2  34 35 
2  36 37 
2  38 39 
2  40 41 
2  42 43 
2  44 45 
2  46 47 
2  48 49 
2  50 51 
2  52 53 
2  54 55 
2  56 57 
2  58 59 
2  60 61 
2  62 63 
2  64 65 
2  66 67 
2  68 69 
2  70 71 
2  72 73 
2  74 75 
2  76 77 
2  78 79 
2  80 81 
2  82 83 
2  84 85 
2  86 87 
2  88 89 
2  90 91 
2  92 93 
2  94 95 
2  96 97 
2  98 99 
2  100 101 
2  102 103 
2  104 105 
2  106 107 
2  108 109 
2  110 111 
2  112 113 
2  114 115 
2  116 117 
2  118 119 
2  120 121 
2  122 123 
2  124 125 
2  126 127 

CELL_TYPES 64
3
3
3
3
3
3
3
3
3
3
3
3
3
3
3
3
3
3
3
3
3
3
3
3
3
3
3
3
3
3
3
3
3
3
3
3
3
3
3
3
3
3
3
3
3
3
3
3
3
3
3
3
3
3
3
3
3
3
3
3
3
3
3
3

POINT_DATA 128

SCALARS lambda_h float 1
LOOKUP_TABLE default
-0.000000 
0.000002 
-0.000002 
0.000007 
-0.000007 
0.000025 
-0.000025 
0.000093 
-0.001290 
0.004816 
-0.004816 
0.017972 
-0.000093 
0.000346 
-0.000346 
0.001290 
-4.636124 
1.726221 
-0.811373 
0.439063 
-2.615634 
-3.956559 
-4.503824 
-1.521102 
0.009650 
0.011828 
2.983866 
-5.934426 
-3.369174 
-2.146638 
-2.045691 
-3.571067 
0.455989 
-0.911395 
-0.962187 
0.557574 
0.004656 
-0.001246 
0.001247 
-0.000332 
-11.449966 
5.734152 
0.004361 
0.009616 
0.015555 
-0.007516 
-0.002340 
0.005203 
0.240903 
-0.415054 
1.431030 
-3.451264 
-3.669957 
1.868415 
0.017991 
0.030890 
-3.256156 
-7.469987 
-6.408827 
-5.378477 
2.269692 
-4.459612 
0.227745 
-7.105023 
0.626590 
-1.100220 
-1.049428 
0.525006 
-0.000332 
0.001247 
-0.001246 
0.004656 
0.009616 
0.004361 
5.320185 
-10.622032 
0.005203 
-0.002340 
-0.007516 
0.015555 
-3.387647 
1.015714 
-0.926397 
0.496575 
0.030890 
0.017991 
1.964442 
-3.862011 
-4.663548 
-6.596782 
-7.390472 
-3.076168 
-6.738186 
-0.066437 
-4.607297 
2.343534 
0.000007 
-0.000002 
0.000002 
-0.000000 
0.000093 
-0.000025 
0.000025 
-0.000007 
0.017972 
-0.004816 
0.004816 
-0.001290 
0.001290 
-0.000346 
0.000346 
-0.000093 
0.616401 
-1.166049 
1.413910 
-4.543518 
-1.641010 
-4.391104 
-3.954590 
-2.514038 
-5.795841 
2.914573 
0.011828 
0.009650 
-3.508103 
-1.966461 
-2.068314 
-3.304397 

