# vtk DataFile Version 2.0
Unstructured Grid Example
ASCII
DATASET UNSTRUCTURED_GRID

POINTS 32 float
0.000000 0.000000 0.000000 
0.062500 0.000000 0.000000 
0.062500 0.387706 0.000000 
0.125000 -0.775412 0.000000 
0.125000 2.559753 0.000000 
0.187500 -6.282623 0.000000 
0.187500 -6.393181 0.000000 
0.250000 2.780869 0.000000 
0.375000 -2.073890 0.000000 
0.437500 0.933901 0.000000 
0.437500 -0.051044 0.000000 
0.500000 -0.103999 0.000000 
0.250000 0.433607 0.000000 
0.312500 -1.698658 0.000000 
0.312500 -0.904513 0.000000 
0.375000 -1.154683 0.000000 
0.500000 -0.103999 0.000000 
0.562500 -0.051044 0.000000 
0.562500 0.933901 0.000000 
0.625000 -2.073890 0.000000 
0.625000 -1.154683 0.000000 
0.687500 -0.904513 0.000000 
0.687500 -1.698658 0.000000 
0.750000 0.433607 0.000000 
0.875000 -0.775412 0.000000 
0.937500 0.387706 0.000000 
0.937500 0.000000 0.000000 
1.000000 0.000000 0.000000 
0.750000 2.780869 0.000000 
0.812500 -6.393181 0.000000 
0.812500 -6.282623 0.000000 
0.875000 2.559753 0.000000 

CELLS 16 48
2  0 1 
2  2 3 
2  4 5 
2  6 7 
2  8 9 
2  10 11 
2  12 13 
2  14 15 
2  16 17 
2  18 19 
2  20 21 
2  22 23 
2  24 25 
2  26 27 
2  28 29 
2  30 31 

CELL_TYPES 16
3
3
3
3
3
3
3
3
3
3
3
3
3
3
3
3

POINT_DATA 32

SCALARS lambda_h float 1
LOOKUP_TABLE default
0.000000 
0.000000 
0.387706 
-0.775412 
2.559753 
-6.282623 
-6.393181 
2.780869 
-2.073890 
0.933901 
-0.051044 
-0.103999 
0.433607 
-1.698658 
-0.904513 
-1.154683 
-0.103999 
-0.051044 
0.933901 
-2.073890 
-1.154683 
-0.904513 
-1.698658 
0.433607 
-0.775412 
0.387706 
0.000000 
0.000000 
2.780869 
-6.393181 
-6.282623 
2.559753 

