# vtk DataFile Version 2.0
Unstructured Grid Example
ASCII
DATASET UNSTRUCTURED_GRID

POINTS 16 float
0.000000 0.000000 0.000000 
0.125000 0.000000 0.000000 
0.125000 4.771728 0.000000 
0.250000 -9.543456 0.000000 
0.250000 -4.999031 0.000000 
0.375000 -4.317123 0.000000 
0.375000 -6.660372 0.000000 
0.500000 -0.312534 0.000000 
0.500000 -0.312534 0.000000 
0.625000 -6.660372 0.000000 
0.625000 -4.317123 0.000000 
0.750000 -4.999031 0.000000 
0.750000 -9.543456 0.000000 
0.875000 4.771728 0.000000 
0.875000 0.000000 0.000000 
1.000000 0.000000 0.000000 

CELLS 8 24
2  0 1 
2  2 3 
2  4 5 
2  6 7 
2  8 9 
2  10 11 
2  12 13 
2  14 15 

CELL_TYPES 8
3
3
3
3
3
3
3
3

POINT_DATA 16

SCALARS lambda_h float 1
LOOKUP_TABLE default
0.000000 
0.000000 
4.771728 
-9.543456 
-4.999031 
-4.317123 
-6.660372 
-0.312534 
-0.312534 
-6.660372 
-4.317123 
-4.999031 
-9.543456 
4.771728 
0.000000 
0.000000 

