# vtk DataFile Version 2.0
Unstructured Grid Example
ASCII
DATASET UNSTRUCTURED_GRID

POINTS 1089 float
-0.002386 -0.234146 0.000000 
1.002386 -0.234146 0.000000 
1.000000 1.000000 0.000000 
0.000000 1.000000 0.000000 
0.500000 -0.112954 0.000000 
0.945508 0.327482 0.000000 
0.500000 1.000000 0.000000 
0.054492 0.327482 0.000000 
0.500000 0.321048 0.000000 
0.230416 -0.183011 0.000000 
0.500000 0.013782 0.000000 
0.265076 0.018943 0.000000 
0.769584 -0.183011 0.000000 
0.734924 0.018943 0.000000 
0.970660 0.033251 0.000000 
0.723440 0.321726 0.000000 
0.941942 0.645957 0.000000 
0.728137 0.653299 0.000000 
0.750000 1.000000 0.000000 
0.500000 0.653260 0.000000 
0.250000 1.000000 0.000000 
0.271863 0.653299 0.000000 
0.058058 0.645957 0.000000 
0.276560 0.321726 0.000000 
0.029340 0.033251 0.000000 
0.119517 -0.242347 0.000000 
0.256527 -0.118028 0.000000 
0.133382 -0.113682 0.000000 
0.500000 -0.126559 0.000000 
0.379730 -0.120045 0.000000 
0.350449 -0.122158 0.000000 
0.386380 0.164621 0.000000 
0.383326 0.016311 0.000000 
0.500000 0.163802 0.000000 
0.649551 -0.122158 0.000000 
0.620270 -0.120045 0.000000 
0.866618 -0.113682 0.000000 
0.743473 -0.118028 0.000000 
0.880483 -0.242347 0.000000 
0.616674 0.016311 0.000000 
0.613620 0.164621 0.000000 
0.987462 -0.103835 0.000000 
0.853100 0.022946 0.000000 
0.834153 0.322676 0.000000 
0.841809 0.168813 0.000000 
0.956114 0.177019 0.000000 
0.727748 0.165997 0.000000 
0.611957 0.321387 0.000000 
0.939834 0.483654 0.000000 
0.831869 0.483840 0.000000 
0.852668 0.825193 0.000000 
0.837214 0.651768 0.000000 
0.956114 0.815060 0.000000 
0.723270 0.484668 0.000000 
0.612301 0.484817 0.000000 
0.875000 1.000000 0.000000 
0.737827 0.825697 0.000000 
0.500000 0.825304 0.000000 
0.619450 0.825417 0.000000 
0.625000 1.000000 0.000000 
0.614913 0.653322 0.000000 
0.500000 0.484783 0.000000 
0.375000 1.000000 0.000000 
0.380550 0.825417 0.000000 
0.147332 0.825193 0.000000 
0.262173 0.825697 0.000000 
0.125000 1.000000 0.000000 
0.385087 0.653322 0.000000 
0.387699 0.484817 0.000000 
0.043886 0.815060 0.000000 
0.162786 0.651768 0.000000 
0.165847 0.322676 0.000000 
0.168131 0.483840 0.000000 
0.060166 0.483654 0.000000 
0.276730 0.484668 0.000000 
0.388043 0.321387 0.000000 
0.043886 0.177019 0.000000 
0.158191 0.168813 0.000000 
0.146900 0.022946 0.000000 
0.012538 -0.103835 0.000000 
0.272252 0.165997 0.000000 
0.059491 -0.239531 0.000000 
0.126326 -0.178335 0.000000 
0.065283 -0.175871 0.000000 
0.252542 -0.183238 0.000000 
0.189130 -0.176147 0.000000 
0.165146 -0.211999 0.000000 
0.200543 -0.048975 0.000000 
0.194898 -0.115319 0.000000 
0.260827 -0.050833 0.000000 
0.500000 -0.115908 0.000000 
0.424157 -0.114214 0.000000 
0.424637 -0.110430 0.000000 
0.440802 -0.057053 0.000000 
0.437222 -0.126762 0.000000 
0.500000 -0.058158 0.000000 
0.281997 -0.139178 0.000000 
0.349718 -0.104836 0.000000 
0.317333 -0.176829 0.000000 
0.443728 0.241753 0.000000 
0.443274 0.164051 0.000000 
0.500000 0.241587 0.000000 
0.324234 0.017744 0.000000 
0.384998 0.089269 0.000000 
0.327011 0.090282 0.000000 
0.500000 0.087837 0.000000 
0.442676 0.088274 0.000000 
0.441946 0.014560 0.000000 
0.318091 -0.118141 0.000000 
0.381327 -0.053800 0.000000 
0.321110 -0.051977 0.000000 
0.575363 -0.110430 0.000000 
0.575843 -0.114214 0.000000 
0.682667 -0.176829 0.000000 
0.650282 -0.104836 0.000000 
0.718003 -0.139178 0.000000 
0.562778 -0.126762 0.000000 
0.559198 -0.057053 0.000000 
0.934717 -0.175871 0.000000 
0.873674 -0.178335 0.000000 
0.940509 -0.239531 0.000000 
0.739173 -0.050833 0.000000 
0.805102 -0.115319 0.000000 
0.799457 -0.048975 0.000000 
0.834854 -0.211999 0.000000 
0.810870 -0.176147 0.000000 
0.747458 -0.183238 0.000000 
0.556726 0.164051 0.000000 
0.556272 0.241753 0.000000 
0.558054 0.014560 0.000000 
0.557324 0.088274 0.000000 
0.672989 0.090282 0.000000 
0.615002 0.089269 0.000000 
0.675766 0.017744 0.000000 
0.681909 -0.118141 0.000000 
0.678890 -0.051977 0.000000 
0.618673 -0.053800 0.000000 
0.995669 -0.169982 0.000000 
0.927270 -0.110308 0.000000 
0.911962 0.026863 0.000000 
0.919481 -0.042736 0.000000 
0.978924 -0.036105 0.000000 
0.859682 -0.046616 0.000000 
0.794044 0.020544 0.000000 
0.889589 0.324213 0.000000 
0.893697 0.247190 0.000000 
0.950208 0.251420 0.000000 
0.781319 0.243544 0.000000 
0.837446 0.244802 0.000000 
0.778854 0.322011 0.000000 
0.962990 0.104290 0.000000 
0.898888 0.171902 0.000000 
0.905031 0.098434 0.000000 
0.612579 0.242070 0.000000 
0.555993 0.321227 0.000000 
0.731051 0.091284 0.000000 
0.670670 0.165274 0.000000 
0.667802 0.321553 0.000000 
0.668905 0.242441 0.000000 
0.725162 0.242874 0.000000 
0.847081 0.094815 0.000000 
0.784786 0.167039 0.000000 
0.789085 0.092642 0.000000 
0.941817 0.404777 0.000000 
0.886795 0.402944 0.000000 
0.886454 0.565541 0.000000 
0.885639 0.483385 0.000000 
0.939740 0.564043 0.000000 
0.832219 0.402377 0.000000 
0.777647 0.402323 0.000000 
0.921277 0.911722 0.000000 
0.906322 0.822778 0.000000 
0.971146 0.903788 0.000000 
0.783370 0.652893 0.000000 
0.843596 0.737965 0.000000 
0.788871 0.738944 0.000000 
0.947059 0.729509 0.000000 
0.896022 0.735201 0.000000 
0.889697 0.649458 0.000000 
0.611849 0.402370 0.000000 
0.555967 0.402301 0.000000 
0.722772 0.402385 0.000000 
0.667490 0.402410 0.000000 
0.669505 0.568527 0.000000 
0.668043 0.484802 0.000000 
0.725045 0.568380 0.000000 
0.833418 0.567000 0.000000 
0.779715 0.567933 0.000000 
0.777863 0.484345 0.000000 
0.937500 1.000000 0.000000 
0.863722 0.912728 0.000000 
0.743816 0.912679 0.000000 
0.804149 0.912792 0.000000 
0.812500 1.000000 0.000000 
0.795995 0.825708 0.000000 
0.732475 0.739162 0.000000 
0.500000 0.912359 0.000000 
0.561113 0.912375 0.000000 
0.562500 1.000000 0.000000 
0.558576 0.738920 0.000000 
0.559784 0.825326 0.000000 
0.500000 0.738904 0.000000 
0.687500 1.000000 0.000000 
0.622168 0.912440 0.000000 
0.683101 0.912546 0.000000 
0.556224 0.484788 0.000000 
0.500000 0.402254 0.000000 
0.671868 0.653370 0.000000 
0.613330 0.568533 0.000000 
0.500000 0.568503 0.000000 
0.556757 0.568502 0.000000 
0.557551 0.653267 0.000000 
0.678865 0.825556 0.000000 
0.616988 0.739004 0.000000 
0.675043 0.739113 0.000000 
0.437500 1.000000 0.000000 
0.438887 0.912375 0.000000 
0.316899 0.912546 0.000000 
0.377832 0.912440 0.000000 
0.312500 1.000000 0.000000 
0.440216 0.825326 0.000000 
0.441424 0.738920 0.000000 
0.078723 0.911722 0.000000 
0.136278 0.912728 0.000000 
0.062500 1.000000 0.000000 
0.267525 0.739162 0.000000 
0.204005 0.825708 0.000000 
0.211129 0.738944 0.000000 
0.187500 1.000000 0.000000 
0.195851 0.912792 0.000000 
0.256184 0.912679 0.000000 
0.443776 0.484788 0.000000 
0.444033 0.402301 0.000000 
0.442449 0.653267 0.000000 
0.443243 0.568502 0.000000 
0.330495 0.568527 0.000000 
0.386670 0.568533 0.000000 
0.328132 0.653370 0.000000 
0.321135 0.825556 0.000000 
0.324957 0.739113 0.000000 
0.383012 0.739004 0.000000 
0.028854 0.903788 0.000000 
0.093678 0.822778 0.000000 
0.110303 0.649458 0.000000 
0.103978 0.735201 0.000000 
0.052941 0.729509 0.000000 
0.156404 0.737965 0.000000 
0.216630 0.652893 0.000000 
0.110411 0.324213 0.000000 
0.113205 0.402944 0.000000 
0.058183 0.404777 0.000000 
0.222353 0.402323 0.000000 
0.167781 0.402377 0.000000 
0.221146 0.322011 0.000000 
0.060260 0.564043 0.000000 
0.114361 0.483385 0.000000 
0.113546 0.565541 0.000000 
0.388151 0.402370 0.000000 
0.444007 0.321227 0.000000 
0.274955 0.568380 0.000000 
0.331957 0.484802 0.000000 
0.332198 0.321553 0.000000 
0.332510 0.402410 0.000000 
0.277228 0.402385 0.000000 
0.166582 0.567000 0.000000 
0.222137 0.484345 0.000000 
0.220285 0.567933 0.000000 
0.049792 0.251420 0.000000 
0.106303 0.247190 0.000000 
0.094969 0.098434 0.000000 
0.101112 0.171902 0.000000 
0.037010 0.104290 0.000000 
0.162554 0.244802 0.000000 
0.218681 0.243544 0.000000 
0.072730 -0.110308 0.000000 
0.004331 -0.169982 0.000000 
0.205956 0.020544 0.000000 
0.140318 -0.046616 0.000000 
0.021076 -0.036105 0.000000 
0.080519 -0.042736 0.000000 
0.088038 0.026863 0.000000 
0.387421 0.242070 0.000000 
0.274838 0.242874 0.000000 
0.331095 0.242441 0.000000 
0.329330 0.165274 0.000000 
0.268949 0.091284 0.000000 
0.152919 0.094815 0.000000 
0.210915 0.092642 0.000000 
0.215214 0.167039 0.000000 
0.028571 -0.237077 0.000000 
0.062037 -0.207941 0.000000 
0.031383 -0.205498 0.000000 
0.122743 -0.210139 0.000000 
0.092524 -0.209515 0.000000 
0.090086 -0.241170 0.000000 
0.099319 -0.145185 0.000000 
0.095784 -0.177551 0.000000 
0.129851 -0.146272 0.000000 
0.238596 -0.182004 0.000000 
0.204210 -0.184225 0.000000 
0.194536 -0.193129 0.000000 
0.223571 -0.149266 0.000000 
0.220447 -0.181040 0.000000 
0.254422 -0.150856 0.000000 
0.139123 -0.230143 0.000000 
0.173001 -0.193221 0.000000 
0.152828 -0.208423 0.000000 
0.233151 -0.015521 0.000000 
0.230725 -0.050033 0.000000 
0.262982 -0.016275 0.000000 
0.163991 -0.114527 0.000000 
0.197741 -0.082611 0.000000 
0.167226 -0.081597 0.000000 
0.258658 -0.084735 0.000000 
0.228290 -0.083851 0.000000 
0.225904 -0.116941 0.000000 
0.157169 -0.177818 0.000000 
0.191986 -0.146783 0.000000 
0.160651 -0.146607 0.000000 
0.500000 -0.113544 0.000000 
0.462738 -0.113643 0.000000 
0.462273 -0.112767 0.000000 
0.461993 -0.120869 0.000000 
0.462042 -0.116299 0.000000 
0.500000 -0.120215 0.000000 
0.386975 -0.112545 0.000000 
0.425542 -0.111408 0.000000 
0.388343 -0.112735 0.000000 
0.470742 -0.022226 0.000000 
0.470309 -0.057924 0.000000 
0.500000 -0.022488 0.000000 
0.407065 -0.124654 0.000000 
0.439545 -0.092188 0.000000 
0.410067 -0.090042 0.000000 
0.500000 -0.093000 0.000000 
0.469549 -0.093004 0.000000 
0.468366 -0.127195 0.000000 
0.255218 -0.159807 0.000000 
0.299387 -0.158671 0.000000 
0.274494 -0.183598 0.000000 
0.351522 -0.111289 0.000000 
0.317489 -0.124376 0.000000 
0.316533 -0.133465 0.000000 
0.348086 -0.152797 0.000000 
0.330264 -0.140346 0.000000 
0.353864 -0.120640 0.000000 
0.424530 -0.118966 0.000000 
0.388172 -0.118155 0.000000 
[...]
POINT_DATA 1089

SCALARS u_h float 2
LOOKUP_TABLE default
-0.002386 -0.234146 
0.002386 -0.234146 
0.000000 0.000000 
0.000000 0.000000 
0.000000 -0.112954 
-0.054492 -0.172518 
0.000000 0.000000 
0.054492 -0.172518 
-0.000000 -0.178952 
-0.019584 -0.183011 
-0.000000 -0.236218 
0.015076 -0.231057 
0.019584 -0.183011 
-0.015076 -0.231057 
-0.029340 -0.216749 
-0.026560 -0.178274 
-0.058058 -0.104043 
-0.021863 -0.096701 
0.000000 0.000000 
-0.000000 -0.096740 
0.000000 0.000000 
0.021863 -0.096701 
0.058058 -0.104043 
0.026560 -0.178274 
0.029340 -0.216749 
-0.005483 -0.242347 
0.006527 -0.243028 
0.008382 -0.238682 
-0.000000 -0.251559 
0.004730 -0.245045 
-0.024551 -0.122158 
0.011380 -0.210379 
0.008326 -0.233689 
-0.000000 -0.211198 
0.024551 -0.122158 
-0.004730 -0.245045 
-0.008382 -0.238682 
-0.006527 -0.243028 
0.005483 -0.242347 
-0.008326 -0.233689 
-0.011380 -0.210379 
-0.012538 -0.228835 
-0.021900 -0.227054 
-0.040847 -0.177324 
-0.033191 -0.206187 
-0.043886 -0.197981 
-0.022252 -0.209003 
-0.013043 -0.178613 
-0.060166 -0.141346 
-0.043131 -0.141160 
-0.022332 -0.049807 
-0.037786 -0.098232 
-0.043886 -0.059940 
-0.026730 -0.140332 
-0.012699 -0.140183 
0.000000 0.000000 
-0.012173 -0.049303 
0.000000 -0.049696 
-0.005550 -0.049583 
0.000000 0.000000 
-0.010087 -0.096678 
-0.000000 -0.140217 
0.000000 0.000000 
0.005550 -0.049583 
0.022332 -0.049807 
0.012173 -0.049303 
0.000000 0.000000 
0.010087 -0.096678 
0.012699 -0.140183 
0.043886 -0.059940 
0.037786 -0.098232 
0.040847 -0.177324 
0.043131 -0.141160 
0.060166 -0.141346 
0.026730 -0.140332 
0.013043 -0.178613 
0.043886 -0.197981 
0.033191 -0.206187 
0.021900 -0.227054 
0.012538 -0.228835 
0.022252 -0.209003 
-0.003009 -0.239531 
0.001326 -0.240835 
0.002783 -0.238371 
0.002542 -0.245738 
0.001630 -0.238647 
-0.022354 -0.211999 
0.013043 -0.236475 
0.007398 -0.240319 
0.010827 -0.238333 
0.000000 -0.178408 
-0.013343 -0.176714 
-0.012863 -0.110430 
0.003302 -0.244553 
-0.000278 -0.251762 
-0.000000 -0.245658 
-0.030503 -0.139178 
-0.025282 -0.167336 
0.004833 -0.239329 
0.006228 -0.195747 
0.005774 -0.210949 
-0.000000 -0.195913 
0.011734 -0.232256 
0.009998 -0.223231 
0.014511 -0.222218 
-0.000000 -0.224663 
0.005176 -0.224226 
0.004446 -0.235440 
0.005591 -0.243141 
0.006327 -0.241300 
0.008610 -0.239477 
0.012863 -0.110430 
0.013343 -0.176714 
-0.004833 -0.239329 
0.025282 -0.167336 
0.030503 -0.139178 
0.000278 -0.251762 
-0.003302 -0.244553 
-0.002783 -0.238371 
-0.001326 -0.240835 
0.003009 -0.239531 
-0.010827 -0.238333 
-0.007398 -0.240319 
-0.013043 -0.236475 
0.022354 -0.211999 
-0.001630 -0.238647 
-0.002542 -0.245738 
-0.005774 -0.210949 
-0.006228 -0.195747 
-0.004446 -0.235440 
-0.005176 -0.224226 
-0.014511 -0.222218 
-0.009998 -0.223231 
-0.011734 -0.232256 
-0.005591 -0.243141 
-0.008610 -0.239477 
-0.006327 -0.241300 
-0.004331 -0.232482 
-0.010230 -0.235308 
-0.025538 -0.223137 
-0.018019 -0.230236 
-0.021076 -0.223605 
-0.015318 -0.234116 
-0.018456 -0.229456 
-0.047911 -0.175787 
-0.043803 -0.190310 
-0.049792 -0.186080 
-0.031181 -0.193956 
-0.037554 -0.192698 
-0.033646 -0.177989 
-0.037010 -0.208210 
-0.038612 -0.203098 
-0.032469 -0.214066 
-0.012421 -0.195430 
-0.006507 -0.178773 
-0.018949 -0.221216 
-0.016830 -0.209726 
-0.019698 -0.178447 
-0.018595 -0.195059 
-0.024838 -0.194626 
-0.027919 -0.217685 
-0.027714 -0.207961 
-0.023415 -0.219858 
-0.058183 -0.157723 
-0.050705 -0.159556 
-0.051046 -0.121959 
-0.051861 -0.141615 
-0.060260 -0.123457 
-0.042781 -0.160123 
-0.034853 -0.160177 
-0.016223 -0.025778 
-0.031178 -0.052222 
-0.028854 -0.033712 
-0.029130 -0.097107 
-0.031404 -0.074535 
-0.023629 -0.073556 
-0.052941 -0.082991 
-0.041478 -0.077299 
-0.047803 -0.100542 
-0.013151 -0.160130 
-0.006533 -0.160199 
-0.027228 -0.160115 
-0.020010 -0.160090 
-0.017995 -0.118973 
-0.019457 -0.140198 
-0.024955 -0.119120 
-0.041582 -0.120500 
-0.032785 -0.119567 
-0.034637 -0.140655 
0.000000 0.000000 
-0.011278 -0.024772 
-0.006184 -0.024821 
-0.008351 -0.024708 
0.000000 0.000000 
-0.016505 -0.049292 
-0.017525 -0.073338 
0.000000 -0.025141 
-0.001387 -0.025125 
0.000000 0.000000 
-0.003924 -0.073580 
-0.002716 -0.049674 
-0.000000 -0.073596 
0.000000 0.000000 
-0.002832 -0.025060 
-0.004399 -0.024954 
-0.006276 -0.140212 
-0.000000 -0.160246 
-0.015632 -0.096630 
-0.011670 -0.118967 
-0.000000 -0.118997 
-0.005743 -0.118998 
-0.004949 -0.096733 
-0.008635 -0.049444 
-0.008012 -0.073496 
-0.012457 -0.073387 
0.000000 0.000000 
0.001387 -0.025125 
0.004399 -0.024954 
0.002832 -0.025060 
0.000000 0.000000 
0.002716 -0.049674 
0.003924 -0.073580 
0.016223 -0.025778 
0.011278 -0.024772 
0.000000 0.000000 
0.017525 -0.073338 
0.016505 -0.049292 
0.023629 -0.073556 
0.000000 0.000000 
0.008351 -0.024708 
0.006184 -0.024821 
0.006276 -0.140212 
0.006533 -0.160199 
0.004949 -0.096733 
0.005743 -0.118998 
0.017995 -0.118973 
0.011670 -0.118967 
0.015632 -0.096630 
0.008635 -0.049444 
0.012457 -0.073387 
0.008012 -0.073496 
0.028854 -0.033712 
0.031178 -0.052222 
0.047803 -0.100542 
0.041478 -0.077299 
0.052941 -0.082991 
0.031404 -0.074535 
0.029130 -0.097107 
0.047911 -0.175787 
0.050705 -0.159556 
0.058183 -0.157723 
0.034853 -0.160177 
0.042781 -0.160123 
0.033646 -0.177989 
0.060260 -0.123457 
0.051861 -0.141615 
0.051046 -0.121959 
0.013151 -0.160130 
0.006507 -0.178773 
0.024955 -0.119120 
0.019457 -0.140198 
0.019698 -0.178447 
0.020010 -0.160090 
0.027228 -0.160115 
0.041582 -0.120500 
0.034637 -0.140655 
0.032785 -0.119567 
0.049792 -0.186080 
0.043803 -0.190310 
0.032469 -0.214066 
0.038612 -0.203098 
0.037010 -0.208210 
0.037554 -0.192698 
0.031181 -0.193956 
0.010230 -0.235308 
0.004331 -0.232482 
0.018456 -0.229456 
0.015318 -0.234116 
0.021076 -0.223605 
0.018019 -0.230236 
0.025538 -0.223137 
0.012421 -0.195430 
0.024838 -0.194626 
0.018595 -0.195059 
0.016830 -0.209726 
0.018949 -0.221216 
0.027919 -0.217685 
0.023415 -0.219858 
0.027714 -0.207961 
-0.002679 -0.237077 
-0.000463 -0.239191 
0.000133 -0.236748 
-0.002257 -0.241389 
-0.001226 -0.240765 
-0.003664 -0.241170 
0.005569 -0.238935 
0.002034 -0.240051 
0.004851 -0.240022 
-0.011404 -0.213254 
-0.014540 -0.215475 
-0.024214 -0.193129 
0.004821 -0.243016 
0.001697 -0.243540 
0.004422 -0.244606 
-0.017127 -0.230143 
-0.014499 -0.224471 
-0.003422 -0.239673 
0.014401 -0.234271 
0.011975 -0.237533 
0.012982 -0.235025 
0.007741 -0.239527 
0.010241 -0.238861 
0.010976 -0.237847 
0.008658 -0.240985 
0.009540 -0.240101 
0.007154 -0.241941 
0.000919 -0.240318 
0.004486 -0.240533 
0.004401 -0.240357 
0.000000 -0.144794 
-0.006012 -0.144893 
-0.006477 -0.112767 
-0.006757 -0.214619 
-0.006708 -0.178799 
0.000000 -0.213965 
-0.019275 -0.112545 
-0.011958 -0.142658 
-0.017907 -0.143985 
0.001992 -0.240976 
0.001559 -0.245424 
-0.000000 -0.241238 
0.000815 -0.249654 
0.002045 -0.248438 
0.003817 -0.246292 
-0.000000 -0.249250 
0.000799 -0.249254 
-0.000384 -0.252195 
-0.026032 -0.159807 
-0.013113 -0.189921 
-0.006756 -0.214848 
-0.023478 -0.142539 
-0.026261 -0.155626 
-0.027217 -0.133465 
0.004336 -0.246547 
-0.013486 -0.202846 
-0.021136 -0.214390 
-0.012970 -0.212716 
-0.018078 -0.211905 
-0.020029 -0.177356 
0.003188 -0.187561 
0.003113 -0.195855 
-0.000000 -0.187629 
0.008603 -0.210688 
0.006022 -0.203579 
0.009000 -0.203383 
-0.000000 -0.203776 
0.003017 -0.203716 
0.002900 -0.211128 
0.013394 -0.231654 
0.013174 -0.227564 
0.015119 -0.227012 
0.009198 -0.228782 
0.011213 -0.228151 
0.010060 -0.232939 
0.013248 -0.216670 
0.012277 -0.222715 
0.010727 -0.217083 
-0.000000 -0.230684 
0.002450 -0.230521 
0.002255 -0.236002 
0.002765 -0.218074 
0.002616 -0.224542 
-0.000000 -0.218165 
0.006484 -0.234605 
0.004832 -0.230098 
0.007088 -0.229478 
0.008147 -0.217490 
0.007641 -0.223762 
0.005491 -0.217837 
0.003538 -0.242851 
0.005347 -0.244987 
0.004402 -0.242805 
0.004075 -0.243677 
0.005848 -0.243009 
0.003979 -0.240251 
0.007374 -0.237889 
0.005808 -0.239115 
0.004994 -0.242989 
0.005210 -0.243796 
0.011571 -0.235619 
0.007749 -0.241354 
0.009676 -0.238867 
0.010203 -0.236247 
0.008826 -0.237034 
0.006271 -0.243038 
0.007533 -0.240403 
0.007021 -0.241847 
0.006477 -0.112767 
0.006012 -0.144893 
0.017907 -0.143985 
0.011958 -0.142658 
0.019275 -0.112545 
0.006708 -0.178799 
0.006757 -0.214619 
0.006756 -0.214848 
0.013113 -0.189921 
0.026032 -0.159807 
0.021136 -0.214390 
0.013486 -0.202846 
-0.004336 -0.246547 
0.027217 -0.133465 
0.026261 -0.155626 
0.023478 -0.142539 
-0.001559 -0.245424 
-0.001992 -0.240976 
0.000384 -0.252195 
-0.000799 -0.249254 
-0.003817 -0.246292 
-0.002045 -0.248438 
-0.000815 -0.249654 
0.020029 -0.177356 
0.018078 -0.211905 
0.012970 -0.212716 
-0.000133 -0.236748 
0.000463 -0.239191 
0.002679 -0.237077 
-0.004851 -0.240022 
-0.002034 -0.240051 
-0.005569 -0.238935 
0.003664 -0.241170 
0.001226 -0.240765 
0.002257 -0.241389 
-0.012982 -0.235025 
-0.011975 -0.237533 
-0.014401 -0.234271 
-0.007154 -0.241941 
-0.009540 -0.240101 
-0.008658 -0.240985 
-0.010976 -0.237847 
-0.010241 -0.238861 
-0.007741 -0.239527 
0.024214 -0.193129 
0.014540 -0.215475 
0.011404 -0.213254 
0.003422 -0.239673 
0.014499 -0.224471 
0.017127 -0.230143 
-0.004422 -0.244606 
-0.001697 -0.243540 
-0.004821 -0.243016 
-0.004401 -0.240357 
-0.004486 -0.240533 
-0.000919 -0.240318 
-0.003113 -0.195855 
-0.003188 -0.187561 
-0.002900 -0.211128 
-0.003017 -0.203716 
-0.009000 -0.203383 
-0.006022 -0.203579 
-0.008603 -0.210688 
-0.002255 -0.236002 
-0.002450 -0.230521 
-0.007088 -0.229478 
-0.004832 -0.230098 
-0.006484 -0.234605 
-0.002616 -0.224542 
-0.002765 -0.218074 
-0.015119 -0.227012 
-0.013174 -0.227564 
-0.013394 -0.231654 
-0.010727 -0.217083 
-0.012277 -0.222715 
-0.013248 -0.216670 
-0.010060 -0.232939 
-0.011213 -0.228151 
-0.009198 -0.228782 
-0.005491 -0.217837 
-0.007641 -0.223762 
-0.008147 -0.217490 
-0.003538 -0.242851 
-0.005848 -0.243009 
-0.004075 -0.243677 
-0.004402 -0.242805 
-0.005347 -0.244987 
-0.011571 -0.235619 
-0.008826 -0.237034 
-0.010203 -0.236247 
-0.009676 -0.238867 
-0.007749 -0.241354 
-0.003979 -0.240251 
-0.005210 -0.243796 
-0.004994 -0.242989 
-0.005808 -0.239115 
-0.007374 -0.237889 
-0.007021 -0.241847 
-0.007533 -0.240403 
-0.006271 -0.243038 
-0.000683 -0.233635 
-0.003525 -0.235839 
-0.011325 -0.232516 
-0.007316 -0.234416 
-0.008336 -0.230860 
-0.006405 -0.237084 
-0.009238 -0.237325 
-0.027423 -0.220310 
-0.023523 -0.224050 
-0.025266 -0.220385 
-0.020215 -0.229173 
-0.021837 -0.226937 
-0.023694 -0.225346 
-0.016813 -0.226418 
-0.019507 -0.227331 
-0.015420 -0.230153 
-0.015792 -0.233312 
-0.016769 -0.230345 
-0.011880 -0.236719 
-0.014130 -0.235388 
-0.020157 -0.228385 
-0.017197 -0.232216 
-0.018666 -0.230886 
-0.014130 -0.233027 
-0.016619 -0.232452 
-0.012944 -0.235170 
-0.051284 -0.174450 
-0.049203 -0.181660 
-0.052321 -0.179505 
-0.042704 -0.184420 
-0.045998 -0.183261 
-0.044417 -0.176706 
-0.046971 -0.192239 
-0.046833 -0.188471 
-0.044183 -0.194868 
-0.029167 -0.186485 
-0.032550 -0.186209 
-0.030078 -0.178158 
-0.035496 -0.199684 
-0.034372 -0.193429 
-0.032533 -0.200562 
-0.037245 -0.177728 
-0.035950 -0.185814 
-0.039344 -0.185242 
-0.033263 -0.212691 
-0.034746 -0.211468 
-0.031173 -0.216115 
-0.041272 -0.200838 
-0.038119 -0.206374 
-0.040558 -0.203306 
-0.033160 -0.210722 
-0.035650 -0.208814 
-0.035915 -0.204849 
-0.040705 -0.191687 
-0.038436 -0.198501 
-0.041336 -0.196926 
-0.006391 -0.187470 
-0.003254 -0.178846 
-0.011948 -0.203152 
-0.009332 -0.195600 
-0.009766 -0.178696 
-0.009590 -0.187363 
-0.012790 -0.187242 
-0.017073 -0.226446 
-0.016728 -0.221731 
-0.019537 -0.209383 
-0.018205 -0.215844 
-0.020681 -0.215392 
-0.015733 -0.216260 
-0.014116 -0.210056 
-0.023100 -0.178365 
-0.022506 -0.186844 
-0.025816 -0.186686 
-0.016002 -0.187114 
-0.019237 -0.186983 
-0.016350 -0.178529 
-0.023644 -0.202072 
-0.021704 -0.194857 
-0.020708 -0.202378 
-0.014872 -0.202905 
-0.017788 -0.202649 
-0.015505 -0.195248 
-0.029091 -0.218844 
-0.030659 -0.212192 
-0.030191 -0.216105 
-0.027028 -0.220984 
-0.024992 -0.222646 
-0.027999 -0.194338 
-0.024978 -0.208545 
-0.026596 -0.201698 
-0.029562 -0.201212 
-0.030455 -0.207198 
-0.019038 -0.225782 
-0.022986 -0.223938 
-0.021006 -0.224959 
-0.021179 -0.220611 
-0.023166 -0.214857 
-0.028157 -0.213319 
-0.025658 -0.214184 
-0.025660 -0.218907 
-0.056560 -0.165329 
-0.053102 -0.166860 
-0.055541 -0.150450 
-0.054528 -0.158859 
-0.059392 -0.149725 
-0.049494 -0.167886 
-0.045776 -0.168545 
-0.054727 -0.112699 
-0.055761 -0.122767 
-0.059479 -0.113944 
-0.047503 -0.141423 
-0.051724 -0.132003 
-0.047157 -0.131515 
-0.060471 -0.132589 
-0.056203 -0.132409 
-0.056113 -0.141635 
-0.034414 -0.169305 
-0.030687 -0.169371 
-0.041994 -0.168948 
-0.038193 -0.169179 
-0.039015 -0.150749 
-0.038794 -0.160182 
-0.043173 -0.150858 
-0.051507 -0.150798 
-0.047359 -0.150900 
-0.046770 -0.159941 
-0.010114 -0.013555 
-0.021108 -0.027986 
-0.017455 -0.018336 
-0.026245 -0.050615 
-0.024259 -0.039093 
-0.020053 -0.037814 
-0.037329 -0.047367 
-0.030088 -0.041899 
-0.037224 -0.055140 
-0.025343 -0.096843 
-0.026604 -0.085446 
-0.023059 -0.085223 
-0.034935 -0.086544 
-0.030543 -0.085857 
-0.033270 -0.097549 
-0.023443 -0.061736 
-0.027259 -0.073900 
-0.027188 -0.062262 
-0.055915 -0.093735 
-0.050565 -0.091215 
-0.053026 -0.102189 
-0.042845 -0.067737 
-0.047223 -0.079744 
-0.048996 -0.071757 
-0.042661 -0.099217 
-0.045076 -0.089153 
-0.039800 -0.087611 
-0.031633 -0.063255 
-0.036144 -0.075611 
-0.036887 -0.064981 
-0.006556 -0.169674 
-0.003286 -0.169726 
-0.013165 -0.169566 
-0.009844 -0.169620 
-0.009692 -0.150348 
-0.009821 -0.160163 
-0.012997 -0.150327 
-0.027031 -0.169408 
-0.023455 -0.169439 
-0.023427 -0.150355 
-0.023568 -0.160094 
-0.027132 -0.150415 
-0.019957 -0.169473 
-0.016531 -0.169516 
-0.020145 -0.107960 
-0.021380 -0.119020 
-0.023573 -0.108046 
-0.016025 -0.140180 
-0.018841 -0.129738 
-0.015489 -0.129719 
-0.026007 -0.129891 
-0.022338 -0.129791 
-0.023019 -0.140245 
-0.016542 -0.160103 
-0.019846 -0.150324 
-0.016375 -0.150317 
-0.049764 -0.111475 
-0.039988 -0.109559 
-0.044796 -0.110408 
-0.046274 -0.121176 
-0.042615 -0.131038 
-0.027243 -0.108212 
-0.029866 -0.130055 
-0.028750 -0.119294 
-0.031190 -0.108494 
-0.035439 -0.108929 
-0.030992 -0.160147 
-0.038824 -0.140891 
-0.034937 -0.150621 
-0.030970 -0.150505 
-0.030601 -0.140467 
-0.037068 -0.119963 
-0.033927 -0.130296 
-0.038186 -0.130624 
0.000000 0.000000 
-0.007819 -0.012702 
-0.005541 -0.012351 
-0.006491 -0.012433 
0.000000 0.000000 
-0.013327 -0.025038 
-0.016960 -0.037277 
-0.003090 -0.012452 
-0.003591 -0.012409 
0.000000 0.000000 
-0.010769 -0.037047 
-0.007204 -0.024757 
-0.009230 -0.037108 
0.000000 0.000000 
-0.004149 -0.012370 
-0.004786 -0.012344 
-0.020414 -0.073393 
-0.019839 -0.085121 
-0.019162 -0.049436 
-0.020241 -0.061486 
-0.014955 -0.061389 
-0.017446 -0.061394 
-0.014208 -0.049267 
-0.009679 -0.024698 
-0.012507 -0.037021 
-0.014525 -0.037071 
0.000000 -0.012641 
-0.000346 -0.012640 
0.000000 0.000000 
-0.001026 -0.037493 
-0.000690 -0.025139 
0.000000 -0.037495 
0.000000 0.000000 
-0.000697 -0.012631 
-0.001054 -0.012616 
-0.002220 -0.085274 
-0.001952 -0.073598 
-0.000000 -0.085270 
-0.004111 -0.049637 
-0.003339 -0.061714 
-0.005053 -0.061676 
0.000000 -0.061734 
-0.001661 -0.061734 
-0.001351 -0.049695 
0.000000 0.000000 
-0.002205 -0.012533 
-0.002631 -0.012494 
-0.001422 -0.012594 
-0.001804 -0.012566 
0.000000 0.000000 
-0.005352 -0.037331 
-0.003596 -0.025011 
-0.004214 -0.037392 
-0.002063 -0.037475 
-0.003122 -0.037441 
-0.002099 -0.025098 
-0.003268 -0.160230 
-0.000000 -0.169770 
-0.009457 -0.140196 
-0.006439 -0.150371 
-0.000000 -0.150390 
-0.003216 -0.150388 
-0.003130 -0.140221 
-0.018642 -0.096641 
-0.016922 -0.107927 
-0.010945 -0.107945 
-0.013867 -0.107928 
-0.012793 -0.096648 
-0.014768 -0.118960 
-0.012257 -0.129721 
-0.000000 -0.107988 
-0.002677 -0.107995 
-0.002463 -0.096745 
-0.003012 -0.129753 
-0.002860 -0.119004 
-0.000000 -0.129747 
-0.007482 -0.096709 
-0.005377 -0.107986 
-0.008125 -0.107968 
-0.009117 -0.129734 
-0.008671 -0.118983 
-0.006043 -0.129747 
-0.005257 -0.024889 
-0.007051 -0.049517 
-0.006553 -0.037260 
-0.007837 -0.037183 
-0.010331 -0.049368 
-0.004463 -0.085258 
-0.009105 -0.085188 
-0.006749 -0.085228 
-0.005937 -0.073545 
-0.006821 -0.061623 
-0.016883 -0.085093 
-0.012696 -0.061430 
-0.014892 -0.073346 
-0.014137 -0.085108 
-0.011557 -0.085144 
-0.008666 -0.061559 
-0.010175 -0.073441 
-0.010613 -0.061492 
0.000000 0.000000 
0.000346 -0.012640 
0.001054 -0.012616 
0.000697 -0.012631 
0.000000 0.000000 
0.000690 -0.025139 
0.001026 -0.037493 
0.002631 -0.012494 
0.002205 -0.012533 
0.000000 0.000000 
0.004214 -0.037392 
0.003596 -0.025011 
0.005352 -0.037331 
0.000000 0.000000 
0.001804 -0.012566 
0.001422 -0.012594 
0.001952 -0.073598 
0.002220 -0.085274 
0.001351 -0.049695 
0.001661 -0.061734 
0.005053 -0.061676 
0.003339 -0.061714 
0.004111 -0.049637 
0.002099 -0.025098 
0.003122 -0.037441 
0.002063 -0.037475 
0.010114 -0.013555 
0.007819 -0.012702 
0.000000 0.000000 
0.016960 -0.037277 
0.013327 -0.025038 
0.020053 -0.037814 
0.000000 0.000000 
0.006491 -0.012433 
0.005541 -0.012351 
0.019839 -0.085121 
0.020414 -0.073393 
0.023059 -0.085223 
0.014208 -0.049267 
0.017446 -0.061394 
0.014955 -0.061389 
0.023443 -0.061736 
0.020241 -0.061486 
0.019162 -0.049436 
0.000000 0.000000 
0.003591 -0.012409 
0.003090 -0.012452 
0.004786 -0.012344 
0.004149 -0.012370 
0.000000 0.000000 
0.009230 -0.037108 
0.007204 -0.024757 
0.010769 -0.037047 
0.014525 -0.037071 
0.012507 -0.037021 
0.009679 -0.024698 
0.003268 -0.160230 
0.003286 -0.169726 
0.003130 -0.140221 
0.003216 -0.150388 
0.009692 -0.150348 
0.006439 -0.150371 
0.009457 -0.140196 
0.002463 -0.096745 
0.002677 -0.107995 
0.008125 -0.107968 
0.005377 -0.107986 
0.007482 -0.096709 
0.002860 -0.119004 
0.003012 -0.129753 
0.020145 -0.107960 
0.016922 -0.107927 
0.018642 -0.096641 
0.012257 -0.129721 
0.014768 -0.118960 
0.015489 -0.129719 
0.012793 -0.096648 
0.013867 -0.107928 
0.010945 -0.107945 
0.006043 -0.129747 
0.008671 -0.118983 
0.009117 -0.129734 
0.005257 -0.024889 
0.010331 -0.049368 
0.007837 -0.037183 
0.006553 -0.037260 
0.007051 -0.049517 
0.016883 -0.085093 
0.011557 -0.085144 
0.014137 -0.085108 
0.014892 -0.073346 
0.012696 -0.061430 
0.004463 -0.085258 
0.006821 -0.061623 
0.005937 -0.073545 
0.006749 -0.085228 
0.009105 -0.085188 
0.010613 -0.061492 
0.010175 -0.073441 
0.008666 -0.061559 
0.017455 -0.018336 
0.021108 -0.027986 
0.037224 -0.055140 
0.030088 -0.041899 
0.037329 -0.047367 
0.024259 -0.039093 
0.026245 -0.050615 
0.053026 -0.102189 
0.050565 -0.091215 
0.055915 -0.093735 
0.039800 -0.087611 
0.045076 -0.089153 
0.042661 -0.099217 
0.048996 -0.071757 
0.047223 -0.079744 
0.042845 -0.067737 
0.026604 -0.085446 
0.025343 -0.096843 
0.027188 -0.062262 
0.027259 -0.073900 
0.033270 -0.097549 
0.030543 -0.085857 
0.034935 -0.086544 
0.036887 -0.064981 
0.036144 -0.075611 
0.031633 -0.063255 
0.051284 -0.174450 
0.053102 -0.166860 
0.056560 -0.165329 
0.045776 -0.168545 
0.049494 -0.167886 
0.044417 -0.176706 
0.059392 -0.149725 
0.054528 -0.158859 
0.055541 -0.150450 
0.030687 -0.169371 
0.034414 -0.169305 
0.030078 -0.178158 
0.043173 -0.150858 
0.038794 -0.160182 
0.039015 -0.150749 
0.037245 -0.177728 
0.038193 -0.169179 
0.041994 -0.168948 
0.059479 -0.113944 
0.055761 -0.122767 
0.054727 -0.112699 
0.056113 -0.141635 
0.056203 -0.132409 
0.060471 -0.132589 
0.047157 -0.131515 
0.051724 -0.132003 
0.047503 -0.141423 
0.046770 -0.159941 
0.047359 -0.150900 
0.051507 -0.150798 
0.006556 -0.169674 
0.003254 -0.178846 
0.012997 -0.150327 
0.009821 -0.160163 
0.009766 -0.178696 
0.009844 -0.169620 
0.013165 -0.169566 
0.023573 -0.108046 
0.021380 -0.119020 
0.023019 -0.140245 
0.022338 -0.129791 
0.026007 -0.129891 
0.018841 -0.129738 
0.016025 -0.140180 
0.023100 -0.178365 
0.023455 -0.169439 
0.027031 -0.169408 
0.016531 -0.169516 
0.019957 -0.169473 