# vtk DataFile Version 2.0
Unstructured Grid Example
ASCII
DATASET UNSTRUCTURED_GRID

POINTS 25 float
-0.008852 -0.206830 0.000000 
1.008852 -0.206830 0.000000 
1.000000 1.000000 0.000000 
0.000000 1.000000 0.000000 
0.500000 -0.087963 0.000000 
0.968724 0.354512 0.000000 
0.500000 1.000000 0.000000 
0.031276 0.354512 0.000000 
0.500000 0.348267 0.000000 
0.231261 -0.161397 0.000000 
0.500000 0.078612 0.000000 
0.246596 0.068689 0.000000 
0.768739 -0.161397 0.000000 
0.753404 0.068689 0.000000 
0.992390 0.061487 0.000000 
0.737799 0.350885 0.000000 
0.960610 0.661666 0.000000 
0.736008 0.666117 0.000000 
0.750000 1.000000 0.000000 
0.500000 0.665987 0.000000 
0.250000 1.000000 0.000000 
0.263992 0.666117 0.000000 
0.039390 0.661666 0.000000 
0.262201 0.350885 0.000000 
0.007610 0.061487 0.000000 

CELLS 32 128
3  0 9 11 
3  4 10 9 
3  8 11 10 
3  9 10 11 
3  4 12 10 
3  1 13 12 
3  8 10 13 
3  12 13 10 
3  1 14 13 
3  5 15 14 
3  8 13 15 
3  14 15 13 
3  5 16 15 
3  2 17 16 
3  8 15 17 
3  16 17 15 
3  2 18 17 
3  6 19 18 
3  8 17 19 
3  18 19 17 
3  6 20 19 
3  3 21 20 
3  8 19 21 
3  20 21 19 
3  3 22 21 
3  7 23 22 
3  8 21 23 
3  22 23 21 
3  7 24 23 
3  0 11 24 
3  8 23 11 
3  24 11 23 

CELL_TYPES 32
5
5
5
5
5
5
5
5
5
5
5
5
5
5
5
5
5
5
5
5
5
5
5
5
5
5
5
5
5
5
5
5

POINT_DATA 25

SCALARS u_h float 2
LOOKUP_TABLE default
-0.008852 -0.206830 
0.008852 -0.206830 
0.000000 0.000000 
0.000000 0.000000 
-0.000000 -0.087963 
-0.031276 -0.145488 
0.000000 0.000000 
0.031276 -0.145488 
-0.000000 -0.151733 
-0.018739 -0.161397 
-0.000000 -0.171388 
-0.003404 -0.181311 
0.018739 -0.161397 
0.003404 -0.181311 
-0.007610 -0.188513 
-0.012201 -0.149115 
-0.039390 -0.088334 
-0.013992 -0.083883 
0.000000 0.000000 
0.000000 -0.084013 
0.000000 0.000000 
0.013992 -0.083883 
0.039390 -0.088334 
0.012201 -0.149115 
0.007610 -0.188513 

CELL_DATA 32

SCALARS epsilon float 4
LOOKUP_TABLE default
-0.050520 -0.073704 0.000000 0.130046
0.072159 -0.291316 0.000000 0.219351
0.013523 0.076205 0.000000 0.018396
0.013083 -0.084484 0.000000 0.051577
0.072159 -0.291316 0.000000 -0.219351
-0.050520 -0.073704 0.000000 -0.130046
0.013523 0.076205 0.000000 -0.018396
0.013083 -0.084484 0.000000 -0.051577
-0.044802 0.069150 0.000000 -0.047678
-0.074118 0.158939 0.000000 -0.043972
-0.047696 0.121245 0.000000 -0.027754
-0.045008 0.119308 0.000000 -0.044965
-0.078370 0.203870 0.000000 -0.011094
-0.096049 0.297422 0.000000 0.075134
-0.049910 0.228441 0.000000 0.000534
-0.106774 0.228359 0.000000 -0.010787
0.000878 0.282795 0.000000 0.026219
0.000000 0.283160 0.000000 -0.000000
-0.057531 0.235856 0.000000 0.000204
-0.056568 0.282774 0.000000 0.027967
0.000000 0.283160 0.000000 -0.000000
0.000878 0.282795 0.000000 -0.026219
-0.057531 0.235856 0.000000 -0.000204
-0.056568 0.282774 0.000000 -0.027967
-0.096049 0.297422 0.000000 -0.075134
-0.078370 0.203870 0.000000 0.011094
-0.049910 0.228441 0.000000 -0.000534
-0.106774 0.228359 0.000000 0.010787
-0.074118 0.158939 0.000000 0.043972
-0.044802 0.069150 0.000000 0.047678
-0.047696 0.121245 0.000000 0.027754
-0.045008 0.119308 0.000000 0.044965

SCALARS sigma float 4
LOOKUP_TABLE default
-1.513908 -2.054975 -1.242246 1.506243
0.396837 -3.478860 -2.191571 0.990102
1.145047 2.303547 0.897283 0.383697
-0.468784 -1.856116 -0.714012 0.765468
0.396837 -3.478860 -2.191571 -0.990102
-1.513908 -2.054975 -1.242246 -1.506243
1.145047 2.303547 0.897283 -0.383697
-0.468784 -1.856116 -0.714012 -0.765468
-0.445692 1.519467 0.243476 -0.783114
-0.347147 4.028786 0.848207 -0.616329
-0.048786 3.062598 0.735494 -0.405558
0.024355 3.046398 0.743002 -0.774359
-0.030104 5.460876 1.254999 -0.108225
0.372060 8.861745 2.013730 0.995350
0.917323 6.676672 1.785312 0.056598
-0.471865 5.988200 1.215854 -0.234863
2.851138 9.370485 2.836736 0.429984
2.831602 9.355701 2.831602 -0.000000
0.789965 6.855820 1.783254 0.005594
1.255383 8.653205 2.262057 0.434304
2.831602 9.355701 2.831602 -0.000000
2.851138 9.370485 2.836736 -0.429984
0.789965 6.855820 1.783254 -0.005594
1.255383 8.653205 2.262057 -0.434304
0.372060 8.861745 2.013730 -0.995350
-0.030104 5.460876 1.254999 0.108225
0.917323 6.676672 1.785312 -0.056598
-0.471865 5.988200 1.215854 0.234863
-0.347147 4.028786 0.848207 0.616329
-0.445692 1.519467 0.243476 0.783114
-0.048786 3.062598 0.735494 0.405558
0.024355 3.046398 0.743002 0.774359

