# vtk DataFile Version 2.0
Unstructured Grid Example
ASCII
DATASET UNSTRUCTURED_GRID

POINTS 81 float
-0.013947 -0.215734 0.000000 
1.013947 -0.215734 0.000000 
1.000000 1.000000 0.000000 
0.000000 1.000000 0.000000 
0.500000 -0.096215 0.000000 
0.960561 0.344854 0.000000 
0.500000 1.000000 0.000000 
0.039439 0.344854 0.000000 
0.500000 0.335428 0.000000 
0.218092 -0.177027 0.000000 
0.500000 0.046078 0.000000 
0.250417 0.049241 0.000000 
0.781908 -0.177027 0.000000 
0.749583 0.049241 0.000000 
0.988150 0.053315 0.000000 
0.732335 0.338128 0.000000 
0.951851 0.655503 0.000000 
0.732297 0.660249 0.000000 
0.750000 1.000000 0.000000 
0.500000 0.659926 0.000000 
0.250000 1.000000 0.000000 
0.267703 0.660249 0.000000 
0.048149 0.655503 0.000000 
0.267665 0.338128 0.000000 
0.011850 0.053315 0.000000 
0.107957 -0.216731 0.000000 
0.237889 -0.076147 0.000000 
0.115998 -0.088692 0.000000 
0.500000 -0.080093 0.000000 
0.365699 -0.077059 0.000000 
0.349296 -0.119384 0.000000 
0.379776 0.187819 0.000000 
0.374757 0.048654 0.000000 
0.500000 0.185970 0.000000 
0.650704 -0.119384 0.000000 
0.634301 -0.077059 0.000000 
0.884002 -0.088692 0.000000 
0.762111 -0.076147 0.000000 
0.892043 -0.216731 0.000000 
0.625243 0.048654 0.000000 
0.620224 0.187819 0.000000 
1.004433 -0.084144 0.000000 
0.870069 0.046018 0.000000 
0.846203 0.338539 0.000000 
0.856762 0.188555 0.000000 
0.972375 0.196222 0.000000 
0.739635 0.188560 0.000000 
0.616591 0.337569 0.000000 
0.952103 0.496625 0.000000 
0.841305 0.495385 0.000000 
0.856894 0.829012 0.000000 
0.844079 0.659150 0.000000 
0.963445 0.822266 0.000000 
0.729500 0.495917 0.000000 
0.615158 0.495715 0.000000 
0.875000 1.000000 0.000000 
0.739792 0.828868 0.000000 
0.500000 0.828469 0.000000 
0.620278 0.828479 0.000000 
0.625000 1.000000 0.000000 
0.616720 0.659990 0.000000 
0.500000 0.495207 0.000000 
0.375000 1.000000 0.000000 
0.379722 0.828479 0.000000 
0.143106 0.829012 0.000000 
0.260208 0.828868 0.000000 
0.125000 1.000000 0.000000 
0.383280 0.659990 0.000000 
0.384842 0.495715 0.000000 
0.036555 0.822266 0.000000 
0.155921 0.659150 0.000000 
0.153797 0.338539 0.000000 
0.158695 0.495385 0.000000 
0.047897 0.496625 0.000000 
0.270500 0.495917 0.000000 
0.383409 0.337569 0.000000 
0.027625 0.196222 0.000000 
0.143238 0.188555 0.000000 
0.129931 0.046018 0.000000 
-0.004433 -0.084144 0.000000 
0.260365 0.188560 0.000000 

CELLS 128 512
3  0 25 27 
3  9 26 25 
3  11 27 26 
3  25 26 27 
3  4 28 30 
3  10 29 28 
3  9 30 29 
3  28 29 30 
3  8 31 33 
3  11 32 31 
3  10 33 32 
3  31 32 33 
3  9 29 26 
3  10 32 29 
3  11 26 32 
3  29 32 26 
3  4 34 28 
3  12 35 34 
3  10 28 35 
3  34 35 28 
3  1 36 38 
3  13 37 36 
3  12 38 37 
3  36 37 38 
3  8 33 40 
3  10 39 33 
3  13 40 39 
3  33 39 40 
3  12 37 35 
3  13 39 37 
3  10 35 39 
3  37 39 35 
3  1 41 36 
3  14 42 41 
3  13 36 42 
3  41 42 36 
3  5 43 45 
3  15 44 43 
3  14 45 44 
3  43 44 45 
3  8 40 47 
3  13 46 40 
3  15 47 46 
3  40 46 47 
3  14 44 42 
3  15 46 44 
3  13 42 46 
3  44 46 42 
3  5 48 43 
3  16 49 48 
3  15 43 49 
3  48 49 43 
3  2 50 52 
3  17 51 50 
3  16 52 51 
3  50 51 52 
3  8 47 54 
3  15 53 47 
3  17 54 53 
3  47 53 54 
3  16 51 49 
3  17 53 51 
3  15 49 53 
3  51 53 49 
3  2 55 50 
3  18 56 55 
3  17 50 56 
3  55 56 50 
3  6 57 59 
3  19 58 57 
3  18 59 58 
3  57 58 59 
3  8 54 61 
3  17 60 54 
3  19 61 60 
3  54 60 61 
3  18 58 56 
3  19 60 58 
3  17 56 60 
3  58 60 56 
3  6 62 57 
3  20 63 62 
3  19 57 63 
3  62 63 57 
3  3 64 66 
3  21 65 64 
3  20 66 65 
3  64 65 66 
3  8 61 68 
3  19 67 61 
3  21 68 67 
3  61 67 68 
3  20 65 63 
3  21 67 65 
3  19 63 67 
3  65 67 63 
3  3 69 64 
3  22 70 69 
3  21 64 70 
3  69 70 64 
3  7 71 73 
3  23 72 71 
3  22 73 72 
3  71 72 73 
3  8 68 75 
3  21 74 68 
3  23 75 74 
3  68 74 75 
3  22 72 70 
3  23 74 72 
3  21 70 74 
3  72 74 70 
3  7 76 71 
3  24 77 76 
3  23 71 77 
3  76 77 71 
3  0 27 79 
3  11 78 27 
3  24 79 78 
3  27 78 79 
3  8 75 31 
3  23 80 75 
3  11 31 80 
3  75 80 31 
3  24 78 77 
3  11 80 78 
3  23 77 80 
3  78 80 77 

CELL_TYPES 128
5
5
5
5
5
5
5
5
5
5
5
5
5
5
5
5
5
5
5
5
5
5
5
5
5
5
5
5
5
5
5
5
5
5
5
5
5
5
5
5
5
5
5
5
5
5
5
5
5
5
5
5
5
5
5
5
5
5
5
5
5
5
5
5
5
5
5
5
5
5
5
5
5
5
5
5
5
5
5
5
5
5
5
5
5
5
5
5
5
5
5
5
5
5
5
5
5
5
5
5
5
5
5
5
5
5
5
5
5
5
5
5
5
5
5
5
5
5
5
5
5
5
5
5
5
5
5
5

POINT_DATA 81

SCALARS u_h float 2
LOOKUP_TABLE default
-0.013947 -0.215734 
0.013947 -0.215734 
0.000000 0.000000 
0.000000 0.000000 
0.000000 -0.096215 
-0.039439 -0.155146 
0.000000 0.000000 
0.039439 -0.155146 
0.000000 -0.164572 
-0.031908 -0.177027 
0.000000 -0.203922 
0.000417 -0.200759 
0.031908 -0.177027 
-0.000417 -0.200759 
-0.011850 -0.196685 
-0.017665 -0.161872 
-0.048149 -0.094497 
-0.017703 -0.089751 
0.000000 0.000000 
0.000000 -0.090074 
0.000000 0.000000 
0.017703 -0.089751 
0.048149 -0.094497 
0.017665 -0.161872 
0.011850 -0.196685 
-0.017043 -0.216731 
-0.012111 -0.201147 
-0.009002 -0.213692 
0.000000 -0.205093 
-0.009301 -0.202059 
-0.025704 -0.119384 
0.004776 -0.187181 
-0.000243 -0.201346 
0.000000 -0.189030 
0.025704 -0.119384 
0.009301 -0.202059 
0.009002 -0.213692 
0.012111 -0.201147 
0.017043 -0.216731 
0.000243 -0.201346 
-0.004776 -0.187181 
0.004433 -0.209144 
-0.004931 -0.203982 
-0.028797 -0.161461 
-0.018238 -0.186445 
-0.027625 -0.178778 
-0.010365 -0.186440 
-0.008409 -0.162431 
-0.047897 -0.128375 
-0.033695 -0.129615 
-0.018106 -0.045988 
-0.030921 -0.090850 
-0.036555 -0.052734 
-0.020500 -0.129083 
-0.009842 -0.129285 
0.000000 0.000000 
-0.010208 -0.046132 
0.000000 -0.046531 
-0.004722 -0.046521 
0.000000 0.000000 
-0.008280 -0.090010 
0.000000 -0.129793 
0.000000 0.000000 
0.004722 -0.046521 
0.018106 -0.045988 
0.010208 -0.046132 
0.000000 0.000000 
0.008280 -0.090010 
0.009842 -0.129285 
0.036555 -0.052734 
0.030921 -0.090850 
0.028797 -0.161461 
0.033695 -0.129615 
0.047897 -0.128375 
0.020500 -0.129083 
0.008409 -0.162431 
0.027625 -0.178778 
0.018238 -0.186445 
0.004931 -0.203982 
-0.004433 -0.209144 
0.010365 -0.186440 

CELL_DATA 128

SCALARS epsilon float 4
LOOKUP_TABLE default
-0.022489 0.024558 0.000000 0.029074
-0.168148 -0.162304 0.000000 0.267027
-0.030154 -0.001862 0.000000 0.101349
-0.029564 0.022645 0.000000 0.081917
0.185102 16.762656 0.000000 0.697691
0.071652 0.009573 0.000000 -0.011965
-0.038219 1.938427 0.000000 0.319058
0.144250 -0.067494 0.000000 -0.201487
-0.038935 0.177117 0.000000 -0.006177
-0.004464 0.107144 0.000000 0.017861
0.001940 0.112291 0.000000 -0.009209
-0.037679 0.107610 0.000000 0.014019
0.041997 -0.209152 0.000000 0.068562
0.005999 0.007381 0.000000 0.025913
0.000221 0.003583 0.000000 0.048036
0.025226 0.006231 0.000000 0.031806
0.185102 16.762656 0.000000 -0.697691
-0.038219 1.938427 0.000000 -0.319058
0.071652 0.009573 0.000000 0.011965
0.144250 -0.067494 0.000000 0.201487
-0.022489 0.024558 0.000000 -0.029074
-0.030154 -0.001862 0.000000 -0.101349
-0.168148 -0.162304 0.000000 -0.267027
-0.029564 0.022645 0.000000 -0.081917
-0.038935 0.177117 0.000000 0.006177
0.001940 0.112291 0.000000 0.009209
-0.004464 0.107144 0.000000 -0.017861
-0.037679 0.107610 0.000000 -0.014019
0.041997 -0.209152 0.000000 -0.068562
0.000221 0.003583 0.000000 -0.048036
0.005999 0.007381 0.000000 -0.025913
0.025226 0.006231 0.000000 -0.031806
-0.031695 0.054690 0.000000 -0.022134
-0.041855 0.103534 0.000000 -0.041820
-0.033742 0.072236 0.000000 -0.069483
-0.027609 0.079169 0.000000 -0.040654
-0.080644 0.176971 0.000000 -0.029212
-0.089750 0.180699 0.000000 -0.043722
-0.063625 0.141984 0.000000 -0.040362
-0.070395 0.186486 0.000000 -0.018930
-0.068740 0.179481 0.000000 -0.008041
-0.042479 0.108512 0.000000 -0.038558
-0.075151 0.177990 0.000000 -0.028822
-0.045240 0.179090 0.000000 -0.012327
-0.046312 0.137716 0.000000 -0.029896
-0.063602 0.177750 0.000000 -0.030337
-0.035919 0.106455 0.000000 -0.052411
-0.059997 0.130599 0.000000 -0.055962
-0.083839 0.195955 0.000000 -0.015158
-0.119945 0.236020 0.000000 0.002755
-0.092287 0.223764 0.000000 -0.019323
-0.119000 0.224027 0.000000 -0.017297
-0.117215 0.353449 0.000000 0.137001
-0.106970 0.299702 0.000000 0.050117
-0.141552 0.284313 0.000000 0.039701
-0.149658 0.304491 0.000000 0.036530
-0.069308 0.231822 0.000000 0.000856
-0.076500 0.229480 0.000000 -0.009954
-0.088719 0.267961 0.000000 0.012138
-0.088797 0.231574 0.000000 -0.005362
-0.146327 0.265602 0.000000 0.001294
-0.110909 0.268174 0.000000 0.008495
-0.110937 0.229315 0.000000 -0.013793
-0.110796 0.264811 0.000000 0.010108
0.005606 0.305122 0.000000 0.067183
0.001779 0.305901 0.000000 0.037864
-0.064097 0.292095 0.000000 0.030286
-0.058908 0.305002 0.000000 0.072137
0.000000 0.308063 0.000000 -0.000000
-0.038491 0.291720 0.000000 0.000032
0.000379 0.308006 0.000000 0.017500
-0.038084 0.308003 0.000000 0.018218
-0.081817 0.241367 0.000000 0.001578
-0.078174 0.267644 0.000000 0.007154
-0.068424 0.270205 0.000000 0.000194
-0.081806 0.267629 0.000000 0.007931
-0.043092 0.305724 0.000000 0.040739
-0.068180 0.291412 0.000000 0.014415
-0.077149 0.292054 0.000000 0.031018
-0.044670 0.291362 0.000000 0.015045
0.000000 0.308063 0.000000 -0.000000
0.000379 0.308006 0.000000 -0.017500
-0.038491 0.291720 0.000000 -0.000032
-0.038084 0.308003 0.000000 -0.018218
0.005606 0.305122 0.000000 -0.067183
-0.064097 0.292095 0.000000 -0.030286
0.001779 0.305901 0.000000 -0.037864
-0.058908 0.305002 0.000000 -0.072137
-0.081817 0.241367 0.000000 -0.001578
-0.068424 0.270205 0.000000 -0.000194
-0.078174 0.267644 0.000000 -0.007154
-0.081806 0.267629 0.000000 -0.007931
-0.043092 0.305724 0.000000 -0.040739
-0.077149 0.292054 0.000000 -0.031018
-0.068180 0.291412 0.000000 -0.014415
-0.044670 0.291362 0.000000 -0.015045
-0.117215 0.353449 0.000000 -0.137001
-0.141552 0.284313 0.000000 -0.039701
-0.106970 0.299702 0.000000 -0.050117
-0.149658 0.304491 0.000000 -0.036530
-0.083839 0.195955 0.000000 0.015158
-0.092287 0.223764 0.000000 0.019323
-0.119945 0.236020 0.000000 -0.002755
-0.119000 0.224027 0.000000 0.017297
-0.069308 0.231822 0.000000 -0.000856
-0.088719 0.267961 0.000000 -0.012138
-0.076500 0.229480 0.000000 0.009954
-0.088797 0.231574 0.000000 0.005362
-0.146327 0.265602 0.000000 -0.001294
-0.110937 0.229315 0.000000 0.013793
-0.110909 0.268174 0.000000 -0.008495
-0.110796 0.264811 0.000000 -0.010108
-0.080644 0.176971 0.000000 0.029212
-0.063625 0.141984 0.000000 0.040362
-0.089750 0.180699 0.000000 0.043722
-0.070395 0.186486 0.000000 0.018930
-0.031695 0.054690 0.000000 0.022134
-0.033742 0.072236 0.000000 0.069483
-0.041855 0.103534 0.000000 0.041820
-0.027609 0.079169 0.000000 0.040654
-0.068740 0.179481 0.000000 0.008041
-0.075151 0.177990 0.000000 0.028822
-0.042479 0.108512 0.000000 0.038558
-0.045240 0.179090 0.000000 0.012327
-0.046312 0.137716 0.000000 0.029896
-0.035919 0.106455 0.000000 0.052411
-0.063602 0.177750 0.000000 0.030337
-0.059997 0.130599 0.000000 0.055962

SCALARS sigma float 4
LOOKUP_TABLE default
-0.343271 0.464397 0.020692 0.461577
-2.615028 -2.927334 -3.304522 0.541760
-0.612904 -0.176079 -0.320161 1.565655
-0.400353 0.394522 -0.069195 1.330756
215.576340 -2556.828762 169.477575 543.130642
2.129353 0.978233 0.812245 -0.231514
23.834378 -76.874649 19.002087 83.882960
3.594119 -0.866763 0.767568 -3.537481
0.715053 4.987993 1.381814 -0.152418
0.947457 3.078368 1.026800 0.279601
1.179175 3.301536 1.142310 -0.206171
0.075005 2.724771 0.699308 0.186891
-1.015682 -3.675202 -1.671546 1.195757
0.224299 0.287182 0.133800 0.421216
0.037754 0.176249 0.038043 0.783529
0.740946 0.456062 0.314563 0.530401
215.576340 -2556.828762 169.477575 -543.130642
23.834378 -76.874649 19.002087 -83.882960
2.129353 0.978233 0.812245 0.231514
3.594119 -0.866763 0.767568 3.537481
-0.343271 0.464397 0.020692 -0.461577
-0.612904 -0.176079 -0.320161 -1.565655
-2.615028 -2.927334 -3.304522 -0.541760
-0.400353 0.394522 -0.069195 -1.330756
0.715053 4.987993 1.381814 0.152418
1.179175 3.301536 1.142310 0.206171
0.947457 3.078368 1.026800 -0.279601
0.075005 2.724771 0.699308 -0.186891
-1.015682 -3.675202 -1.671546 -1.195757
0.037754 0.176249 0.038043 -0.783529
0.224299 0.287182 0.133800 -0.421216
0.740946 0.456062 0.314563 -0.530401
-0.292657 1.213385 0.229951 -0.309944
-0.104350 2.625233 0.616790 -0.521815
-0.133273 1.801323 0.384938 -1.132615
0.037420 2.022569 0.515601 -0.580807
-0.349715 4.535867 0.963275 -0.258047
-0.509726 4.574309 0.909493 -0.635510
-0.278920 3.600308 0.783592 -0.434188
-0.011133 4.961971 1.160912 -0.054714
-0.020521 4.725336 1.107409 -0.060362
-0.038161 2.738914 0.660331 -0.589473
-0.189737 4.621518 1.028386 -0.419055
0.567697 4.987897 1.338506 -0.170588
0.120001 3.627068 0.914046 -0.293611
0.091809 4.748834 1.141482 -0.464223
0.132367 2.762748 0.705361 -0.884574
-0.259215 3.289668 0.706023 -0.856181
-0.242298 5.125514 1.121163 -0.029743
-0.702613 6.104317 1.160746 0.083726
-0.180244 6.007855 1.314769 -0.271637
-0.788688 5.694836 1.050268 -0.205280
0.271693 11.188605 2.362341 1.533005
0.146757 8.722624 1.927324 0.675944
-0.769871 7.678647 1.427606 0.394674
-0.782009 8.345429 1.548326 0.195338
0.453543 6.565069 1.625139 0.091775
0.252597 6.396747 1.529802 -0.129935
0.306240 7.671374 1.792423 0.188798
-0.025970 6.321768 1.427769 -0.072455
-1.015419 6.864892 1.192749 -0.125395
-0.218222 7.403182 1.572653 0.078227
-0.559664 5.976225 1.183779 -0.218128
-0.244847 7.279134 1.540150 0.124862
3.199225 10.409526 3.107285 1.101808
3.105980 10.312399 3.076804 0.620974
1.146297 8.922619 2.279980 0.469597
1.394879 9.603201 2.460939 1.109784
3.080630 10.339060 3.080630 -0.000000
1.826391 9.206687 2.532285 0.000976
3.090061 10.349483 3.083845 0.286997
1.993168 9.861086 2.699190 0.287541
0.232105 6.762859 1.595502 0.042829
0.562871 7.787566 1.894694 0.118454
0.832121 8.004265 2.017808 0.005644
0.472876 7.742111 1.858230 0.139907
1.832709 9.740360 2.626324 0.655489
1.035223 8.826529 2.232328 0.222490
0.812494 8.757637 2.149049 0.478672
1.655210 9.120431 2.466924 0.252885
3.080630 10.339060 3.080630 -0.000000
3.090061 10.349483 3.083845 -0.286997
1.826391 9.206687 2.532285 -0.000976
1.993168 9.861086 2.699190 -0.287541
3.199225 10.409526 3.107285 -1.101808
1.146297 8.922619 2.279980 -0.469597
3.105980 10.312399 3.076804 -0.620974
1.394879 9.603201 2.460939 -1.109784
0.232105 6.762859 1.595502 -0.042829
0.832121 8.004265 2.017808 -0.005644
0.562871 7.787566 1.894694 -0.118454
0.472876 7.742111 1.858230 -0.139907
1.832709 9.740360 2.626324 -0.655489
0.812494 8.757637 2.149049 -0.478672
1.035223 8.826529 2.232328 -0.222490
1.655210 9.120431 2.466924 -0.252885
0.271693 11.188605 2.362341 -1.533005
-0.769871 7.678647 1.427606 -0.394674
0.146757 8.722624 1.927324 -0.675944
-0.782009 8.345429 1.548326 -0.195338
-0.242298 5.125514 1.121163 0.029743
-0.180244 6.007855 1.314769 0.271637
-0.702613 6.104317 1.160746 -0.083726
-0.788688 5.694836 1.050268 0.205280
0.453543 6.565069 1.625139 -0.091775
0.306240 7.671374 1.792423 -0.188798
0.252597 6.396747 1.529802 0.129935
-0.025970 6.321768 1.427769 0.072455
-1.015419 6.864892 1.192749 0.125395
-0.559664 5.976225 1.183779 0.218128
-0.218222 7.403182 1.572653 -0.078227
-0.244847 7.279134 1.540150 -0.124862
-0.349715 4.535867 0.963275 0.258047
-0.278920 3.600308 0.783592 0.434188
-0.509726 4.574309 0.909493 0.635510
-0.011133 4.961971 1.160912 0.054714
-0.292657 1.213385 0.229951 0.309944
-0.133273 1.801323 0.384938 1.132615
-0.104350 2.625233 0.616790 0.521815
0.037420 2.022569 0.515601 0.580807
-0.020521 4.725336 1.107409 0.060362
-0.189737 4.621518 1.028386 0.419055
-0.038161 2.738914 0.660331 0.589473
0.567697 4.987897 1.338506 0.170588
0.120001 3.627068 0.914046 0.293611
0.132367 2.762748 0.705361 0.884574
0.091809 4.748834 1.141482 0.464223
-0.259215 3.289668 0.706023 0.856181

