# vtk DataFile Version 2.0
Unstructured Grid Example
ASCII
DATASET UNSTRUCTURED_GRID

POINTS 4225 float
-0.000975 -0.233909 0.000000 
1.000890 -0.233977 0.000000 
1.000000 1.000000 0.000000 
0.000000 1.000000 0.000000 
0.499784 -0.105113 0.000000 
0.945850 0.327831 0.000000 
0.500000 1.000000 0.000000 
0.054076 0.327877 0.000000 
0.499984 0.322716 0.000000 
0.239006 -0.180894 0.000000 
0.499951 0.016954 0.000000 
0.265057 0.020535 0.000000 
0.761578 -0.181878 0.000000 
0.734815 0.020467 0.000000 
0.970619 0.033709 0.000000 
0.723838 0.322695 0.000000 
0.942177 0.646369 0.000000 
0.728332 0.653703 0.000000 
0.750000 1.000000 0.000000 
0.499995 0.653846 0.000000 
0.250000 1.000000 0.000000 
0.271646 0.653720 0.000000 
0.057785 0.646400 0.000000 
0.276095 0.322743 0.000000 
0.029307 0.033752 0.000000 
0.123335 -0.240390 0.000000 
0.257330 -0.116221 0.000000 
0.134136 -0.112531 0.000000 
0.499873 -0.124202 0.000000 
0.381029 -0.116662 0.000000 
0.355500 -0.120788 0.000000 
0.386103 0.166582 0.000000 
0.383303 0.018878 0.000000 
0.499975 0.166106 0.000000 
0.644567 -0.120809 0.000000 
0.618848 -0.117032 0.000000 
0.865825 -0.112580 0.000000 
0.742628 -0.116152 0.000000 
0.876616 -0.240494 0.000000 
0.616566 0.018713 0.000000 
0.613820 0.166504 0.000000 
0.986905 -0.103482 0.000000 
0.852967 0.023773 0.000000 
0.834599 0.323304 0.000000 
0.842072 0.169558 0.000000 
0.956408 0.177482 0.000000 
0.728014 0.167248 0.000000 
0.612215 0.322753 0.000000 
0.940281 0.484116 0.000000 
0.832281 0.484302 0.000000 
0.852601 0.825308 0.000000 
0.837416 0.652043 0.000000 
0.955838 0.815158 0.000000 
0.723608 0.485341 0.000000 
0.612512 0.485731 0.000000 
0.875000 1.000000 0.000000 
0.737898 0.825886 0.000000 
0.499999 0.825562 0.000000 
0.619513 0.825663 0.000000 
0.625000 1.000000 0.000000 
0.615044 0.653865 0.000000 
0.499990 0.485808 0.000000 
0.375000 1.000000 0.000000 
0.380483 0.825667 0.000000 
0.147388 0.825317 0.000000 
0.262095 0.825893 0.000000 
0.125000 1.000000 0.000000 
0.384943 0.653876 0.000000 
0.387461 0.485752 0.000000 
0.044143 0.815175 0.000000 
0.162555 0.652063 0.000000 
0.165328 0.323345 0.000000 
0.167668 0.484333 0.000000 
0.059662 0.484157 0.000000 
0.276350 0.485371 0.000000 
0.387737 0.322793 0.000000 
0.043510 0.177527 0.000000 
0.157841 0.169603 0.000000 
0.146958 0.023808 0.000000 
0.013022 -0.103418 0.000000 
0.271887 0.167316 0.000000 
0.061326 -0.239027 0.000000 
0.127014 -0.176479 0.000000 
0.066185 -0.175148 0.000000 
0.255557 -0.181676 0.000000 
0.190466 -0.175855 0.000000 
0.171922 -0.207585 0.000000 
0.200978 -0.047929 0.000000 
0.195983 -0.114601 0.000000 
0.261143 -0.049109 0.000000 
0.499601 -0.111929 0.000000 
0.426247 -0.105700 0.000000 
0.418567 -0.117877 0.000000 
0.441027 -0.053370 0.000000 
0.438312 -0.122618 0.000000 
0.499914 -0.054720 0.000000 
0.286733 -0.134771 0.000000 
0.358466 -0.101913 0.000000 
0.320026 -0.170460 0.000000 
0.443557 0.243618 0.000000 
0.443108 0.166266 0.000000 
0.499980 0.243541 0.000000 
0.324223 0.019834 0.000000 
0.384796 0.091537 0.000000 
0.326781 0.092144 0.000000 
0.499967 0.090555 0.000000 
0.442541 0.090887 0.000000 
0.441906 0.017636 0.000000 
0.319358 -0.115008 0.000000 
0.381712 -0.051038 0.000000 
0.321546 -0.049612 0.000000 
0.581186 -0.118082 0.000000 
0.574139 -0.108162 0.000000 
0.680215 -0.171067 0.000000 
0.642515 -0.102234 0.000000 
0.713451 -0.134853 0.000000 
0.561302 -0.123021 0.000000 
0.558798 -0.053533 0.000000 
0.933726 -0.175223 0.000000 
0.872890 -0.176598 0.000000 
0.938594 -0.239098 0.000000 
0.738739 -0.049144 0.000000 
0.804022 -0.114556 0.000000 
0.798959 -0.047930 0.000000 
0.828480 -0.207849 0.000000 
0.809525 -0.175782 0.000000 
0.744668 -0.181289 0.000000 
0.556834 0.166218 0.000000 
0.556397 0.243585 0.000000 
0.557989 0.017529 0.000000 
0.557383 0.090815 0.000000 
0.673100 0.092039 0.000000 
0.615104 0.091425 0.000000 
0.675630 0.019698 0.000000 
0.680575 -0.115241 0.000000 
0.678289 -0.049782 0.000000 
0.618112 -0.051283 0.000000 
0.994637 -0.169825 0.000000 
0.926674 -0.109585 0.000000 
0.911880 0.027497 0.000000 
0.919152 -0.042064 0.000000 
0.978650 -0.035669 0.000000 
0.859229 -0.045729 0.000000 
0.793914 0.021632 0.000000 
0.890020 0.324718 0.000000 
0.894061 0.247728 0.000000 
0.950577 0.251849 0.000000 
0.781687 0.244426 0.000000 
0.837815 0.245491 0.000000 
0.779286 0.322795 0.000000 
0.963143 0.104756 0.000000 
0.899160 0.172479 0.000000 
0.905155 0.099041 0.000000 
0.612822 0.243688 0.000000 
0.556133 0.322755 0.000000 
0.731171 0.092671 0.000000 
0.670916 0.166835 0.000000 
0.668144 0.322724 0.000000 
0.669219 0.243805 0.000000 
0.725515 0.243986 0.000000 
0.847184 0.095605 0.000000 
0.785053 0.168010 0.000000 
0.789196 0.093688 0.000000 
0.942280 0.405213 0.000000 
0.887265 0.403413 0.000000 
0.886809 0.565885 0.000000 
0.886082 0.483800 0.000000 
0.940110 0.564495 0.000000 
0.832671 0.402927 0.000000 
0.778070 0.402995 0.000000 
0.920940 0.911740 0.000000 
0.906122 0.822876 0.000000 
0.970576 0.903224 0.000000 
0.783570 0.653223 0.000000 
0.843654 0.738153 0.000000 
0.788971 0.739178 0.000000 
0.947085 0.729835 0.000000 
0.896040 0.735372 0.000000 
0.889911 0.649717 0.000000 
0.612092 0.403500 0.000000 
0.556102 0.403549 0.000000 
0.723155 0.403205 0.000000 
0.667816 0.403389 0.000000 
0.669736 0.569159 0.000000 
0.668327 0.485601 0.000000 
0.725316 0.568914 0.000000 
0.833743 0.567368 0.000000 
0.780015 0.568373 0.000000 
0.778241 0.484901 0.000000 
0.937500 1.000000 0.000000 
0.863642 0.912797 0.000000 
0.743850 0.912775 0.000000 
0.804152 0.912875 0.000000 
0.812500 1.000000 0.000000 
0.796024 0.825861 0.000000 
0.732599 0.739452 0.000000 
0.500000 0.912481 0.000000 
0.561130 0.912499 0.000000 
0.562500 1.000000 0.000000 
0.558626 0.739332 0.000000 
0.559817 0.825585 0.000000 
0.499997 0.739315 0.000000 
0.687500 1.000000 0.000000 
0.622201 0.912558 0.000000 
0.683140 0.912655 0.000000 
0.556338 0.485786 0.000000 
0.499987 0.403564 0.000000 
0.672041 0.653850 0.000000 
0.613500 0.569251 0.000000 
0.499993 0.569291 0.000000 
0.556847 0.569279 0.000000 
0.557620 0.653849 0.000000 
0.678943 0.825778 0.000000 
0.617082 0.739390 0.000000 
0.675165 0.739457 0.000000 
0.437500 1.000000 0.000000 
0.438869 0.912500 0.000000 
0.316857 0.912657 0.000000 
0.377798 0.912560 0.000000 
0.312500 1.000000 0.000000 
0.440180 0.825588 0.000000 
0.441368 0.739336 0.000000 
0.079054 0.911746 0.000000 
0.136353 0.912802 0.000000 
0.062500 1.000000 0.000000 
0.267387 0.739464 0.000000 
0.203967 0.825870 0.000000 
0.211012 0.739191 0.000000 
0.187500 1.000000 0.000000 
0.195844 0.912879 0.000000 
0.256147 0.912778 0.000000 
0.443640 0.485797 0.000000 
0.443869 0.403566 0.000000 
0.442369 0.653855 0.000000 
0.443137 0.569287 0.000000 
0.330239 0.569179 0.000000 
0.386480 0.569266 0.000000 
0.327942 0.653864 0.000000 
0.321052 0.825784 0.000000 
0.324825 0.739467 0.000000 
0.382910 0.739397 0.000000 
0.029413 0.903234 0.000000 
0.093864 0.822888 0.000000 
0.110056 0.649741 0.000000 
0.103936 0.735390 0.000000 
0.052886 0.729860 0.000000 
0.156327 0.738167 0.000000 
0.216404 0.653242 0.000000 
0.109906 0.324759 0.000000 
0.112670 0.403452 0.000000 
0.057654 0.405258 0.000000 
0.221871 0.403032 0.000000 
0.167267 0.402964 0.000000 
0.220643 0.322839 0.000000 
0.059843 0.564531 0.000000 
0.113864 0.483834 0.000000 
0.113147 0.565915 0.000000 
0.387871 0.403529 0.000000 
0.443830 0.322778 0.000000 
0.274654 0.568936 0.000000 
0.331638 0.485628 0.000000 
0.331797 0.322771 0.000000 
0.332139 0.403425 0.000000 
0.276791 0.403243 0.000000 
0.166217 0.567394 0.000000 
0.221712 0.484932 0.000000 
0.219950 0.568398 0.000000 
0.049343 0.251895 0.000000 
0.105859 0.247771 0.000000 
0.094765 0.099084 0.000000 
0.100756 0.172523 0.000000 
0.036777 0.104799 0.000000 
0.162103 0.245535 0.000000 
0.218230 0.244476 0.000000 
0.073259 -0.109524 0.000000 
0.005278 -0.169754 0.000000 
0.205993 0.021666 0.000000 
0.140716 -0.045699 0.000000 
0.021282 -0.035618 0.000000 
0.080785 -0.042016 0.000000 
0.088048 0.027540 0.000000 
0.387117 0.243743 0.000000 
0.274403 0.244044 0.000000 
0.330706 0.243868 0.000000 
0.328990 0.166916 0.000000 
0.268713 0.092744 0.000000 
0.152730 0.095647 0.000000 
0.210705 0.093736 0.000000 
0.214853 0.168062 0.000000 
0.030108 -0.236709 0.000000 
0.063366 -0.207375 0.000000 
0.032700 -0.205133 0.000000 
0.123438 -0.208037 0.000000 
0.093735 -0.208535 0.000000 
0.092517 -0.240374 0.000000 
0.100007 -0.144063 0.000000 
0.096563 -0.176387 0.000000 
0.130673 -0.144834 0.000000 
0.244471 -0.180166 0.000000 
0.208489 -0.180890 0.000000 
0.202831 -0.188241 0.000000 
0.225025 -0.148461 0.000000 
0.222865 -0.180307 0.000000 
0.255802 -0.149150 0.000000 
0.143250 -0.227228 0.000000 
0.176125 -0.190841 0.000000 
0.152173 -0.204947 0.000000 
0.233310 -0.014159 0.000000 
0.231080 -0.048683 0.000000 
0.263115 -0.014617 0.000000 
0.164970 -0.113513 0.000000 
0.198462 -0.081685 0.000000 
0.167932 -0.080641 0.000000 
0.259189 -0.082950 0.000000 
0.228894 -0.082566 0.000000 
0.226845 -0.115825 0.000000 
0.158169 -0.175987 0.000000 
0.193456 -0.146357 0.000000 
0.161830 -0.145375 0.000000 
0.499816 -0.107510 0.000000 
0.463616 -0.113040 0.000000 
0.458680 -0.112976 0.000000 
0.462872 -0.119491 0.000000 
0.461754 -0.118416 0.000000 
0.500108 -0.116664 0.000000 
0.394116 -0.110337 0.000000 
0.429535 -0.111613 0.000000 
0.392163 -0.115446 0.000000 
0.470795 -0.018821 0.000000 
0.470525 -0.054259 0.000000 
0.499936 -0.019121 0.000000 
0.408210 -0.121141 0.000000 
0.440157 -0.088069 0.000000 
0.410438 -0.086651 0.000000 
0.499884 -0.089843 0.000000 
0.470038 -0.089039 0.000000 
0.468871 -0.122794 0.000000 
0.262974 -0.156127 0.000000 
0.304493 -0.152071 0.000000 
0.281290 -0.181677 0.000000 
0.357540 -0.107014 0.000000 
0.320465 -0.115324 0.000000 
0.319565 -0.132487 0.000000 
0.349096 -0.147644 0.000000 
0.336784 -0.135005 0.000000 
0.360137 -0.117919 0.000000 
0.427062 -0.109708 0.000000 
0.398178 -0.115575 0.000000 
[...]
POINT_DATA 4225

SCALARS u_h float 2
LOOKUP_TABLE default
-0.000975 -0.233909 
0.000890 -0.233977 
0.000000 0.000000 
0.000000 0.000000 
-0.000216 -0.105113 
-0.054150 -0.172169 
0.000000 0.000000 
0.054076 -0.172123 
-0.000016 -0.177284 
-0.010994 -0.180894 
-0.000049 -0.233046 
0.015057 -0.229465 
0.011578 -0.181878 
-0.015185 -0.229533 
-0.029381 -0.216291 
-0.026162 -0.177305 
-0.057823 -0.103631 
-0.021668 -0.096297 
0.000000 0.000000 
-0.000005 -0.096154 
0.000000 0.000000 
0.021646 -0.096280 
0.057785 -0.103600 
0.026095 -0.177257 
0.029307 -0.216248 
-0.001665 -0.240390 
0.007330 -0.241221 
0.009136 -0.237531 
-0.000127 -0.249202 
0.006029 -0.241662 
-0.019500 -0.120788 
0.011103 -0.208418 
0.008303 -0.231122 
-0.000025 -0.208894 
0.019567 -0.120809 
-0.006152 -0.242032 
-0.009175 -0.237580 
-0.007372 -0.241152 
0.001616 -0.240494 
-0.008434 -0.231287 
-0.011180 -0.208496 
-0.013095 -0.228482 
-0.022033 -0.226227 
-0.040401 -0.176696 
-0.032928 -0.205442 
-0.043592 -0.197518 
-0.021986 -0.207752 
-0.012785 -0.177247 
-0.059719 -0.140884 
-0.042719 -0.140698 
-0.022399 -0.049692 
-0.037584 -0.097957 
-0.044162 -0.059842 
-0.026392 -0.139659 
-0.012488 -0.139269 
0.000000 0.000000 
-0.012102 -0.049114 
-0.000001 -0.049438 
-0.005487 -0.049337 
0.000000 0.000000 
-0.009956 -0.096135 
-0.000010 -0.139192 
0.000000 0.000000 
0.005483 -0.049333 
0.022388 -0.049683 
0.012095 -0.049107 
0.000000 0.000000 
0.009943 -0.096124 
0.012461 -0.139248 
0.044143 -0.059825 
0.037555 -0.097937 
0.040328 -0.176655 
0.042668 -0.140667 
0.059662 -0.140843 
0.026350 -0.139629 
0.012737 -0.177207 
0.043510 -0.197473 
0.032841 -0.205397 
0.021958 -0.226192 
0.013022 -0.228418 
0.021887 -0.207684 
-0.001174 -0.239027 
0.002014 -0.238979 
0.003685 -0.237648 
0.005557 -0.244176 
0.002966 -0.238355 
-0.015578 -0.207585 
0.013478 -0.235429 
0.008483 -0.239601 
0.011143 -0.236609 
-0.000399 -0.174429 
-0.011253 -0.168200 
-0.018933 -0.117877 
0.003527 -0.240870 
0.000812 -0.247618 
-0.000086 -0.242220 
-0.025767 -0.134771 
-0.016534 -0.164413 
0.007526 -0.232960 
0.006057 -0.193882 
0.005608 -0.208734 
-0.000020 -0.193959 
0.011723 -0.230166 
0.009796 -0.220963 
0.014281 -0.220356 
-0.000033 -0.221945 
0.005041 -0.221613 
0.004406 -0.232364 
0.006858 -0.240008 
0.006712 -0.238538 
0.009046 -0.237112 
0.018686 -0.118082 
0.011639 -0.170662 
-0.007285 -0.233567 
0.017515 -0.164734 
0.025951 -0.134853 
-0.001198 -0.248021 
-0.003702 -0.241033 
-0.003774 -0.237723 
-0.002110 -0.239098 
0.001094 -0.239098 
-0.011261 -0.236644 
-0.008478 -0.239556 
-0.013541 -0.235430 
0.015980 -0.207849 
-0.002975 -0.238282 
-0.005332 -0.243789 
-0.005666 -0.208782 
-0.006103 -0.193915 
-0.004511 -0.232471 
-0.005117 -0.221685 
-0.014400 -0.220461 
-0.009896 -0.221075 
-0.011870 -0.230302 
-0.006925 -0.240241 
-0.009211 -0.237282 
-0.006888 -0.238783 
-0.005363 -0.232325 
-0.010826 -0.234585 
-0.025620 -0.222503 
-0.018348 -0.229564 
-0.021350 -0.223169 
-0.015771 -0.233229 
-0.018586 -0.228368 
-0.047480 -0.175282 
-0.043439 -0.189772 
-0.049423 -0.185651 
-0.030813 -0.193074 
-0.037185 -0.192009 
-0.033214 -0.177205 
-0.036857 -0.207744 
-0.038340 -0.202521 
-0.032345 -0.213459 
-0.012178 -0.193812 
-0.006367 -0.177245 
-0.018829 -0.219829 
-0.016584 -0.208165 
-0.019356 -0.177276 
-0.018281 -0.193695 
-0.024485 -0.193514 
-0.027816 -0.216895 
-0.027447 -0.206990 
-0.023304 -0.218812 
-0.057720 -0.157287 
-0.050235 -0.159087 
-0.050691 -0.121615 
-0.051418 -0.141200 
-0.059890 -0.123005 
-0.042329 -0.159573 
-0.034430 -0.159505 
-0.016560 -0.025760 
-0.031378 -0.052124 
-0.029424 -0.034276 
-0.028930 -0.096777 
-0.031346 -0.074347 
-0.023529 -0.073322 
-0.052915 -0.082665 
-0.041460 -0.077128 
-0.047589 -0.100283 
-0.012908 -0.159000 
-0.006398 -0.158951 
-0.026845 -0.159295 
-0.019684 -0.159111 
-0.017764 -0.118341 
-0.019173 -0.139399 
-0.024684 -0.118586 
-0.041257 -0.120132 
-0.032485 -0.119127 
-0.034259 -0.140099 
0.000000 0.000000 
-0.011358 -0.024703 
-0.006150 -0.024725 
-0.008348 -0.024625 
0.000000 0.000000 
-0.016476 -0.049139 
-0.017401 -0.073048 
-0.000000 -0.025019 
-0.001370 -0.025001 
0.000000 0.000000 
-0.003874 -0.073168 
-0.002683 -0.049415 
-0.000003 -0.073185 
0.000000 0.000000 
-0.002799 -0.024942 
-0.004360 -0.024845 
-0.006162 -0.139214 
-0.000013 -0.158936 
-0.015459 -0.096150 
-0.011500 -0.118249 
-0.000007 -0.118209 
-0.005653 -0.118221 
-0.004880 -0.096151 
-0.008557 -0.049222 
-0.007918 -0.073110 
-0.012335 -0.073043 
0.000000 0.000000 
0.001369 -0.025000 
0.004357 -0.024843 
0.002798 -0.024940 
0.000000 0.000000 
0.002680 -0.049412 
0.003868 -0.073164 
0.016554 -0.025754 
0.011353 -0.024698 
0.000000 0.000000 
0.017387 -0.073036 
0.016467 -0.049130 
0.023512 -0.073309 
0.000000 0.000000 
0.008344 -0.024621 
0.006147 -0.024722 
0.006140 -0.139203 
0.006369 -0.158934 
0.004869 -0.096145 
0.005637 -0.118213 
0.017739 -0.118321 
0.011480 -0.118234 
0.015442 -0.096136 
0.008552 -0.049216 
0.012325 -0.073033 
0.007910 -0.073103 
0.029413 -0.034266 
0.031364 -0.052112 
0.047556 -0.100259 
0.041436 -0.077110 
0.052886 -0.082640 
0.031327 -0.074333 
0.028904 -0.096758 
0.047406 -0.175241 
0.050170 -0.159048 
0.057654 -0.157242 
0.034371 -0.159468 
0.042267 -0.159536 
0.033143 -0.177161 
0.059843 -0.122969 
0.051364 -0.141166 
0.050647 -0.121585 
0.012871 -0.158971 
0.006330 -0.177222 
0.024654 -0.118564 
0.019138 -0.139372 
0.019297 -0.177229 
0.019639 -0.159075 
0.026791 -0.159257 
0.041217 -0.120106 
0.034212 -0.140068 
0.032450 -0.119102 
0.049343 -0.185605 
0.043359 -0.189729 
0.032265 -0.213416 
0.038256 -0.202477 
0.036777 -0.207701 
0.037103 -0.191965 
0.030730 -0.193024 
0.010759 -0.234524 
0.005278 -0.232254 
0.018493 -0.228334 
0.015716 -0.233199 
0.021282 -0.223118 
0.018285 -0.229516 
0.025548 -0.222460 
0.012117 -0.193757 
0.024403 -0.193456 
0.018206 -0.193632 
0.016490 -0.208084 
0.018713 -0.219756 
0.027730 -0.216853 
0.023205 -0.218764 
0.027353 -0.206938 
-0.001142 -0.236709 
0.000866 -0.238625 
0.001450 -0.236383 
-0.001562 -0.239287 
-0.000015 -0.239785 
-0.001233 -0.240374 
0.006257 -0.237813 
0.002813 -0.238887 
0.005673 -0.238584 
-0.005529 -0.211416 
-0.010261 -0.212140 
-0.015919 -0.188241 
0.006275 -0.242211 
0.004115 -0.242807 
0.005802 -0.242900 
-0.013000 -0.227228 
-0.011375 -0.222091 
-0.004077 -0.236197 
0.014560 -0.232909 
0.012330 -0.236183 
0.013115 -0.233367 
0.008720 -0.238513 
0.010962 -0.237935 
0.011682 -0.236891 
0.009189 -0.239200 
0.010144 -0.238816 
0.008095 -0.240825 
0.001919 -0.238487 
0.005956 -0.240107 
0.005580 -0.239125 
-0.000184 -0.138760 
-0.005134 -0.144290 
-0.010070 -0.112976 
-0.005878 -0.213241 
-0.006996 -0.180916 
0.000108 -0.210414 
-0.012134 -0.110337 
-0.007965 -0.142863 
-0.014087 -0.146696 
0.002045 -0.237571 
0.001775 -0.241759 
-0.000064 -0.237871 
0.001960 -0.246141 
0.002657 -0.244319 
0.004188 -0.242901 
-0.000116 -0.246093 
0.001288 -0.245289 
0.000121 -0.247794 
-0.018276 -0.156127 
-0.008007 -0.183321 
0.000040 -0.212927 
-0.017460 -0.138264 
-0.023285 -0.146574 
-0.024185 -0.132487 
0.005346 -0.241394 
-0.006966 -0.197505 
-0.014863 -0.211669 
-0.010438 -0.203458 
-0.008072 -0.209325 
-0.016360 -0.185707 
0.003097 -0.185799 
0.003019 -0.193931 
-0.000018 -0.185826 
0.008375 -0.208584 
0.005851 -0.201544 
0.008762 -0.201446 
-0.000022 -0.201654 
0.002920 -0.201619 
0.002803 -0.208844 
0.013376 -0.229816 
0.013035 -0.225589 
0.014977 -0.225266 
0.009067 -0.226361 
0.011078 -0.225946 
0.010049 -0.230593 
0.012972 -0.214734 
0.012059 -0.220646 
0.010480 -0.214970 
-0.000039 -0.227740 
0.002386 -0.227598 
0.002229 -0.232842 
0.002672 -0.215591 
0.002532 -0.221846 
-0.000028 -0.215661 
0.006432 -0.231745 
0.004732 -0.227264 
0.006961 -0.226821 
0.007938 -0.215211 
0.007464 -0.221299 
0.005335 -0.215430 
0.006433 -0.239665 
0.007238 -0.241811 
0.005278 -0.238462 
0.005184 -0.240805 
0.006711 -0.240468 
0.004034 -0.236900 
0.007514 -0.235201 
0.005864 -0.236045 
0.005197 -0.239717 
0.005946 -0.240985 
0.011718 -0.233681 
0.008360 -0.239108 
0.010033 -0.236805 
0.010375 -0.234033 
0.009000 -0.234541 
0.007204 -0.240202 
0.007991 -0.237749 
0.007840 -0.239244 
0.009477 -0.113654 
0.004696 -0.144591 
0.013449 -0.147485 
0.008147 -0.144850 
0.012163 -0.111888 
0.006187 -0.180294 
0.006038 -0.213191 
0.000557 -0.213157 
0.008562 -0.183759 
0.018863 -0.156407 
0.015455 -0.213261 
0.007336 -0.198164 
-0.005250 -0.241762 
0.024528 -0.132612 
0.023203 -0.147589 
0.017428 -0.138794 
-0.001944 -0.241832 
-0.002172 -0.237635 
-0.000422 -0.247901 
-0.001517 -0.245366 
-0.004468 -0.243144 
-0.002902 -0.244548 
-0.002420 -0.246437 
0.017156 -0.185785 
0.009146 -0.208977 
0.010186 -0.203353 
-0.001538 -0.236453 
-0.000957 -0.238698 
0.001058 -0.236778 
-0.005724 -0.238662 
-0.002906 -0.238977 
-0.006327 -0.237889 
0.001163 -0.240455 
-0.000087 -0.239871 
0.001419 -0.239422 
-0.013243 -0.233424 
-0.012416 -0.236185 
-0.014663 -0.232938 
-0.008097 -0.240734 
-0.010198 -0.238780 
-0.009282 -0.239196 
-0.011716 -0.236901 
-0.010996 -0.237913 
-0.008733 -0.238528 
0.016412 -0.188536 
0.010643 -0.212172 
0.006038 -0.211761 
0.003821 -0.236539 
0.011530 -0.222384 
0.013295 -0.227440 
-0.005750 -0.242718 
-0.004014 -0.242628 
-0.006210 -0.242059 
-0.005590 -0.239171 
-0.005918 -0.240048 
-0.001984 -0.238618 
-0.003062 -0.193948 
-0.003135 -0.185813 
-0.002855 -0.208870 
-0.002967 -0.201640 
-0.008821 -0.201501 
-0.005903 -0.201584 
-0.008442 -0.208651 
-0.002328 -0.232897 
-0.002466 -0.227644 
-0.007061 -0.226940 
-0.004820 -0.227351 
-0.006550 -0.231892 
-0.002600 -0.221884 
-0.002731 -0.215622 
-0.015108 -0.225363 
-0.013168 -0.225709 
-0.013519 -0.229917 
-0.010567 -0.215064 
-0.012170 -0.220760 
-0.013071 -0.214831 
-0.010193 -0.230754 
-0.011205 -0.226081 
-0.009181 -0.226496 
-0.005401 -0.215489 
-0.007551 -0.221397 
-0.008014 -0.215291 
-0.006174 -0.239841 
-0.006795 -0.240549 
-0.005191 -0.240898 
-0.005238 -0.238827 
-0.007282 -0.242111 
-0.011867 -0.233783 
-0.009160 -0.234732 
-0.010535 -0.234185 
-0.010182 -0.236904 
-0.008490 -0.239197 
-0.004166 -0.237031 
-0.006147 -0.241281 
-0.005381 -0.239933 
-0.006007 -0.236224 
-0.007666 -0.235403 
-0.007985 -0.239435 
-0.008164 -0.237975 
-0.007365 -0.240465 
-0.002041 -0.233531 
-0.004569 -0.235456 
-0.011896 -0.232005 
-0.008080 -0.233953 
-0.009093 -0.230598 
-0.007160 -0.236364 
-0.009894 -0.236377 
-0.027482 -0.219768 
-0.023697 -0.223505 
-0.025420 -0.219935 
-0.020457 -0.228417 
-0.022039 -0.226286 
-0.023804 -0.224616 
-0.017218 -0.226011 
-0.019802 -0.226788 
-0.015843 -0.229619 
-0.016086 -0.232229 
-0.016880 -0.229045 
-0.012513 -0.235760 
-0.014636 -0.234449 
-0.020300 -0.227449 
-0.017504 -0.231276 
-0.018950 -0.230037 
-0.014590 -0.232328 
-0.017003 -0.231656 
-0.013471 -0.234311 
-0.050886 -0.174007 
-0.048819 -0.181202 
-0.051942 -0.179113 
-0.042299 -0.183835 
-0.045602 -0.182741 
-0.043972 -0.176144 
-0.046631 -0.191787 
-0.046470 -0.187995 
-0.043854 -0.194372 
-0.028773 -0.185551 
-0.032147 -0.185376 
-0.029661 -0.177284 
-0.035174 -0.198966 
-0.034002 -0.192649 
-0.032210 -0.199746 
-0.036803 -0.177027 
-0.035542 -0.185072 
-0.038936 -0.184583 
-0.033201 -0.212228 
-0.034607 -0.210936 
-0.031127 -0.215577 
-0.040990 -0.200327 
-0.037901 -0.205850 
-0.040327 -0.202839 
-0.032963 -0.210048 
-0.035444 -0.208221 
-0.035648 -0.204196 
-0.040338 -0.191079 
-0.038114 -0.197869 
-0.041012 -0.196369 
-0.006260 -0.185794 
-0.003188 -0.177253 
-0.011722 -0.201402 
-0.009141 -0.193867 
-0.009562 -0.177243 
-0.009392 -0.185773 
-0.012536 -0.185752 
-0.017057 -0.224992 
-0.016612 -0.220164 
-0.019279 -0.207981 
-0.018009 -0.214359 
-0.020480 -0.214073 
-0.015544 -0.214601 
-0.013890 -0.208333 
-0.022727 -0.177296 
-0.022147 -0.185691 
-0.025437 -0.185645 
-0.015704 -0.185733 
-0.018904 -0.185716 
-0.016045 -0.177258 
-0.023328 -0.200890 
-0.021367 -0.193620 
-0.020405 -0.201059 
-0.014611 -0.201298 
-0.017502 -0.201187 
-0.015221 -0.193755 
-0.029064 -0.218223 
-0.030467 -0.211424 
-0.030080 -0.215412 
-0.027019 -0.220274 
-0.024997 -0.221837 
-0.027636 -0.193345 
-0.024710 -0.207438 
-0.026275 -0.200647 
-0.029239 -0.200284 
-0.030190 -0.206348 
-0.019023 -0.224524 
-0.022993 -0.223013 
-0.021003 -0.223886 
-0.021060 -0.219400 
-0.022964 -0.213697 
-0.027964 -0.212439 
-0.025461 -0.213173 
-0.025557 -0.218001 
-0.056128 -0.164925 
-0.052651 -0.166411 
-0.055070 -0.150013 
-0.054055 -0.158413 
-0.058927 -0.149271 
-0.049035 -0.167397 
-0.045317 -0.168010 
-0.054420 -0.112361 
-0.055392 -0.122394 
-0.059168 -0.113509 
-0.047075 -0.140993 
-0.051319 -0.131622 
-0.046767 -0.131125 
-0.060055 -0.132129 
-0.055785 -0.132008 
-0.055661 -0.141213 
-0.033982 -0.168576 
-0.030271 -0.168562 
-0.041539 -0.168357 
-0.037748 -0.168524 
-0.038593 -0.150192 
-0.038355 -0.159575 
-0.042735 -0.150351 
-0.051042 -0.150354 
-0.046907 -0.150431 
-0.046307 -0.159437 
-0.010609 -0.013701 
-0.021576 -0.028006 
-0.018084 -0.019305 
-0.026378 -0.050512 
-0.024548 -0.039028 
-0.020240 -0.037742 
-0.037772 -0.047523 
-0.030494 -0.041875 
-0.037497 -0.055069 
-0.025143 -0.096477 
-0.026456 -0.085166 
-0.022903 -0.084911 
-0.034804 -0.086314 
-0.030404 -0.085605 
-0.033069 -0.097250 
-0.023416 -0.061568 
-0.027179 -0.073692 
-0.027200 -0.062113 
-0.055773 -0.093357 
-0.050433 -0.090968 
-0.052798 -0.101893 
-0.042968 -0.067607 
-0.047208 -0.079554 
-0.049110 -0.071515 
-0.042456 -0.098958 
-0.044954 -0.088938 
-0.039677 -0.087395 
-0.031686 -0.063117 
-0.036108 -0.075435 
-0.036980 -0.064850 
-0.006415 -0.168290 
-0.003212 -0.168288 
-0.012911 -0.168321 
-0.009643 -0.168300 
-0.009512 -0.149273 
-0.009628 -0.158969 
-0.012768 -0.149308 
-0.026636 -0.168514 
-0.023086 -0.168455 
-0.023089 -0.149538 
-0.023211 -0.159195 
-0.026769 -0.149669 
-0.019620 -0.168400 
-0.016232 -0.168354 
-0.019925 -0.107449 
-0.021127 -0.118437 
-0.023339 -0.107578 
-0.015774 -0.139322 
-0.018582 -0.129026 
-0.015261 -0.128954 
-0.025700 -0.129289 
-0.022054 -0.129133 
-0.022706 -0.139509 
-0.016254 -0.159047 
-0.019538 -0.149436 
-0.016104 -0.149361 
-0.049472 -0.111172 
-0.039720 -0.109238 
-0.044518 -0.110105 
-0.045934 -0.120829 
-0.042241 -0.130622 
-0.026999 -0.107788 
-0.029541 -0.129507 
-0.028463 -0.118809 
-0.030938 -0.108109 
-0.035179 -0.108580 
-0.030587 -0.159403 
-0.038429 -0.140387 
-0.034532 -0.150008 
-0.030584 -0.149828 
-0.030242 -0.139855 
-0.036756 -0.119563 
-0.033585 -0.129798 
-0.037828 -0.130172 
0.000000 0.000000 
-0.008001 -0.012680 
-0.005584 -0.012308 
-0.006579 -0.012392 
0.000000 0.000000 
-0.013496 -0.024982 
-0.017052 -0.037187 
-0.003073 -0.012403 
-0.003580 -0.012362 
0.000000 0.000000 
-0.010733 -0.036916 
-0.007182 -0.024668 
-0.009179 -0.036966 
0.000000 0.000000 
-0.004148 -0.012325 
-0.004802 -0.012301 
-0.020298 -0.073131 
-0.019681 -0.084775 
-0.019173 -0.049302 
-0.020182 -0.061295 
-0.014860 -0.061150 
-0.017364 -0.061179 
-0.014153 -0.049095 
-0.009707 -0.024621 
-0.012496 -0.036902 
-0.014554 -0.036966 
-0.000000 -0.012582 
-0.000342 -0.012580 
0.000000 0.000000 
-0.001013 -0.037303 
-0.000681 -0.025016 
-0.000001 -0.037307 
0.000000 0.000000 
-0.000688 -0.012571 
-0.001041 -0.012557 
-0.002192 -0.084774 
-0.001928 -0.073183 
-0.000004 -0.084774 
-0.004062 -0.049382 
-0.003298 -0.061380 
-0.004992 -0.061349 
-0.000002 -0.061401 
-0.001641 -0.061398 
-0.001335 -0.049434 
0.000000 0.000000 
-0.002185 -0.012479 
-0.002611 -0.012443 
-0.001405 -0.012536 
-0.001785 -0.012510 
0.000000 0.000000 
-0.005297 -0.037158 
-0.003558 -0.024898 
-0.004166 -0.037211 
-0.002038 -0.037285 
-0.003084 -0.037254 
-0.002073 -0.024977 
-0.003200 -0.158941 
-0.000015 -0.168291 
-0.009292 -0.139235 
-0.006314 -0.149251 
-0.000012 -0.149230 
-0.003154 -0.149238 
-0.003076 -0.139201 
-0.018455 -0.096198 
-0.016721 -0.107374 
-0.010795 -0.107317 
-0.013688 -0.107335 
-0.012638 -0.096134 
-0.014565 -0.118283 
-0.012065 -0.128908 
-0.000006 -0.107305 
-0.002640 -0.107309 
-0.002430 -0.096156 
-0.002964 -0.128853 
-0.002818 -0.118215 
-0.000009 -0.128845 
-0.007380 -0.096143 
-0.005298 -0.107310 
-0.008008 -0.107311 
-0.008967 -0.128880 
-0.008538 -0.118231 
-0.005942 -0.128863 
-0.005218 -0.024787 
-0.006978 -0.049283 
-0.006495 -0.037096 
-0.007780 -0.037030 
-0.010253 -0.049162 
-0.004404 -0.084764 
-0.008993 -0.084725 
-0.006662 -0.084747 
-0.005863 -0.073143 
-0.006743 -0.061308 
-0.016728 -0.084714 
-0.012596 -0.061169 
-0.014766 -0.073028 
-0.013991 -0.084698 
-0.011425 -0.084706 
-0.008575 -0.061260 
-0.010065 -0.073074 
-0.010515 -0.061211 
0.000000 0.000000 
0.000342 -0.012579 
0.001041 -0.012556 
0.000688 -0.012571 
0.000000 0.000000 
0.000681 -0.025015 
0.001012 -0.037302 
0.002610 -0.012441 
0.002184 -0.012478 
0.000000 0.000000 
0.004164 -0.037208 
0.003556 -0.024895 
0.005294 -0.037154 
0.000000 0.000000 
0.001784 -0.012509 
0.001405 -0.012536 
0.001922 -0.073181 
0.002184 -0.084772 
0.001332 -0.049433 
0.001637 -0.061396 
0.004987 -0.061345 
0.003293 -0.061377 
0.004058 -0.049379 
0.002072 -0.024975 
0.003082 -0.037252 
0.002036 -0.037283 
0.010606 -0.013698 
0.007998 -0.012677 
0.000000 0.000000 
0.017044 -0.037180 
0.013491 -0.024977 
0.020231 -0.037734 
0.000000 0.000000 
0.006577 -0.012389 
0.005582 -0.012306 
0.019664 -0.084761 
0.020283 -0.073119 
0.022884 -0.084896 
0.014145 -0.049088 
0.017353 -0.061169 
0.014850 -0.061141 
0.023402 -0.061557 
0.020170 -0.061285 
0.019163 -0.049293 
0.000000 0.000000 
0.003579 -0.012361 
0.003072 -0.012402 
0.004800 -0.012299 
0.004147 -0.012323 
0.000000 0.000000 
0.009174 -0.036961 
0.007178 -0.024664 
0.010727 -0.036911 
0.014547 -0.036959 
0.012489 -0.036896 
0.009702 -0.024617 
0.003172 -0.158933 
0.003182 -0.168278 
0.003055 -0.139195 
0.003130 -0.149231 
0.009483 -0.149253 
0.006288 -0.149237 
0.009267 -0.139219 
0.002420 -0.096153 
0.002627 -0.107305 
0.007993 -0.107301 
0.005285 -0.107303 
0.007368 -0.096134 
0.002803 -0.118211 
0.002946 -0.128848 
0.019902 -0.107430 
0.016700 -0.107357 
0.018436 -0.096182 
0.012042 -0.128890 
0.014543 -0.118265 
0.015235 -0.128933 
0.012623 -0.096121 
0.013670 -0.107319 
0.010778 -0.107304 
0.005923 -0.128854 
0.008520 -0.118219 
0.008946 -0.128866 
0.005215 -0.024784 
0.010247 -0.049156 
0.007775 -0.037025 
0.006491 -0.037092 
0.006973 -0.049277 
0.016713 -0.084701 
0.011413 -0.084695 
0.013977 -0.084686 
0.014753 -0.073017 
0.012586 -0.061160 
0.004395 -0.084759 
0.006737 -0.061303 
0.005856 -0.073137 
0.006653 -0.084740 
0.008983 -0.084716 
0.010507 -0.061203 
0.010056 -0.073066 
0.008568 -0.061253 
0.018078 -0.019299 
0.021569 -0.027999 
0.037480 -0.055055 
0.030482 -0.041865 
0.037756 -0.047509 
0.024538 -0.039019 
0.026365 -0.050501 
0.052762 -0.101866 
0.050402 -0.090944 
0.055740 -0.093329 
0.039650 -0.087376 
0.044926 -0.088917 
0.042424 -0.098936 
0.049086 -0.071494 
0.047182 -0.079533 
0.042946 -0.067589 
0.026435 -0.085151 
0.025120 -0.096459 
0.027184 -0.062101 
0.027161 -0.073679 
0.033041 -0.097231 
0.030381 -0.085589 
0.034780 -0.086297 
0.036961 -0.064835 
0.036087 -0.075419 
0.031669 -0.063104 
0.050812 -0.173964 
0.052581 -0.166369 
0.056058 -0.164879 
0.045248 -0.167970 
0.048965 -0.167356 
0.043899 -0.176102 
0.058866 -0.149228 
0.053990 -0.158371 
0.055010 -0.149974 
0.030208 -0.168520 
0.033916 -0.168536 
0.029591 -0.177238 
0.042678 -0.150316 
0.038294 -0.159538 
0.038538 -0.150158 
0.036731 -0.176985 
0.037681 -0.168484 
0.041472 -0.168318 
0.059126 -0.113475 
0.055346 -0.122362 
0.054380 -0.112331 
0.055606 -0.141175 
0.055735 -0.131973 
0.060003 -0.132090 
0.046720 -0.131095 
0.051270 -0.131590 
0.047022 -0.140960 
0.046244 -0.159400 
0.046848 -0.150396 
0.050982 -0.150318 
0.006382 -0.168270 
0.003154 -0.177241 
0.012736 -0.149283 
0.009595 -0.158946 
0.009520 -0.177211 
0.009606 -0.168273 
0.012869 -0.168287 
0.023313 -0.107559 
0.021099 -0.118416 
0.022668 -0.139480 
0.022021 -0.129108 
0.025664 -0.129263 
0.018553 -0.129002 
0.015743 -0.139297 
0.022663 -0.177247 
0.023029 -0.168413 
0.026576 -0.168471 
0.016185 -0.168315 