# vtk DataFile Version 2.0
Unstructured Grid Example
ASCII
DATASET UNSTRUCTURED_GRID

POINTS 9 float
0.039635 -0.242790 0.000000 
0.960365 -0.242790 0.000000 
1.000000 1.000000 0.000000 
0.000000 1.000000 0.000000 
0.500000 -0.064677 0.000000 
0.956393 0.342605 0.000000 
0.500000 1.000000 0.000000 
0.043607 0.342605 0.000000 
0.500000 0.360283 0.000000 

CELLS 8 32
3  0 4 8 
3  4 1 8 
3  1 5 8 
3  5 2 8 
3  2 6 8 
3  6 3 8 
3  3 7 8 
3  7 0 8 

CELL_TYPES 8
5
5
5
5
5
5
5
5

POINT_DATA 9

SCALARS u_h float 2
LOOKUP_TABLE default
0.039635 -0.242790 
-0.039635 -0.242790 
0.000000 0.000000 
0.000000 0.000000 
0.000000 -0.064677 
-0.043607 -0.157395 
0.000000 0.000000 
0.043607 -0.157395 
0.000000 -0.139717 

CELL_DATA 8

SCALARS epsilon float 4
LOOKUP_TABLE default
-0.082389 -0.057381 0.000000 0.208011
-0.082389 -0.057381 0.000000 -0.208011
-0.091216 0.156807 0.000000 -0.019219
-0.085813 0.270933 0.000000 0.031661
0.000000 0.242255 0.000000 -0.000000
0.000000 0.242255 0.000000 -0.000000
-0.085813 0.270933 0.000000 -0.031661
-0.091216 0.156807 0.000000 0.019219

SCALARS sigma float 4
LOOKUP_TABLE default
-0.959313 -1.925772 -1.397703 2.053044
-0.959313 -1.925772 -1.397703 -2.053044
-0.749100 3.699985 0.655909 -0.391793
0.387445 7.851449 1.851200 0.286133
2.422553 7.792356 2.422553 -0.000000
2.422553 7.792356 2.422553 -0.000000
0.387445 7.851449 1.851200 -0.286133
-0.749100 3.699985 0.655909 0.391793

