# vtk DataFile Version 2.0
Unstructured Grid Example
ASCII
DATASET UNSTRUCTURED_GRID

POINTS 81 float
0.013484 -0.196972 0.000000 
0.986516 -0.196972 0.000000 
1.000000 1.000000 0.000000 
0.000000 1.000000 0.000000 
0.500000 -0.100000 0.000000 
0.971780 0.358529 0.000000 
0.500000 1.000000 0.000000 
0.028220 0.358529 0.000000 
0.500000 0.360811 0.000000 
0.261253 -0.177656 0.000000 
0.500000 0.104220 0.000000 
0.251242 0.077733 0.000000 
0.738747 -0.177656 0.000000 
0.748758 0.077733 0.000000 
0.989451 0.070413 0.000000 
0.738048 0.355390 0.000000 
0.956737 0.659909 0.000000 
0.731057 0.664888 0.000000 
0.750000 1.000000 0.000000 
0.500000 0.668460 0.000000 
0.250000 1.000000 0.000000 
0.268943 0.664888 0.000000 
0.043263 0.659909 0.000000 
0.261952 0.355390 0.000000 
0.010549 0.070413 0.000000 
0.137572 -0.190617 0.000000 
0.252035 -0.052125 0.000000 
0.130402 -0.062843 0.000000 
0.500000 -0.005437 0.000000 
0.373887 -0.032186 0.000000 
0.382161 -0.151298 0.000000 
0.376150 0.220882 0.000000 
0.373578 0.090952 0.000000 
0.500000 0.226787 0.000000 
0.617839 -0.151298 0.000000 
0.626113 -0.032186 0.000000 
0.869598 -0.062843 0.000000 
0.747965 -0.052125 0.000000 
0.862428 -0.190617 0.000000 
0.626422 0.090952 0.000000 
0.623850 0.220882 0.000000 
0.991520 -0.066562 0.000000 
0.869544 0.070323 0.000000 
0.855131 0.353375 0.000000 
0.863878 0.208944 0.000000 
0.981866 0.212335 0.000000 
0.744672 0.213056 0.000000 
0.619874 0.359789 0.000000 
0.962490 0.506449 0.000000 
0.847403 0.503730 0.000000 
0.851749 0.830077 0.000000 
0.843912 0.661955 0.000000 
0.960727 0.820979 0.000000 
0.732571 0.505688 0.000000 
0.616642 0.508552 0.000000 
0.875000 1.000000 0.000000 
0.736343 0.831361 0.000000 
0.500000 0.833030 0.000000 
0.618671 0.831968 0.000000 
0.625000 1.000000 0.000000 
0.616066 0.666856 0.000000 
0.500000 0.510179 0.000000 
0.375000 1.000000 0.000000 
0.381329 0.831968 0.000000 
0.148251 0.830077 0.000000 
0.263657 0.831361 0.000000 
0.125000 1.000000 0.000000 
0.383934 0.666856 0.000000 
0.383358 0.508552 0.000000 
0.039273 0.820979 0.000000 
0.156088 0.661955 0.000000 
0.144869 0.353375 0.000000 
0.152597 0.503730 0.000000 
0.037510 0.506449 0.000000 
0.267429 0.505688 0.000000 
0.380126 0.359789 0.000000 
0.018134 0.212335 0.000000 
0.136122 0.208944 0.000000 
0.130456 0.070323 0.000000 
0.008480 -0.066562 0.000000 
0.255328 0.213056 0.000000 

CELLS 128 512
3  0 25 27 
3  9 26 25 
3  11 27 26 
3  25 26 27 
3  4 28 30 
3  10 29 28 
3  9 30 29 
3  28 29 30 
3  8 31 33 
3  11 32 31 
3  10 33 32 
3  31 32 33 
3  9 29 26 
3  10 32 29 
3  11 26 32 
3  29 32 26 
3  4 34 28 
3  12 35 34 
3  10 28 35 
3  34 35 28 
3  1 36 38 
3  13 37 36 
3  12 38 37 
3  36 37 38 
3  8 33 40 
3  10 39 33 
3  13 40 39 
3  33 39 40 
3  12 37 35 
3  13 39 37 
3  10 35 39 
3  37 39 35 
3  1 41 36 
3  14 42 41 
3  13 36 42 
3  41 42 36 
3  5 43 45 
3  15 44 43 
3  14 45 44 
3  43 44 45 
3  8 40 47 
3  13 46 40 
3  15 47 46 
3  40 46 47 
3  14 44 42 
3  15 46 44 
3  13 42 46 
3  44 46 42 
3  5 48 43 
3  16 49 48 
3  15 43 49 
3  48 49 43 
3  2 50 52 
3  17 51 50 
3  16 52 51 
3  50 51 52 
3  8 47 54 
3  15 53 47 
3  17 54 53 
3  47 53 54 
3  16 51 49 
3  17 53 51 
3  15 49 53 
3  51 53 49 
3  2 55 50 
3  18 56 55 
3  17 50 56 
3  55 56 50 
3  6 57 59 
3  19 58 57 
3  18 59 58 
3  57 58 59 
3  8 54 61 
3  17 60 54 
3  19 61 60 
3  54 60 61 
3  18 58 56 
3  19 60 58 
3  17 56 60 
3  58 60 56 
3  6 62 57 
3  20 63 62 
3  19 57 63 
3  62 63 57 
3  3 64 66 
3  21 65 64 
3  20 66 65 
3  64 65 66 
3  8 61 68 
3  19 67 61 
3  21 68 67 
3  61 67 68 
3  20 65 63 
3  21 67 65 
3  19 63 67 
3  65 67 63 
3  3 69 64 
3  22 70 69 
3  21 64 70 
3  69 70 64 
3  7 71 73 
3  23 72 71 
3  22 73 72 
3  71 72 73 
3  8 68 75 
3  21 74 68 
3  23 75 74 
3  68 74 75 
3  22 72 70 
3  23 74 72 
3  21 70 74 
3  72 74 70 
3  7 76 71 
3  24 77 76 
3  23 71 77 
3  76 77 71 
3  0 27 79 
3  11 78 27 
3  24 79 78 
3  27 78 79 
3  8 75 31 
3  23 80 75 
3  11 31 80 
3  75 80 31 
3  24 78 77 
3  11 80 78 
3  23 77 80 
3  78 80 77 

CELL_TYPES 128
5
5
5
5
5
5
5
5
5
5
5
5
5
5
5
5
5
5
5
5
5
5
5
5
5
5
5
5
5
5
5
5
5
5
5
5
5
5
5
5
5
5
5
5
5
5
5
5
5
5
5
5
5
5
5
5
5
5
5
5
5
5
5
5
5
5
5
5
5
5
5
5
5
5
5
5
5
5
5
5
5
5
5
5
5
5
5
5
5
5
5
5
5
5
5
5
5
5
5
5
5
5
5
5
5
5
5
5
5
5
5
5
5
5
5
5
5
5
5
5
5
5
5
5
5
5
5
5

POINT_DATA 81

SCALARS u_h float 2
LOOKUP_TABLE default
0.013484 -0.196972 
-0.013484 -0.196972 
0.000000 0.000000 
0.000000 0.000000 
-0.000000 -0.100000 
-0.028220 -0.141471 
0.000000 0.000000 
0.028220 -0.141471 
-0.000000 -0.139189 
0.011253 -0.177656 
-0.000000 -0.145780 
0.001242 -0.172267 
-0.011253 -0.177656 
-0.001242 -0.172267 
-0.010549 -0.179587 
-0.011952 -0.144610 
-0.043263 -0.090091 
-0.018943 -0.085112 
0.000000 0.000000 
-0.000000 -0.081540 
0.000000 0.000000 
0.018943 -0.085112 
0.043263 -0.090091 
0.011952 -0.144610 
0.010549 -0.179587 
0.012572 -0.190617 
0.002035 -0.177125 
0.005402 -0.187843 
-0.000000 -0.130437 
-0.001113 -0.157186 
0.007161 -0.151298 
0.001150 -0.154118 
-0.001422 -0.159048 
-0.000000 -0.148213 
-0.007161 -0.151298 
0.001113 -0.157186 
-0.005402 -0.187843 
-0.002035 -0.177125 
-0.012572 -0.190617 
0.001422 -0.159048 
-0.001150 -0.154118 
-0.008480 -0.191562 
-0.005456 -0.179677 
-0.019869 -0.146625 
-0.011122 -0.166056 
-0.018134 -0.162665 
-0.005328 -0.161944 
-0.005126 -0.140211 
-0.037510 -0.118551 
-0.027597 -0.121270 
-0.023251 -0.044923 
-0.031088 -0.088045 
-0.039273 -0.054021 
-0.017429 -0.119312 
-0.008358 -0.116448 
0.000000 0.000000 
-0.013657 -0.043639 
0.000000 -0.041970 
-0.006329 -0.043032 
0.000000 0.000000 
-0.008934 -0.083144 
0.000000 -0.114821 
0.000000 0.000000 
0.006329 -0.043032 
0.023251 -0.044923 
0.013657 -0.043639 
0.000000 0.000000 
0.008934 -0.083144 
0.008358 -0.116448 
0.039273 -0.054021 
0.031088 -0.088045 
0.019869 -0.146625 
0.027597 -0.121270 
0.037510 -0.118551 
0.017429 -0.119312 
0.005126 -0.140211 
0.018134 -0.162665 
0.011122 -0.166056 
0.005456 -0.179677 
0.008480 -0.191562 
0.005328 -0.161944 

CELL_DATA 128

SCALARS epsilon float 4
LOOKUP_TABLE default
-0.002860 0.026065 0.000000 -0.004008
-0.000235 0.017265 0.000000 0.014370
-0.026740 0.042241 0.000000 0.037983
-0.020721 0.030558 0.000000 0.012466
-0.058922 -0.104505 0.000000 0.270235
0.008867 -0.100901 0.000000 0.121959
-0.015749 -0.007817 0.000000 0.076427
0.025791 -0.009554 0.000000 0.079460
-0.009243 0.070587 0.000000 0.022027
-0.023476 0.041951 0.000000 0.061337
0.011311 -0.013927 0.000000 0.054120
-0.009988 0.038775 0.000000 0.033091
-0.010798 0.029140 0.000000 0.041589
0.011577 -0.009072 0.000000 0.052648
-0.020863 0.044170 0.000000 0.047636
-0.025093 -0.000813 0.000000 0.079641
-0.058922 -0.104505 0.000000 -0.270235
-0.015749 -0.007817 0.000000 -0.076427
0.008867 -0.100901 0.000000 -0.121959
0.025791 -0.009554 0.000000 -0.079460
-0.002860 0.026065 0.000000 0.004008
-0.026740 0.042241 0.000000 -0.037983
-0.000235 0.017265 0.000000 -0.014370
-0.020721 0.030558 0.000000 -0.012466
-0.009243 0.070587 0.000000 -0.022027
0.011311 -0.013927 0.000000 -0.054120
-0.023476 0.041951 0.000000 -0.061337
-0.009988 0.038775 0.000000 -0.033091
-0.010798 0.029140 0.000000 -0.041589
-0.020863 0.044170 0.000000 -0.047636
0.011577 -0.009072 0.000000 -0.052648
-0.025093 -0.000813 0.000000 -0.079641
-0.022984 0.043940 0.000000 0.006234
-0.041439 0.091257 0.000000 -0.008235
-0.034298 0.064838 0.000000 -0.028009
-0.024937 0.063603 0.000000 -0.014173
-0.063281 0.159167 0.000000 -0.024747
-0.064277 0.142671 0.000000 -0.043629
-0.054531 0.128178 0.000000 -0.019766
-0.053874 0.145599 0.000000 -0.024680
-0.041642 0.104917 0.000000 -0.020088
-0.035446 0.079041 0.000000 -0.045691
-0.056610 0.128025 0.000000 -0.043020
-0.035394 0.104997 0.000000 -0.044424
-0.040636 0.103116 0.000000 -0.023078
-0.047833 0.128075 0.000000 -0.041789
-0.035636 0.078959 0.000000 -0.044160
-0.047911 0.102173 0.000000 -0.038338
-0.064017 0.170350 0.000000 -0.021493
-0.080715 0.203689 0.000000 -0.015334
-0.064707 0.182097 0.000000 -0.038740
-0.079662 0.184225 0.000000 -0.023631
-0.087871 0.365353 0.000000 0.137380
-0.099299 0.290709 0.000000 0.023793
-0.101269 0.249543 0.000000 0.010514
-0.130990 0.294929 0.000000 0.007027
-0.041772 0.172342 0.000000 -0.016567
-0.056706 0.181646 0.000000 -0.037108
-0.075366 0.237866 0.000000 -0.015169
-0.075444 0.172189 0.000000 -0.023153
-0.102186 0.231750 0.000000 -0.021179
-0.102014 0.237874 0.000000 -0.015505
-0.084459 0.181982 0.000000 -0.029636
-0.084715 0.231761 0.000000 -0.020668
0.009362 0.299317 0.000000 0.086505
0.003279 0.292254 0.000000 0.050971
-0.078736 0.280524 0.000000 0.017647
-0.067217 0.300764 0.000000 0.089885
0.000000 0.282952 0.000000 -0.000000
-0.051908 0.269378 0.000000 -0.003219
0.000709 0.288887 0.000000 0.023655
-0.050785 0.289224 0.000000 0.021760
-0.069086 0.176519 0.000000 -0.005419
-0.083310 0.232544 0.000000 -0.008562
-0.074007 0.232429 0.000000 -0.005036
-0.069128 0.232525 0.000000 -0.007472
-0.056227 0.292651 0.000000 0.052343
-0.073646 0.272705 0.000000 0.005730
-0.082122 0.280750 0.000000 0.015684
-0.060118 0.272529 0.000000 0.008583
0.000000 0.282952 0.000000 -0.000000
0.000709 0.288887 0.000000 -0.023655
-0.051908 0.269378 0.000000 0.003219
-0.050785 0.289224 0.000000 -0.021760
0.009362 0.299317 0.000000 -0.086505
-0.078736 0.280524 0.000000 -0.017647
0.003279 0.292254 0.000000 -0.050971
-0.067217 0.300764 0.000000 -0.089885
-0.069086 0.176519 0.000000 0.005419
-0.074007 0.232429 0.000000 0.005036
-0.083310 0.232544 0.000000 0.008562
-0.069128 0.232525 0.000000 0.007472
-0.056227 0.292651 0.000000 -0.052343
-0.082122 0.280750 0.000000 -0.015684
-0.073646 0.272705 0.000000 -0.005730
-0.060118 0.272529 0.000000 -0.008583
-0.087871 0.365353 0.000000 -0.137380
-0.101269 0.249543 0.000000 -0.010514
-0.099299 0.290709 0.000000 -0.023793
-0.130990 0.294929 0.000000 -0.007027
-0.064017 0.170350 0.000000 0.021493
-0.064707 0.182097 0.000000 0.038740
-0.080715 0.203689 0.000000 0.015334
-0.079662 0.184225 0.000000 0.023631
-0.041772 0.172342 0.000000 0.016567
-0.075366 0.237866 0.000000 0.015169
-0.056706 0.181646 0.000000 0.037108
-0.075444 0.172189 0.000000 0.023153
-0.102186 0.231750 0.000000 0.021179
-0.084459 0.181982 0.000000 0.029636
-0.102014 0.237874 0.000000 0.015505
-0.084715 0.231761 0.000000 0.020668
-0.063281 0.159167 0.000000 0.024747
-0.054531 0.128178 0.000000 0.019766
-0.064277 0.142671 0.000000 0.043629
-0.053874 0.145599 0.000000 0.024680
-0.022984 0.043940 0.000000 -0.006234
-0.034298 0.064838 0.000000 0.028009
-0.041439 0.091257 0.000000 0.008235
-0.024937 0.063603 0.000000 0.014173
-0.041642 0.104917 0.000000 0.020088
-0.056610 0.128025 0.000000 0.043020
-0.035446 0.079041 0.000000 0.045691
-0.035394 0.104997 0.000000 0.044424
-0.040636 0.103116 0.000000 0.023078
-0.035636 0.078959 0.000000 0.044160
-0.047833 0.128075 0.000000 0.041789
-0.047911 0.102173 0.000000 0.038338

SCALARS sigma float 4
LOOKUP_TABLE default
0.180014 0.643401 0.230232 -0.029601
0.178562 0.416636 0.166086 0.267132
-0.340252 0.714541 0.103567 0.644904
-0.250245 0.548501 0.082604 0.241382
-4.192773 -10.913532 -2.971657 4.718592
-1.080761 -3.918073 -1.235716 1.982621
-0.517512 -0.779650 -0.350013 1.220735
0.525402 -0.413007 0.031167 1.246181
0.443200 1.622816 0.590677 0.364637
-0.323300 0.648575 0.089806 1.017165
0.096528 -0.418550 -0.087890 0.877691
0.084905 0.838672 0.258224 0.531360
0.015448 0.495139 0.142538 0.728868
0.157700 -0.276211 -0.032482 0.852923
-0.171717 0.780490 0.169259 0.803054
-0.813971 -0.630361 -0.385511 1.338519
-4.192773 -10.913532 -2.971657 -4.718592
-0.517512 -0.779650 -0.350013 -1.220735
-1.080761 -3.918073 -1.235716 -1.982621
0.525402 -0.413007 0.031167 -1.246181
0.180014 0.643401 0.230232 0.029601
-0.340252 0.714541 0.103567 -0.644904
0.178562 0.416636 0.166086 -0.267132
-0.250245 0.548501 0.082604 -0.241382
0.443200 1.622816 0.590677 -0.364637
0.096528 -0.418550 -0.087890 -0.877691
-0.323300 0.648575 0.089806 -1.017165
0.084905 0.838672 0.258224 -0.531360
0.015448 0.495139 0.142538 -0.728868
-0.171717 0.780490 0.169259 -0.803054
0.157700 -0.276211 -0.032482 -0.852923
-0.813971 -0.630361 -0.385511 -1.338519
-0.196709 0.873999 0.188589 0.069566
-0.271909 1.763674 0.421190 -0.112044
-0.328932 1.207203 0.245233 -0.475434
-0.059642 1.307052 0.350920 -0.237911
-0.341196 2.930692 0.745165 -0.203758
-0.572373 2.552368 0.562455 -0.590927
-0.341081 2.405899 0.588860 -0.199701
-0.167581 2.765763 0.748188 -0.241516
-0.161557 2.050897 0.537296 -0.280280
-0.275533 1.480452 0.338170 -0.729704
-0.455041 2.330929 0.532193 -0.628015
-0.018603 2.060846 0.582235 -0.692706
-0.157444 2.022841 0.530347 -0.305235
-0.178619 2.434286 0.644966 -0.596349
-0.278262 1.482396 0.337958 -0.703717
-0.416398 1.889725 0.415316 -0.576502
-0.251013 3.141302 0.835987 -0.152114
-0.476381 3.573632 0.896224 -0.115967
-0.196436 3.328767 0.908231 -0.485823
-0.637448 3.220389 0.740951 -0.227264
-0.123702 5.933590 1.755274 0.900658
-0.356701 4.848179 1.325432 0.156884
-0.772277 4.139976 0.975107 0.065948
-1.496868 4.520895 0.865741 -0.146407
0.486829 3.433282 1.156224 -0.202595
0.069982 3.409165 1.015861 -0.507002
0.025792 4.246963 1.261861 -0.222700
-0.595200 3.031051 0.696920 -0.335082
-0.975843 3.810682 0.813042 -0.285044
-0.904535 3.922770 0.868458 -0.238706
-0.825430 3.107644 0.650263 -0.398211
-0.358821 4.022982 1.069248 -0.265965
2.993167 6.249718 2.993167 0.563501
2.922538 6.129386 2.922538 0.339533
0.295020 4.939679 1.569907 0.130389
0.538136 5.300884 1.769546 0.750850
2.829519 5.969445 2.829519 -0.000000
1.102335 5.088691 1.894836 -0.055767
2.888870 6.071690 2.888870 0.159253
1.305918 5.432762 2.081154 0.149313
-0.326551 3.201368 0.829851 -0.095733
-0.288465 4.061113 1.103415 -0.136224
0.028147 4.173100 1.239691 -0.089472
0.190961 4.233107 1.311363 -0.114234
1.065198 5.386016 1.980352 0.421322
0.410640 4.875511 1.588264 0.012088
0.182030 4.902464 1.520253 0.096451
0.860592 5.039971 1.794956 0.060049
2.829519 5.969445 2.829519 -0.000000
2.888870 6.071690 2.888870 -0.159253
1.102335 5.088691 1.894836 0.055767
1.305918 5.432762 2.081154 -0.149313
2.993167 6.249718 2.993167 -0.563501
0.295020 4.939679 1.569907 -0.130389
2.922538 6.129386 2.922538 -0.339533
0.538136 5.300884 1.769546 -0.750850
-0.326551 3.201368 0.829851 0.095733
0.028147 4.173100 1.239691 0.089472
-0.288465 4.061113 1.103415 0.136224
0.190961 4.233107 1.311363 0.114234
1.065198 5.386016 1.980352 -0.421322
0.182030 4.902464 1.520253 -0.096451
0.410640 4.875511 1.588264 -0.012088
0.860592 5.039971 1.794956 -0.060049
-0.123702 5.933590 1.755274 -0.900658
-0.772277 4.139976 0.975107 -0.065948
-0.356701 4.848179 1.325432 -0.156884
-1.496868 4.520895 0.865741 0.146407
-0.251013 3.141302 0.835987 0.152114
-0.196436 3.328767 0.908231 0.485823
-0.476381 3.573632 0.896224 0.115967
-0.637448 3.220389 0.740951 0.227264
0.486829 3.433282 1.156224 0.202595
0.025792 4.246963 1.261861 0.222700
0.069982 3.409165 1.015861 0.507002
-0.595200 3.031051 0.696920 0.335082
-0.975843 3.810682 0.813042 0.285044
-0.825430 3.107644 0.650263 0.398211
-0.904535 3.922770 0.868458 0.238706
-0.358821 4.022982 1.069248 0.265965
-0.341196 2.930692 0.745165 0.203758
-0.341081 2.405899 0.588860 0.199701
-0.572373 2.552368 0.562455 0.590927
-0.167581 2.765763 0.748188 0.241516
-0.196709 0.873999 0.188589 -0.069566
-0.328932 1.207203 0.245233 0.475434
-0.271909 1.763674 0.421190 0.112044
-0.059642 1.307052 0.350920 0.237911
-0.161557 2.050897 0.537296 0.280280
-0.455041 2.330929 0.532193 0.628015
-0.275533 1.480452 0.338170 0.729704
-0.018603 2.060846 0.582235 0.692706
-0.157444 2.022841 0.530347 0.305235
-0.278262 1.482396 0.337958 0.703717
-0.178619 2.434286 0.644966 0.596349
-0.416398 1.889725 0.415316 0.576502

