# vtk DataFile Version 2.0
Unstructured Grid Example
ASCII
DATASET UNSTRUCTURED_GRID

POINTS 4225 float
0.016079 -0.212465 0.000000 
0.983921 -0.212465 0.000000 
1.000000 1.000000 0.000000 
0.000000 1.000000 0.000000 
0.500000 -0.100000 0.000000 
0.968910 0.347082 0.000000 
0.500000 1.000000 0.000000 
0.031090 0.347082 0.000000 
0.500000 0.349075 0.000000 
0.268886 -0.198390 0.000000 
0.500000 0.083670 0.000000 
0.252513 0.062169 0.000000 
0.731114 -0.198390 0.000000 
0.747487 0.062169 0.000000 
0.986104 0.054851 0.000000 
0.736812 0.343387 0.000000 
0.951131 0.654698 0.000000 
0.727937 0.657713 0.000000 
0.750000 1.000000 0.000000 
0.500000 0.660391 0.000000 
0.250000 1.000000 0.000000 
0.272063 0.657713 0.000000 
0.048869 0.654698 0.000000 
0.263188 0.343387 0.000000 
0.013896 0.054851 0.000000 
0.141501 -0.208499 0.000000 
0.255517 -0.070914 0.000000 
0.135024 -0.080274 0.000000 
0.500000 -0.027050 0.000000 
0.373696 -0.049609 0.000000 
0.395719 -0.172443 0.000000 
0.377002 0.206568 0.000000 
0.373505 0.075349 0.000000 
0.500000 0.210212 0.000000 
0.604281 -0.172443 0.000000 
0.626304 -0.049609 0.000000 
0.864976 -0.080274 0.000000 
0.744483 -0.070914 0.000000 
0.858499 -0.208499 0.000000 
0.626495 0.075349 0.000000 
0.622998 0.206568 0.000000 
0.986775 -0.083201 0.000000 
0.866824 0.054812 0.000000 
0.853309 0.341540 0.000000 
0.862028 0.195364 0.000000 
0.979452 0.198999 0.000000 
0.743480 0.199476 0.000000 
0.619016 0.347297 0.000000 
0.958095 0.498716 0.000000 
0.844379 0.494353 0.000000 
0.846205 0.825410 0.000000 
0.839566 0.655172 0.000000 
0.954755 0.816296 0.000000 
0.730530 0.495854 0.000000 
0.615710 0.498457 0.000000 
0.875000 1.000000 0.000000 
0.733504 0.827700 0.000000 
0.500000 0.828658 0.000000 
0.617475 0.828418 0.000000 
0.625000 1.000000 0.000000 
0.614591 0.659652 0.000000 
0.500000 0.499617 0.000000 
0.375000 1.000000 0.000000 
0.382525 0.828418 0.000000 
0.153795 0.825410 0.000000 
0.266496 0.827700 0.000000 
0.125000 1.000000 0.000000 
0.385409 0.659652 0.000000 
0.384290 0.498457 0.000000 
0.045245 0.816296 0.000000 
0.160434 0.655172 0.000000 
0.146691 0.341540 0.000000 
0.155621 0.494353 0.000000 
0.041905 0.498716 0.000000 
0.269470 0.495854 0.000000 
0.380984 0.347297 0.000000 
0.020548 0.198999 0.000000 
0.137972 0.195364 0.000000 
0.133176 0.054812 0.000000 
0.013225 -0.083201 0.000000 
0.256520 0.199476 0.000000 
0.078543 -0.210791 0.000000 
0.138145 -0.145362 0.000000 
0.076307 -0.147461 0.000000 
0.261162 -0.135744 0.000000 
0.199873 -0.141745 0.000000 
0.205011 -0.204673 0.000000 
0.193160 -0.010207 0.000000 
0.195562 -0.076758 0.000000 
0.252787 -0.004814 0.000000 
0.500000 -0.072068 0.000000 
0.436646 -0.090380 0.000000 
0.453420 -0.144859 0.000000 
0.434995 0.021701 0.000000 
0.434398 -0.035125 0.000000 
0.500000 0.025852 0.000000 
0.332763 -0.188418 0.000000 
0.379836 -0.111766 0.000000 
0.321435 -0.126295 0.000000 
0.439353 0.277522 0.000000 
0.438268 0.209225 0.000000 
0.500000 0.278194 0.000000 
0.312531 0.068377 0.000000 
0.375107 0.139887 0.000000 
0.314111 0.134911 0.000000 
0.500000 0.145291 0.000000 
0.437159 0.143794 0.000000 
0.436048 0.081273 0.000000 
0.314756 -0.062027 0.000000 
0.372630 0.012468 0.000000 
0.312349 0.002897 0.000000 
0.546580 -0.144859 0.000000 
0.563354 -0.090380 0.000000 
0.678565 -0.126295 0.000000 
0.620164 -0.111766 0.000000 
0.667237 -0.188418 0.000000 
0.565602 -0.035125 0.000000 
0.565005 0.021701 0.000000 
0.923693 -0.147461 0.000000 
0.861855 -0.145362 0.000000 
0.921457 -0.210791 0.000000 
0.747213 -0.004814 0.000000 
0.804438 -0.076758 0.000000 
0.806840 -0.010207 0.000000 
0.794989 -0.204673 0.000000 
0.800127 -0.141745 0.000000 
0.738838 -0.135744 0.000000 
0.561732 0.209225 0.000000 
0.560647 0.277522 0.000000 
0.563952 0.081273 0.000000 
0.562841 0.143794 0.000000 
0.685889 0.134911 0.000000 
0.624893 0.139887 0.000000 
0.687469 0.068377 0.000000 
0.685244 -0.062027 0.000000 
0.687651 0.002897 0.000000 
0.627370 0.012468 0.000000 
0.985455 -0.148943 0.000000 
0.925852 -0.082161 0.000000 
0.926540 0.053917 0.000000 
0.926982 -0.014966 0.000000 
0.987169 -0.015152 0.000000 
0.866782 -0.013466 0.000000 
0.807159 0.057565 0.000000 
0.911213 0.342992 0.000000 
0.916343 0.268836 0.000000 
0.974454 0.272587 0.000000 
0.799263 0.268451 0.000000 
0.857934 0.267696 0.000000 
0.795193 0.341902 0.000000 
0.983463 0.126355 0.000000 
0.920901 0.195931 0.000000 
0.924434 0.124268 0.000000 
0.620996 0.275655 0.000000 
0.559607 0.348664 0.000000 
0.746038 0.130158 0.000000 
0.683568 0.203018 0.000000 
0.678097 0.345375 0.000000 
0.680882 0.273083 0.000000 
0.740279 0.270459 0.000000 
0.865135 0.124427 0.000000 
0.802911 0.196722 0.000000 
0.805697 0.126496 0.000000 
0.963305 0.422392 0.000000 
0.905999 0.418469 0.000000 
0.897332 0.573916 0.000000 
0.901188 0.495388 0.000000 
0.953816 0.576116 0.000000 
0.848630 0.417039 0.000000 
0.791137 0.417271 0.000000 
0.913482 0.910851 0.000000 
0.900664 0.822131 0.000000 
0.965407 0.900870 0.000000 
0.783931 0.656450 0.000000 
0.840761 0.739080 0.000000 
0.785431 0.740751 0.000000 
0.950959 0.734635 0.000000 
0.895672 0.736830 0.000000 
0.895144 0.654280 0.000000 
0.617193 0.421562 0.000000 
0.558665 0.422615 0.000000 
0.733439 0.418469 0.000000 
0.675466 0.420057 0.000000 
0.671808 0.576849 0.000000 
0.673263 0.497218 0.000000 
0.728521 0.575614 0.000000 
0.841116 0.573663 0.000000 
0.784917 0.574428 0.000000 
0.787538 0.494732 0.000000 
0.937500 1.000000 0.000000 
0.857678 0.913310 0.000000 
0.740525 0.914095 0.000000 
0.799630 0.913919 0.000000 
0.812500 1.000000 0.000000 
0.790422 0.826938 0.000000 
0.729398 0.741924 0.000000 
0.500000 0.914230 0.000000 
0.560424 0.914209 0.000000 
0.562500 1.000000 0.000000 
0.557811 0.743706 0.000000 
0.558825 0.828585 0.000000 
0.500000 0.743844 0.000000 
0.687500 1.000000 0.000000 
0.620736 0.914188 0.000000 
0.680818 0.914157 0.000000 
0.557920 0.499309 0.000000 
0.500000 0.422986 0.000000 
0.671481 0.658807 0.000000 
0.614764 0.577894 0.000000 
0.500000 0.578844 0.000000 
0.557454 0.578590 0.000000 
0.557380 0.660192 0.000000 
0.675770 0.828140 0.000000 
0.615435 0.743346 0.000000 
0.672687 0.742761 0.000000 
0.437500 1.000000 0.000000 
0.439576 0.914209 0.000000 
0.319182 0.914157 0.000000 
0.379264 0.914188 0.000000 
0.312500 1.000000 0.000000 
0.441175 0.828585 0.000000 
0.442189 0.743706 0.000000 
0.086518 0.910851 0.000000 
0.142322 0.913310 0.000000 
0.062500 1.000000 0.000000 
0.270602 0.741924 0.000000 
0.209578 0.826938 0.000000 
0.214569 0.740751 0.000000 
0.187500 1.000000 0.000000 
0.200370 0.913919 0.000000 
0.259475 0.914095 0.000000 
0.442080 0.499309 0.000000 
0.441335 0.422615 0.000000 
0.442620 0.660192 0.000000 
0.442546 0.578590 0.000000 
0.328192 0.576849 0.000000 
0.385236 0.577894 0.000000 
0.328519 0.658807 0.000000 
0.324230 0.828140 0.000000 
0.327313 0.742761 0.000000 
0.384565 0.743346 0.000000 
0.034593 0.900870 0.000000 
0.099336 0.822131 0.000000 
0.104856 0.654280 0.000000 
0.104328 0.736830 0.000000 
0.049041 0.734635 0.000000 
0.159239 0.739080 0.000000 
0.216069 0.656450 0.000000 
0.088787 0.342992 0.000000 
0.094001 0.418469 0.000000 
0.036695 0.422392 0.000000 
0.208863 0.417271 0.000000 
0.151370 0.417039 0.000000 
0.204807 0.341902 0.000000 
0.046184 0.576116 0.000000 
0.098812 0.495388 0.000000 
0.102668 0.573916 0.000000 
0.382807 0.421562 0.000000 
0.440393 0.348664 0.000000 
0.271479 0.575614 0.000000 
0.326737 0.497218 0.000000 
0.321903 0.345375 0.000000 
0.324534 0.420057 0.000000 
0.266561 0.418469 0.000000 
0.158884 0.573663 0.000000 
0.212462 0.494732 0.000000 
0.215083 0.574428 0.000000 
0.025546 0.272587 0.000000 
0.083657 0.268836 0.000000 
0.075566 0.124268 0.000000 
0.079099 0.195931 0.000000 
0.016537 0.126355 0.000000 
0.142066 0.267696 0.000000 
0.200737 0.268451 0.000000 
0.074148 -0.082161 0.000000 
0.014545 -0.148943 0.000000 
0.192841 0.057565 0.000000 
0.133218 -0.013466 0.000000 
0.012831 -0.015152 0.000000 
0.073018 -0.014966 0.000000 
0.073460 0.053917 0.000000 
0.379004 0.275655 0.000000 
0.259721 0.270459 0.000000 
0.319118 0.273083 0.000000 
0.316432 0.203018 0.000000 
0.253962 0.130158 0.000000 
0.134865 0.124427 0.000000 
0.194303 0.126496 0.000000 
0.197089 0.196722 0.000000 
0.047271 -0.211643 0.000000 
0.077488 -0.179364 0.000000 
0.046374 -0.180176 0.000000 
0.139886 -0.177182 0.000000 
0.108658 -0.178406 0.000000 
0.109948 -0.209781 0.000000 
0.105828 -0.114199 0.000000 
0.107226 -0.146547 0.000000 
0.136472 -0.113050 0.000000 
0.264900 -0.167398 0.000000 
0.233714 -0.170807 0.000000 
0.236920 -0.201903 0.000000 
0.227848 -0.106857 0.000000 
0.230601 -0.139101 0.000000 
0.257981 -0.103538 0.000000 
0.173195 -0.206833 0.000000 
0.202447 -0.173493 0.000000 
0.171158 -0.175581 0.000000 
0.222578 0.025797 0.000000 
0.223007 -0.007796 0.000000 
0.252390 0.028568 0.000000 
0.165352 -0.078764 0.000000 
0.194095 -0.043650 0.000000 
0.164059 -0.045607 0.000000 
0.253801 -0.037983 0.000000 
0.224010 -0.041130 0.000000 
0.225626 -0.074171 0.000000 
0.169039 -0.143796 0.000000 
0.197521 -0.109479 0.000000 
0.167049 -0.111510 0.000000 
0.500000 -0.089104 0.000000 
0.468675 -0.101814 0.000000 
0.476241 -0.123759 0.000000 
0.466325 -0.054633 0.000000 
0.466581 -0.078713 0.000000 
0.500000 -0.050892 0.000000 
0.425888 -0.160694 0.000000 
0.441736 -0.118007 0.000000 
0.414752 -0.131803 0.000000 
0.467589 0.053422 0.000000 
0.467250 0.024748 0.000000 
0.500000 0.054237 0.000000 
0.403603 -0.042336 0.000000 
0.434578 -0.007018 0.000000 
0.403267 -0.012596 0.000000 
0.500000 -0.001328 0.000000 
0.466899 -0.002882 0.000000 
0.466558 -0.029369 0.000000 
0.300858 -0.193969 0.000000 
0.326662 -0.157761 0.000000 
0.295924 -0.163115 0.000000 
0.386415 -0.142596 0.000000 
0.356922 -0.151056 0.000000 
0.364472 -0.181411 0.000000 
0.346757 -0.088096 0.000000 
0.350922 -0.119799 0.000000 
0.375828 -0.080667 0.000000 
0.434808 -0.062814 0.000000 
0.404964 -0.072057 0.000000 
0.408231 -0.101929 0.000000 
[...]
POINT_DATA 4225

SCALARS u_h float 2
LOOKUP_TABLE default
0.016079 -0.212465 
-0.016079 -0.212465 
0.000000 0.000000 
0.000000 0.000000 
0.000000 -0.100000 
-0.031090 -0.152918 
0.000000 0.000000 
0.031090 -0.152918 
0.000000 -0.150925 
0.018886 -0.198390 
-0.000000 -0.166330 
0.002513 -0.187831 
-0.018886 -0.198390 
-0.002513 -0.187831 
-0.013896 -0.195149 
-0.013188 -0.156613 
-0.048869 -0.095302 
-0.022063 -0.092287 
0.000000 0.000000 
0.000000 -0.089609 
0.000000 0.000000 
0.022063 -0.092287 
0.048869 -0.095302 
0.013188 -0.156613 
0.013896 -0.195149 
0.016501 -0.208499 
0.005517 -0.195914 
0.010024 -0.205274 
-0.000000 -0.152050 
-0.001304 -0.174609 
0.020719 -0.172443 
0.002002 -0.168432 
-0.001495 -0.174651 
0.000000 -0.164788 
-0.020719 -0.172443 
0.001304 -0.174609 
-0.010024 -0.205274 
-0.005517 -0.195914 
-0.016501 -0.208499 
0.001495 -0.174651 
-0.002002 -0.168432 
-0.013225 -0.208201 
-0.008176 -0.195188 
-0.021691 -0.158460 
-0.012972 -0.179636 
-0.020548 -0.176001 
-0.006520 -0.175524 
-0.005984 -0.152703 
-0.041905 -0.126284 
-0.030621 -0.130647 
-0.028795 -0.049590 
-0.035434 -0.094828 
-0.045245 -0.058704 
-0.019470 -0.129146 
-0.009290 -0.126543 
0.000000 0.000000 
-0.016496 -0.047300 
0.000000 -0.046342 
-0.007525 -0.046582 
0.000000 0.000000 
-0.010409 -0.090348 
0.000000 -0.125383 
0.000000 0.000000 
0.007525 -0.046582 
0.028795 -0.049590 
0.016496 -0.047300 
0.000000 0.000000 
0.010409 -0.090348 
0.009290 -0.126543 
0.045245 -0.058704 
0.035434 -0.094828 
0.021691 -0.158460 
0.030621 -0.130647 
0.041905 -0.126284 
0.019470 -0.129146 
0.005984 -0.152703 
0.020548 -0.176001 
0.012972 -0.179636 
0.008176 -0.195188 
0.013225 -0.208201 
0.006520 -0.175524 
0.016043 -0.210791 
0.013145 -0.207862 
0.013807 -0.209961 
0.011162 -0.198244 
0.012373 -0.204245 
0.017511 -0.204673 
0.005660 -0.197707 
0.008062 -0.201758 
0.002787 -0.192314 
-0.000000 -0.134568 
-0.000854 -0.152880 
0.015920 -0.144859 
-0.002505 -0.165799 
-0.003102 -0.160125 
-0.000000 -0.161648 
0.020263 -0.188418 
0.004836 -0.174266 
0.008935 -0.188795 
0.001853 -0.159978 
0.000768 -0.165775 
0.000000 -0.159306 
0.000031 -0.181623 
0.000107 -0.172613 
0.001611 -0.177589 
0.000000 -0.167209 
-0.000341 -0.168706 
-0.001452 -0.168727 
0.002256 -0.187027 
-0.002370 -0.175032 
-0.000151 -0.184603 
-0.015920 -0.144859 
0.000854 -0.152880 
-0.008935 -0.188795 
-0.004836 -0.174266 
-0.020263 -0.188418 
0.003102 -0.160125 
0.002505 -0.165799 
-0.013807 -0.209961 
-0.013145 -0.207862 
-0.016043 -0.210791 
-0.002787 -0.192314 
-0.008062 -0.201758 
-0.005660 -0.197707 
-0.017511 -0.204673 
-0.012373 -0.204245 
-0.011162 -0.198244 
-0.000768 -0.165775 
-0.001853 -0.159978 
0.001452 -0.168727 
0.000341 -0.168706 
-0.001611 -0.177589 
-0.000107 -0.172613 
-0.000031 -0.181623 
-0.002256 -0.187027 
0.000151 -0.184603 
0.002370 -0.175032 
-0.014545 -0.211443 
-0.011648 -0.207161 
-0.010960 -0.196083 
-0.010518 -0.202466 
-0.012831 -0.202652 
-0.008218 -0.200966 
-0.005341 -0.192435 
-0.026287 -0.157008 
-0.021157 -0.168664 
-0.025546 -0.164913 
-0.013237 -0.169049 
-0.017066 -0.169804 
-0.017307 -0.158098 
-0.016537 -0.186145 
-0.016599 -0.179069 
-0.013066 -0.188232 
-0.004004 -0.161845 
-0.002893 -0.151336 
-0.003962 -0.182342 
-0.003932 -0.171982 
-0.009403 -0.154625 
-0.006618 -0.164417 
-0.009721 -0.167041 
-0.009865 -0.188073 
-0.009589 -0.178278 
-0.006803 -0.186004 
-0.036695 -0.140108 
-0.031501 -0.144031 
-0.040168 -0.113584 
-0.036312 -0.129612 
-0.046184 -0.111384 
-0.026370 -0.145461 
-0.021363 -0.145229 
-0.024018 -0.026649 
-0.036836 -0.052869 
-0.034593 -0.036630 
-0.028569 -0.093550 
-0.034239 -0.073420 
-0.027069 -0.071749 
-0.049041 -0.077865 
-0.041828 -0.075670 
-0.042356 -0.095720 
-0.007807 -0.140938 
-0.003835 -0.139885 
-0.016561 -0.144031 
-0.012034 -0.142443 
-0.015692 -0.110651 
-0.014237 -0.127782 
-0.021479 -0.111886 
-0.033884 -0.113837 
-0.027583 -0.113072 
-0.024962 -0.130268 
0.000000 0.000000 
-0.017322 -0.024190 
-0.009475 -0.023405 
-0.012870 -0.023581 
0.000000 0.000000 
-0.022078 -0.048062 
-0.020602 -0.070576 
0.000000 -0.023270 
-0.002076 -0.023291 
0.000000 0.000000 
-0.004689 -0.068794 
-0.003675 -0.046415 
0.000000 -0.068656 
0.000000 0.000000 
-0.004264 -0.023312 
-0.006682 -0.023343 
-0.004580 -0.125691 
0.000000 -0.139514 
-0.016019 -0.091193 
-0.010236 -0.109606 
0.000000 -0.108656 
-0.005046 -0.108910 
-0.005120 -0.089808 
-0.011730 -0.046860 
-0.009565 -0.069154 
-0.014813 -0.069739 
0.000000 0.000000 
0.002076 -0.023291 
0.006682 -0.023343 
0.004264 -0.023312 
0.000000 0.000000 
0.003675 -0.046415 
0.004689 -0.068794 
0.024018 -0.026649 
0.017322 -0.024190 
0.000000 0.000000 
0.020602 -0.070576 
0.022078 -0.048062 
0.027069 -0.071749 
0.000000 0.000000 
0.012870 -0.023581 
0.009475 -0.023405 
0.004580 -0.125691 
0.003835 -0.139885 
0.005120 -0.089808 
0.005046 -0.108910 
0.015692 -0.110651 
0.010236 -0.109606 
0.016019 -0.091193 
0.011730 -0.046860 
0.014813 -0.069739 
0.009565 -0.069154 
0.034593 -0.036630 
0.036836 -0.052869 
0.042356 -0.095720 
0.041828 -0.075670 
0.049041 -0.077865 
0.034239 -0.073420 
0.028569 -0.093550 
0.026287 -0.157008 
0.031501 -0.144031 
0.036695 -0.140108 
0.021363 -0.145229 
0.026370 -0.145461 
0.017307 -0.158098 
0.046184 -0.111384 
0.036312 -0.129612 
0.040168 -0.113584 
0.007807 -0.140938 
0.002893 -0.151336 
0.021479 -0.111886 
0.014237 -0.127782 
0.009403 -0.154625 
0.012034 -0.142443 
0.016561 -0.144031 
0.033884 -0.113837 
0.024962 -0.130268 
0.027583 -0.113072 
0.025546 -0.164913 
0.021157 -0.168664 
0.013066 -0.188232 
0.016599 -0.179069 
0.016537 -0.186145 
0.017066 -0.169804 
0.013237 -0.169049 
0.011648 -0.207161 
0.014545 -0.211443 
0.005341 -0.192435 
0.008218 -0.200966 
0.012831 -0.202652 
0.010518 -0.202466 
0.010960 -0.196083 
0.004004 -0.161845 
0.009721 -0.167041 
0.006618 -0.164417 
0.003932 -0.171982 
0.003962 -0.182342 
0.009865 -0.188073 
0.006803 -0.186004 
0.009589 -0.178278 
0.016021 -0.211643 
0.014988 -0.210614 
0.015124 -0.211426 
0.014886 -0.208432 
0.014908 -0.209656 
0.016198 -0.209781 
0.012078 -0.207949 
0.013476 -0.209047 
0.011472 -0.206800 
0.014900 -0.198648 
0.014964 -0.202057 
0.018170 -0.201903 
0.009098 -0.200607 
0.011851 -0.201601 
0.007981 -0.197288 
0.016945 -0.206833 
0.014947 -0.204743 
0.014908 -0.206831 
0.003828 -0.192953 
0.004257 -0.195296 
0.002390 -0.190182 
0.009102 -0.203764 
0.006595 -0.199900 
0.007809 -0.201857 
0.003801 -0.194233 
0.005260 -0.197380 
0.006876 -0.199171 
0.012789 -0.206296 
0.010021 -0.203229 
0.010799 -0.205260 
-0.000000 -0.120354 
-0.000075 -0.133064 
0.007491 -0.123759 
-0.002425 -0.148383 
-0.002169 -0.141213 
-0.000000 -0.144642 
0.019638 -0.160694 
0.004236 -0.149257 
0.008502 -0.163053 
-0.001161 -0.165328 
-0.001500 -0.162752 
-0.000000 -0.164513 
-0.002647 -0.167336 
-0.002922 -0.163268 
-0.002983 -0.168846 
-0.000000 -0.157578 
-0.001851 -0.159132 
-0.002192 -0.154369 
0.019608 -0.193969 
0.014162 -0.189011 
0.014674 -0.194365 
0.011415 -0.173846 
0.013172 -0.182306 
0.020722 -0.181411 
0.003007 -0.181846 
0.007172 -0.182299 
0.000828 -0.174417 
-0.002692 -0.156564 
-0.001286 -0.165807 
0.001981 -0.164429 
0.001169 -0.155592 
0.000905 -0.159474 
0.000000 -0.155463 
0.001305 -0.166936 
0.001315 -0.163233 
0.002093 -0.164198 
0.000000 -0.162420 
0.000631 -0.162626 
0.000351 -0.165039 
0.001196 -0.184894 
0.000697 -0.179773 
0.001797 -0.182626 
-0.000748 -0.173877 
-0.000172 -0.176798 
-0.000896 -0.178145 
0.001763 -0.172858 
0.000733 -0.175056 
0.001033 -0.170811 
-0.000000 -0.167205 
-0.000529 -0.167688 
-0.000839 -0.166950 
0.000064 -0.166701 
-0.000228 -0.167593 
-0.000000 -0.166393 
-0.001689 -0.171404 
-0.000898 -0.169084 
-0.000990 -0.171224 
0.000523 -0.169011 
-0.000246 -0.170435 
0.000215 -0.167601 
0.010225 -0.194034 
0.000440 -0.181255 
0.004965 -0.188050 
0.006619 -0.193148 
0.003972 -0.191894 
-0.001996 -0.167630 
-0.002070 -0.175005 
-0.002310 -0.171016 
-0.002785 -0.170128 
-0.002213 -0.174853 
0.000991 -0.186917 
0.002239 -0.190405 
0.001293 -0.188744 
-0.000294 -0.183210 
-0.001356 -0.179173 
-0.000918 -0.180638 
-0.001427 -0.179971 
0.000628 -0.185866 
-0.007491 -0.123759 
0.000075 -0.133064 
-0.008502 -0.163053 
-0.004236 -0.149257 
-0.019638 -0.160694 
0.002169 -0.141213 
0.002425 -0.148383 
-0.014674 -0.194365 
-0.014162 -0.189011 
-0.019608 -0.193969 
-0.000828 -0.174417 
-0.007172 -0.182299 
-0.003007 -0.181846 
-0.020722 -0.181411 
-0.013172 -0.182306 
-0.011415 -0.173846 
0.001500 -0.162752 
0.001161 -0.165328 
0.002192 -0.154369 
0.001851 -0.159132 
0.002983 -0.168846 
0.002922 -0.163268 
0.002647 -0.167336 
-0.001981 -0.164429 
0.001286 -0.165807 
0.002692 -0.156564 
-0.015124 -0.211426 
-0.014988 -0.210614 
-0.016021 -0.211643 
-0.011472 -0.206800 
-0.013476 -0.209047 
-0.012078 -0.207949 
-0.016198 -0.209781 
-0.014908 -0.209656 
-0.014886 -0.208432 
-0.002390 -0.190182 
-0.004257 -0.195296 
-0.003828 -0.192953 
-0.006876 -0.199171 
-0.005260 -0.197380 
-0.003801 -0.194233 
-0.007809 -0.201857 
-0.006595 -0.199900 
-0.009102 -0.203764 
-0.018170 -0.201903 
-0.014964 -0.202057 
-0.014900 -0.198648 
-0.014908 -0.206831 
-0.014947 -0.204743 
-0.016945 -0.206833 
-0.007981 -0.197288 
-0.011851 -0.201601 
-0.009098 -0.200607 
-0.010799 -0.205260 
-0.010021 -0.203229 
-0.012789 -0.206296 
-0.000905 -0.159474 
-0.001169 -0.155592 
-0.000351 -0.165039 
-0.000631 -0.162626 
-0.002093 -0.164198 
-0.001315 -0.163233 
-0.001305 -0.166936 
0.000839 -0.166950 
0.000529 -0.167688 
0.000990 -0.171224 
0.000898 -0.169084 
0.001689 -0.171404 
0.000228 -0.167593 
-0.000064 -0.166701 
-0.001797 -0.182626 
-0.000697 -0.179773 
-0.001196 -0.184894 
-0.001033 -0.170811 
-0.000733 -0.175056 
-0.001763 -0.172858 
0.000896 -0.178145 
0.000172 -0.176798 
0.000748 -0.173877 
-0.000215 -0.167601 
0.000246 -0.170435 
-0.000523 -0.169011 
-0.010225 -0.194034 
-0.003972 -0.191894 
-0.006619 -0.193148 
-0.004965 -0.188050 
-0.000440 -0.181255 
-0.000991 -0.186917 
0.001356 -0.179173 
0.000294 -0.183210 
-0.001293 -0.188744 
-0.002239 -0.190405 
0.001996 -0.167630 
0.002213 -0.174853 
0.002785 -0.170128 
0.002310 -0.171016 
0.002070 -0.175005 
-0.000628 -0.185866 
0.001427 -0.179971 
0.000918 -0.180638 
-0.015308 -0.212201 
-0.014159 -0.210719 
-0.012421 -0.207729 
-0.013221 -0.209488 
-0.013817 -0.210119 
-0.012651 -0.208808 
-0.010861 -0.206376 
-0.012386 -0.195846 
-0.011810 -0.199476 
-0.013165 -0.199116 
-0.009260 -0.199072 
-0.010527 -0.199471 
-0.009568 -0.195865 
-0.012869 -0.205699 
-0.011646 -0.202692 
-0.011868 -0.205455 
-0.005253 -0.195214 
-0.003912 -0.190358 
-0.008915 -0.203318 
-0.006980 -0.199582 
-0.006768 -0.194046 
-0.006636 -0.196973 
-0.007970 -0.198249 
-0.010909 -0.205039 
-0.009388 -0.201910 
-0.009938 -0.204354 
-0.028660 -0.155356 
-0.025941 -0.161396 
-0.028277 -0.159033 
-0.021480 -0.163940 
-0.023679 -0.162996 
-0.023964 -0.158008 
-0.022951 -0.170569 
-0.023309 -0.167165 
-0.020817 -0.172663 
-0.013303 -0.163052 
-0.015246 -0.163802 
-0.015210 -0.157456 
-0.014924 -0.174901 
-0.015117 -0.169622 
-0.013094 -0.174585 
-0.019470 -0.158460 
-0.017261 -0.164255 
-0.019341 -0.164330 
-0.015027 -0.190808 
-0.014750 -0.187496 
-0.013373 -0.191841 
-0.018522 -0.177890 
-0.016483 -0.182839 
-0.018392 -0.181199 
-0.012944 -0.184182 
-0.014677 -0.183808 
-0.014753 -0.179626 
-0.019079 -0.169513 
-0.016817 -0.174739 
-0.018778 -0.174021 
-0.002380 -0.156011 
-0.001433 -0.150982 
-0.002998 -0.165451 
-0.002878 -0.160786 
-0.004404 -0.151924 
-0.003652 -0.156696 
-0.005005 -0.157600 
-0.003065 -0.185230 
-0.002703 -0.180058 
-0.005153 -0.173807 
-0.003841 -0.177135 
-0.005134 -0.179121 
-0.002707 -0.175009 
-0.002878 -0.170153 
-0.011250 -0.155645 
-0.009678 -0.160979 
-0.011444 -0.162085 
-0.006456 -0.158661 
-0.008014 -0.159812 
-0.007648 -0.153623 
-0.008065 -0.171509 
-0.008112 -0.165764 
-0.006591 -0.170030 
-0.004048 -0.166905 
-0.005248 -0.168464 
-0.005249 -0.163082 
-0.011814 -0.192329 
-0.011267 -0.184023 
-0.011445 -0.188410 
-0.010306 -0.192306 
-0.008820 -0.191794 
-0.011434 -0.168162 
-0.008006 -0.177041 
-0.009652 -0.172815 
-0.011333 -0.173865 
-0.011249 -0.179165 
-0.004440 -0.187498 
-0.007342 -0.190810 
-0.005877 -0.189370 
-0.005341 -0.184347 
-0.006551 -0.180873 
-0.009637 -0.183383 
-0.008060 -0.182315 
-0.008316 -0.187260 
-0.033912 -0.146639 
-0.031397 -0.149041 
-0.036690 -0.135528 
-0.034092 -0.142437 
-0.039381 -0.133325 
-0.028914 -0.150691 
-0.026465 -0.151701 
-0.044714 -0.104488 
-0.043224 -0.112800 
-0.047775 -0.103499 
-0.033471 -0.130356 
-0.038399 -0.121811 
-0.035420 -0.122363 
-0.044199 -0.118974 
-0.041331 -0.120728 
-0.039126 -0.128297 
-0.019363 -0.151915 
-0.017102 -0.151350 
-0.024053 -0.152177 
-0.021683 -0.152218 
-0.025900 -0.138303 
-0.023846 -0.145506 
-0.028582 -0.138292 
-0.033988 -0.137011 
-0.031282 -0.137895 
-0.028925 -0.145003 
-0.017056 -0.014980 
-0.028929 -0.030148 
-0.024389 -0.022876 
-0.032664 -0.050929 
-0.031717 -0.040198 
-0.027522 -0.038159 
-0.041077 -0.048191 
-0.036391 -0.043490 
-0.041139 -0.055506 
-0.025260 -0.092904 
-0.028191 -0.082922 
-0.024838 -0.082262 
-0.035261 -0.084433 
-0.031675 -0.083650 
-0.031970 -0.094204 
-0.028497 -0.060826 
-0.030573 -0.072511 
-0.032163 -0.061790 
-0.049342 -0.086768 
-0.046029 -0.086575 
-0.045694 -0.095761 
-0.044026 -0.066560 
-0.045549 -0.076871 
-0.047766 -0.068540 
-0.038914 -0.095364 
-0.042517 -0.085997 
-0.038898 -0.085240 
-0.036040 -0.063054 
-0.038018 -0.074484 
-0.040046 -0.064660 
-0.003385 -0.145960 
-0.001687 -0.145651 
-0.006927 -0.147151 
-0.005126 -0.146471 
-0.006395 -0.133528 
-0.005795 -0.140337 
-0.008602 -0.134066 
-0.014908 -0.150602 
-0.012790 -0.149743 
-0.015618 -0.136165 
-0.014260 -0.143254 
-0.018099 -0.136883 
-0.010754 -0.148841 
-0.008800 -0.147958 
-0.018954 -0.101764 
-0.018543 -0.111257 
-0.021986 -0.102371 
-0.011730 -0.127128 
-0.015080 -0.119520 
-0.012427 -0.118916 
-0.020617 -0.120814 
-0.017811 -0.120164 
-0.016818 -0.128469 
-0.009884 -0.141655 
-0.013208 -0.135424 
-0.010871 -0.134711 
-0.041526 -0.104900 
-0.034929 -0.104621 
-0.038249 -0.104899 
-0.037045 -0.113887 
-0.032416 -0.122504 
-0.025114 -0.102993 
-0.023494 -0.121428 
-0.024496 -0.112504 
-0.028328 -0.103604 
-0.031609 -0.104164 
-0.018931 -0.144712 
-0.027779 -0.130588 
-0.023250 -0.138019 
-0.020646 -0.137522 
-0.022188 -0.129765 
-0.030720 -0.113538 
-0.026432 -0.121957 
-0.029412 -0.122339 
0.000000 0.000000 
-0.013158 -0.012748 
-0.009186 -0.011730 
-0.010840 -0.012014 
0.000000 0.000000 
-0.020258 -0.024988 
-0.023897 -0.036959 
-0.004982 -0.011581 
-0.005831 -0.011573 
0.000000 0.000000 
-0.015558 -0.035544 
-0.011078 -0.023468 
-0.013342 -0.035359 
0.000000 0.000000 
-0.006784 -0.011579 
-0.007880 -0.011618 
-0.023745 -0.071112 
-0.021628 -0.081670 
-0.025274 -0.048683 
-0.025071 -0.060093 
-0.018909 -0.059083 
-0.021881 -0.059529 
-0.019166 -0.047623 
-0.014917 -0.023790 
-0.018009 -0.035819 
-0.020761 -0.036251 
0.000000 -0.011631 
-0.000538 -0.011636 
0.000000 0.000000 
-0.001463 -0.034881 
-0.001031 -0.023282 
0.000000 -0.034863 
0.000000 0.000000 
-0.001086 -0.011636 
-0.001649 -0.011633 
-0.002476 -0.079388 
-0.002333 -0.068698 
0.000000 -0.079339 
-0.005567 -0.046486 
-0.004258 -0.057737 
-0.006444 -0.057848 
0.000000 -0.057632 
-0.002117 -0.057665 
-0.001827 -0.046367 
0.000000 0.000000 
-0.003507 -0.011606 
-0.004213 -0.011593 
-0.002234 -0.011626 
-0.002851 -0.011617 
0.000000 0.000000 
-0.007692 -0.035051 
-0.005436 -0.023326 
-0.006040 -0.034991 
-0.002945 -0.034907 
-0.004464 -0.034943 
-0.003149 -0.023301 
-0.001910 -0.139607 
0.000000 -0.145558 
-0.006911 -0.126056 
-0.004236 -0.133123 
0.000000 -0.132785 
-0.002110 -0.132872 
-0.002282 -0.125463 
-0.018983 -0.091713 
-0.016022 -0.101197 
-0.010435 -0.100247 
-0.013185 -0.100687 
-0.013166 -0.090736 
-0.012925 -0.110093 
-0.009844 -0.118381 
0.000000 -0.099400 
-0.002560 -0.099462 
-0.002549 -0.089664 
-0.002419 -0.117404 
-0.002514 -0.108724 
0.000000 -0.117330 
-0.007733 -0.090037 
-0.005139 -0.099627 
-0.007758 -0.099891 
-0.007325 -0.117940 
-0.007614 -0.109207 
-0.004855 -0.117610 
-0.008021 -0.023367 
-0.009571 -0.046705 
-0.009442 -0.035128 
-0.011316 -0.035227 
-0.014029 -0.047054 
-0.004974 -0.079509 
-0.010128 -0.079962 
-0.007517 -0.079701 
-0.007092 -0.068946 
-0.008701 -0.057999 
-0.018562 -0.081145 
-0.016131 -0.058725 
-0.017630 -0.070122 
-0.015633 -0.080686 
-0.012827 -0.080291 
-0.011052 -0.058193 
-0.012132 -0.069417 
-0.013520 -0.058432 
0.000000 0.000000 
0.000538 -0.011636 
0.001649 -0.011633 
0.001086 -0.011636 
0.000000 0.000000 
0.001031 -0.023282 
0.001463 -0.034881 
0.004213 -0.011593 
0.003507 -0.011606 
0.000000 0.000000 
0.006040 -0.034991 
0.005436 -0.023326 
0.007692 -0.035051 
0.000000 0.000000 
0.002851 -0.011617 
0.002234 -0.011626 
0.002333 -0.068698 
0.002476 -0.079388 
0.001827 -0.046367 
0.002117 -0.057665 
0.006444 -0.057848 
0.004258 -0.057737 
0.005567 -0.046486 
0.003149 -0.023301 
0.004464 -0.034943 
0.002945 -0.034907 
0.017056 -0.014980 
0.013158 -0.012748 
0.000000 0.000000 
0.023897 -0.036959 
0.020258 -0.024988 
0.027522 -0.038159 
0.000000 0.000000 
0.010840 -0.012014 
0.009186 -0.011730 
0.021628 -0.081670 
0.023745 -0.071112 
0.024838 -0.082262 
0.019166 -0.047623 
0.021881 -0.059529 
0.018909 -0.059083 
0.028497 -0.060826 
0.025071 -0.060093 
0.025274 -0.048683 
0.000000 0.000000 
0.005831 -0.011573 
0.004982 -0.011581 
0.007880 -0.011618 
0.006784 -0.011579 
0.000000 0.000000 
0.013342 -0.035359 
0.011078 -0.023468 
0.015558 -0.035544 
0.020761 -0.036251 
0.018009 -0.035819 
0.014917 -0.023790 
0.001910 -0.139607 
0.001687 -0.145651 
0.002282 -0.125463 
0.002110 -0.132872 
0.006395 -0.133528 
0.004236 -0.133123 
0.006911 -0.126056 
0.002549 -0.089664 
0.002560 -0.099462 
0.007758 -0.099891 
0.005139 -0.099627 
0.007733 -0.090037 
0.002514 -0.108724 
0.002419 -0.117404 
0.018954 -0.101764 
0.016022 -0.101197 
0.018983 -0.091713 
0.009844 -0.118381 
0.012925 -0.110093 
0.012427 -0.118916 
0.013166 -0.090736 
0.013185 -0.100687 
0.010435 -0.100247 
0.004855 -0.117610 
0.007614 -0.109207 
0.007325 -0.117940 
0.008021 -0.023367 
0.014029 -0.047054 
0.011316 -0.035227 
0.009442 -0.035128 
0.009571 -0.046705 
0.018562 -0.081145 
0.012827 -0.080291 
0.015633 -0.080686 
0.017630 -0.070122 
0.016131 -0.058725 
0.004974 -0.079509 
0.008701 -0.057999 
0.007092 -0.068946 
0.007517 -0.079701 
0.010128 -0.079962 
0.013520 -0.058432 
0.012132 -0.069417 
0.011052 -0.058193 
0.024389 -0.022876 
0.028929 -0.030148 
0.041139 -0.055506 
0.036391 -0.043490 
0.041077 -0.048191 
0.031717 -0.040198 
0.032664 -0.050929 
0.045694 -0.095761 
0.046029 -0.086575 
0.049342 -0.086768 
0.038898 -0.085240 
0.042517 -0.085997 
0.038914 -0.095364 
0.047766 -0.068540 
0.045549 -0.076871 
0.044026 -0.066560 
0.028191 -0.082922 
0.025260 -0.092904 
0.032163 -0.061790 
0.030573 -0.072511 
0.031970 -0.094204 
0.031675 -0.083650 
0.035261 -0.084433 
0.040046 -0.064660 
0.038018 -0.074484 
0.036040 -0.063054 
0.028660 -0.155356 
0.031397 -0.149041 
0.033912 -0.146639 
0.026465 -0.151701 
0.028914 -0.150691 
0.023964 -0.158008 
0.039381 -0.133325 
0.034092 -0.142437 
0.036690 -0.135528 
0.017102 -0.151350 
0.019363 -0.151915 
0.015210 -0.157456 
0.028582 -0.138292 
0.023846 -0.145506 
0.025900 -0.138303 
0.019470 -0.158460 
0.021683 -0.152218 
0.024053 -0.152177 
0.047775 -0.103499 
0.043224 -0.112800 
0.044714 -0.104488 
0.039126 -0.128297 
0.041331 -0.120728 
0.044199 -0.118974 
0.035420 -0.122363 
0.038399 -0.121811 
0.033471 -0.130356 
0.028925 -0.145003 
0.031282 -0.137895 
0.033988 -0.137011 
0.003385 -0.145960 
0.001433 -0.150982 
0.008602 -0.134066 
0.005795 -0.140337 
0.004404 -0.151924 
0.005126 -0.146471 
0.006927 -0.147151 
0.021986 -0.102371 
0.018543 -0.111257 
0.016818 -0.128469 
0.017811 -0.120164 
0.020617 -0.120814 
0.015080 -0.119520 
0.011730 -0.127128 
0.011250 -0.155645 
0.012790 -0.149743 
0.014908 -0.150602 
0.008800 -0.147958 
0.010754 -0.148841 