# vtk DataFile Version 2.0
Unstructured Grid Example
ASCII
DATASET UNSTRUCTURED_GRID

POINTS 8 float
0.000000 6.650381 0.000000 
0.250000 -13.300763 0.000000 
0.250000 1.705571 0.000000 
0.500000 -23.362286 0.000000 
0.500000 -23.362286 0.000000 
0.750000 1.705571 0.000000 
0.750000 -13.300763 0.000000 
1.000000 6.650381 0.000000 

CELLS 4 12
2  0 1 
2  2 3 
2  4 5 
2  6 7 

CELL_TYPES 4
3
3
3
3

POINT_DATA 8

SCALARS lambda_h float 1
LOOKUP_TABLE default
6.650381 
-13.300763 
1.705571 
-23.362286 
-23.362286 
1.705571 
-13.300763 
6.650381 

