# vtk DataFile Version 2.0
Unstructured Grid Example
ASCII
DATASET UNSTRUCTURED_GRID

POINTS 256 float
0.000000 0.000000 0.000000 
0.007812 0.000000 0.000000 
0.007812 0.000000 0.000000 
0.015625 0.000000 0.000000 
0.015625 0.000000 0.000000 
0.023438 0.000000 0.000000 
0.023438 0.000000 0.000000 
0.031250 0.000000 0.000000 
0.046875 0.000000 0.000000 
0.054688 0.000000 0.000000 
0.054688 0.000000 0.000000 
0.062500 0.000000 0.000000 
0.031250 0.000000 0.000000 
0.039062 0.000000 0.000000 
0.039062 0.000000 0.000000 
0.046875 0.000000 0.000000 
0.109375 0.000000 0.000000 
0.117188 0.000000 0.000000 
0.117188 0.000000 0.000000 
0.125000 0.000000 0.000000 
0.093750 0.000000 0.000000 
0.101562 0.000000 0.000000 
0.101562 0.000000 0.000000 
0.109375 0.000000 0.000000 
0.062500 0.000000 0.000000 
0.070312 0.000000 0.000000 
0.070312 0.000000 0.000000 
0.078125 0.000000 0.000000 
0.078125 0.000000 0.000000 
0.085938 0.000000 0.000000 
0.085938 0.000000 0.000000 
0.093750 0.000000 0.000000 
0.234375 -5.366320 0.000000 
0.242188 -6.642952 0.000000 
0.242188 -5.792374 0.000000 
0.250000 -7.067476 0.000000 
0.218750 -4.512423 0.000000 
0.226562 -5.792524 0.000000 
0.226562 -4.939783 0.000000 
0.234375 -6.217904 0.000000 
0.187500 -2.776761 0.000000 
0.195312 -4.086226 0.000000 
0.195312 -3.217544 0.000000 
0.203125 -4.514124 0.000000 
0.203125 -3.652481 0.000000 
0.210938 -4.940830 0.000000 
0.210938 -4.083638 0.000000 
0.218750 -5.366866 0.000000 
0.125000 0.000000 0.000000 
0.132812 0.000000 0.000000 
0.132812 0.000000 0.000000 
0.140625 0.000000 0.000000 
0.140625 0.733055 0.000000 
0.148438 -1.466110 0.000000 
0.148438 -0.118280 0.000000 
0.156250 -1.962605 0.000000 
0.171875 -1.863935 0.000000 
0.179688 -3.223298 0.000000 
0.179688 -2.327104 0.000000 
0.187500 -3.656322 0.000000 
0.156250 -0.847701 0.000000 
0.164062 -2.348088 0.000000 
0.164062 -1.378862 0.000000 
0.171875 -2.786152 0.000000 
0.484375 -15.729717 0.000000 
0.492188 -15.835364 0.000000 
0.492188 -15.802770 0.000000 
0.500000 -15.794906 0.000000 
0.468750 -15.536965 0.000000 
0.476562 -15.789080 0.000000 
0.476562 -15.645151 0.000000 
0.484375 -15.824824 0.000000 
0.437500 -14.877405 0.000000 
0.445312 -15.404331 0.000000 
0.445312 -15.075073 0.000000 
0.453125 -15.535922 0.000000 
0.453125 -15.251349 0.000000 
0.460938 -15.644220 0.000000 
0.460938 -15.405522 0.000000 
0.468750 -15.728744 0.000000 
0.375000 -12.632357 0.000000 
0.382812 -13.595802 0.000000 
0.382812 -12.968244 0.000000 
0.390625 -13.887473 0.000000 
0.390625 -13.290450 0.000000 
0.398438 -14.162290 0.000000 
0.398438 -13.597891 0.000000 
0.406250 -14.419247 0.000000 
0.421875 -14.421108 0.000000 
0.429688 -15.073581 0.000000 
0.429688 -14.659133 0.000000 
0.437500 -15.250005 0.000000 
0.406250 -13.889503 0.000000 
0.414062 -14.657381 0.000000 
0.414062 -14.164244 0.000000 
0.421875 -14.875777 0.000000 
0.250000 -6.218078 0.000000 
0.257812 -7.491171 0.000000 
0.257812 -6.643398 0.000000 
0.265625 -7.913624 0.000000 
0.265625 -7.068158 0.000000 
0.273438 -8.334330 0.000000 
0.273438 -7.492059 0.000000 
0.281250 -8.752699 0.000000 
0.296875 -8.754094 0.000000 
0.304688 -9.986743 0.000000 
0.304688 -9.169595 0.000000 
0.312500 -10.388388 0.000000 
0.281250 -7.914698 0.000000 
0.289062 -9.168062 0.000000 
0.289062 -8.335572 0.000000 
0.296875 -9.579679 0.000000 
0.359375 -11.923897 0.000000 
0.367188 -12.966089 0.000000 
0.367188 -12.283878 0.000000 
0.375000 -13.288319 0.000000 
0.343750 -11.173734 0.000000 
0.351562 -12.281724 0.000000 
0.351562 -11.553495 0.000000 
0.359375 -12.630194 0.000000 
0.312500 -9.581337 0.000000 
0.320312 -10.783698 0.000000 
0.320312 -9.988513 0.000000 
0.328125 -11.171707 0.000000 
0.328125 -10.390258 0.000000 
0.335938 -11.551410 0.000000 
0.335938 -10.785654 0.000000 
0.343750 -11.921770 0.000000 
0.500000 -15.794906 0.000000 
0.507812 -15.802770 0.000000 
0.507812 -15.835364 0.000000 
0.515625 -15.729717 0.000000 
0.515625 -15.824824 0.000000 
0.523438 -15.645151 0.000000 
0.523438 -15.789080 0.000000 
0.531250 -15.536965 0.000000 
0.546875 -15.535922 0.000000 
0.554688 -15.075073 0.000000 
0.554688 -15.404331 0.000000 
0.562500 -14.877405 0.000000 
0.531250 -15.728744 0.000000 
0.539062 -15.405522 0.000000 
0.539062 -15.644220 0.000000 
0.546875 -15.251349 0.000000 
0.609375 -13.887473 0.000000 
0.617188 -12.968244 0.000000 
0.617188 -13.595802 0.000000 
0.625000 -12.632357 0.000000 
0.593750 -14.419247 0.000000 
0.601562 -13.597891 0.000000 
0.601562 -14.162290 0.000000 
0.609375 -13.290450 0.000000 
0.562500 -15.250005 0.000000 
0.570312 -14.659133 0.000000 
0.570312 -15.073581 0.000000 
0.578125 -14.421108 0.000000 
0.578125 -14.875777 0.000000 
0.585938 -14.164244 0.000000 
0.585938 -14.657381 0.000000 
0.593750 -13.889503 0.000000 
0.734375 -7.913624 0.000000 
0.742188 -6.643398 0.000000 
0.742188 -7.491171 0.000000 
0.750000 -6.218078 0.000000 
0.718750 -8.752699 0.000000 
0.726562 -7.492059 0.000000 
0.726562 -8.334330 0.000000 
0.734375 -7.068158 0.000000 
0.687500 -10.388388 0.000000 
0.695312 -9.169595 0.000000 
0.695312 -9.986743 0.000000 
0.703125 -8.754094 0.000000 
0.703125 -9.579679 0.000000 
0.710938 -8.335572 0.000000 
0.710938 -9.168062 0.000000 
0.718750 -7.914698 0.000000 
0.625000 -13.288319 0.000000 
0.632812 -12.283878 0.000000 
0.632812 -12.966089 0.000000 
0.640625 -11.923897 0.000000 
0.640625 -12.630194 0.000000 
0.648438 -11.553495 0.000000 
0.648438 -12.281724 0.000000 
0.656250 -11.173734 0.000000 
0.671875 -11.171707 0.000000 
0.679688 -9.988513 0.000000 
0.679688 -10.783698 0.000000 
0.687500 -9.581337 0.000000 
0.656250 -11.921770 0.000000 
0.664062 -10.785654 0.000000 
0.664062 -11.551410 0.000000 
0.671875 -10.390258 0.000000 
0.984375 0.000000 0.000000 
0.992188 0.000000 0.000000 
0.992188 0.000000 0.000000 
1.000000 0.000000 0.000000 
0.968750 0.000000 0.000000 
0.976562 0.000000 0.000000 
0.976562 0.000000 0.000000 
0.984375 0.000000 0.000000 
0.937500 0.000000 0.000000 
0.945312 0.000000 0.000000 
0.945312 0.000000 0.000000 
0.953125 0.000000 0.000000 
0.953125 0.000000 0.000000 
0.960938 0.000000 0.000000 
0.960938 0.000000 0.000000 
0.968750 0.000000 0.000000 
0.875000 0.000000 0.000000 
0.882812 0.000000 0.000000 
0.882812 0.000000 0.000000 
0.890625 0.000000 0.000000 
0.890625 0.000000 0.000000 
0.898438 0.000000 0.000000 
0.898438 0.000000 0.000000 
0.906250 0.000000 0.000000 
0.921875 0.000000 0.000000 
0.929688 0.000000 0.000000 
0.929688 0.000000 0.000000 
0.937500 0.000000 0.000000 
0.906250 0.000000 0.000000 
0.914062 0.000000 0.000000 
0.914062 0.000000 0.000000 
0.921875 0.000000 0.000000 
0.750000 -7.067476 0.000000 
0.757812 -5.792374 0.000000 
0.757812 -6.642952 0.000000 
0.765625 -5.366320 0.000000 
0.765625 -6.217904 0.000000 
0.773438 -4.939783 0.000000 
0.773438 -5.792524 0.000000 
0.781250 -4.512423 0.000000 
0.796875 -4.514124 0.000000 
0.804688 -3.217544 0.000000 
0.804688 -4.086226 0.000000 
0.812500 -2.776761 0.000000 
0.781250 -5.366866 0.000000 
0.789062 -4.083638 0.000000 
0.789062 -4.940830 0.000000 
0.796875 -3.652481 0.000000 
0.859375 0.000000 0.000000 
0.867188 0.000000 0.000000 
0.867188 0.000000 0.000000 
0.875000 0.000000 0.000000 
0.843750 -1.962605 0.000000 
0.851562 -0.118280 0.000000 
0.851562 -1.466110 0.000000 
0.859375 0.733055 0.000000 
0.812500 -3.656322 0.000000 
0.820312 -2.327104 0.000000 
0.820312 -3.223298 0.000000 
0.828125 -1.863935 0.000000 
0.828125 -2.786152 0.000000 
0.835938 -1.378862 0.000000 
0.835938 -2.348088 0.000000 
0.843750 -0.847701 0.000000 

CELLS 128 384
2  0 1 
2  2 3 
2  4 5 
2  6 7 
2  8 9 
2  10 11 
2  12 13 
2  14 15 
2  16 17 
2  18 19 
2  20 21 
2  22 23 
2  24 25 
2  26 27 
2  28 29 
2  30 31 
2  32 33 
2  34 35 
2  36 37 
2  38 39 
2  40 41 
2  42 43 
2  44 45 
2  46 47 
2  48 49 
2  50 51 
2  52 53 
2  54 55 
2  56 57 
2  58 59 
2  60 61 
2  62 63 
2  64 65 
2  66 67 
2  68 69 
2  70 71 
2  72 73 
2  74 75 
2  76 77 
2  78 79 
2  80 81 
2  82 83 
2  84 85 
2  86 87 
2  88 89 
2  90 91 
2  92 93 
2  94 95 
2  96 97 
2  98 99 
2  100 101 
2  102 103 
2  104 105 
2  106 107 
2  108 109 
2  110 111 
2  112 113 
2  114 115 
2  116 117 
2  118 119 
2  120 121 
2  122 123 
2  124 125 
2  126 127 
2  128 129 
2  130 131 
2  132 133 
2  134 135 
2  136 137 
2  138 139 
2  140 141 
2  142 143 
2  144 145 
2  146 147 
2  148 149 
2  150 151 
2  152 153 
2  154 155 
2  156 157 
2  158 159 
2  160 161 
2  162 163 
2  164 165 
2  166 167 
2  168 169 
2  170 171 
2  172 173 
2  174 175 
2  176 177 
2  178 179 
2  180 181 
2  182 183 
2  184 185 
2  186 187 
2  188 189 
2  190 191 
2  192 193 
2  194 195 
2  196 197 
2  198 199 
2  200 201 
2  202 203 
2  204 205 
2  206 207 
2  208 209 
2  210 211 
2  212 213 
2  214 215 
2  216 217 
2  218 219 
2  220 221 
2  222 223 
2  224 225 
2  226 227 
2  228 229 
2  230 231 
2  232 233 
2  234 235 
2  236 237 
2  238 239 
2  240 241 
2  242 243 
2  244 245 
2  246 247 
2  248 249 
2  250 251 
2  252 253 
2  254 255 

CELL_TYPES 128
3
3
3
3
3
3
3
3
3
3
3
3
3
3
3
3
3
3
3
3
3
3
3
3
3
3
3
3
3
3
3
3
3
3
3
3
3
3
3
3
3
3
3
3
3
3
3
3
3
3
3
3
3
3
3
3
3
3
3
3
3
3
3
3
3
3
3
3
3
3
3
3
3
3
3
3
3
3
3
3
3
3
3
3
3
3
3
3
3
3
3
3
3
3
3
3
3
3
3
3
3
3
3
3
3
3
3
3
3
3
3
3
3
3
3
3
3
3
3
3
3
3
3
3
3
3
3
3

POINT_DATA 256

SCALARS lambda_h float 1
LOOKUP_TABLE default
0.000000 
0.000000 
0.000000 
0.000000 
0.000000 
0.000000 
0.000000 
0.000000 
0.000000 
0.000000 
0.000000 
0.000000 
0.000000 
0.000000 
0.000000 
0.000000 
0.000000 
0.000000 
0.000000 
0.000000 
0.000000 
0.000000 
0.000000 
0.000000 
0.000000 
0.000000 
0.000000 
0.000000 
0.000000 
0.000000 
0.000000 
0.000000 
-5.366320 
-6.642952 
-5.792374 
-7.067476 
-4.512423 
-5.792524 
-4.939783 
-6.217904 
-2.776761 
-4.086226 
-3.217544 
-4.514124 
-3.652481 
-4.940830 
-4.083638 
-5.366866 
0.000000 
0.000000 
0.000000 
0.000000 
0.733055 
-1.466110 
-0.118280 
-1.962605 
-1.863935 
-3.223298 
-2.327104 
-3.656322 
-0.847701 
-2.348088 
-1.378862 
-2.786152 
-15.729717 
-15.835364 
-15.802770 
-15.794906 
-15.536965 
-15.789080 
-15.645151 
-15.824824 
-14.877405 
-15.404331 
-15.075073 
-15.535922 
-15.251349 
-15.644220 
-15.405522 
-15.728744 
-12.632357 
-13.595802 
-12.968244 
-13.887473 
-13.290450 
-14.162290 
-13.597891 
-14.419247 
-14.421108 
-15.073581 
-14.659133 
-15.250005 
-13.889503 
-14.657381 
-14.164244 
-14.875777 
-6.218078 
-7.491171 
-6.643398 
-7.913624 
-7.068158 
-8.334330 
-7.492059 
-8.752699 
-8.754094 
-9.986743 
-9.169595 
-10.388388 
-7.914698 
-9.168062 
-8.335572 
-9.579679 
-11.923897 
-12.966089 
-12.283878 
-13.288319 
-11.173734 
-12.281724 
-11.553495 
-12.630194 
-9.581337 
-10.783698 
-9.988513 
-11.171707 
-10.390258 
-11.551410 
-10.785654 
-11.921770 
-15.794906 
-15.802770 
-15.835364 
-15.729717 
-15.824824 
-15.645151 
-15.789080 
-15.536965 
-15.535922 
-15.075073 
-15.404331 
-14.877405 
-15.728744 
-15.405522 
-15.644220 
-15.251349 
-13.887473 
-12.968244 
-13.595802 
-12.632357 
-14.419247 
-13.597891 
-14.162290 
-13.290450 
-15.250005 
-14.659133 
-15.073581 
-14.421108 
-14.875777 
-14.164244 
-14.657381 
-13.889503 
-7.913624 
-6.643398 
-7.491171 
-6.218078 
-8.752699 
-7.492059 
-8.334330 
-7.068158 
-10.388388 
-9.169595 
-9.986743 
-8.754094 
-9.579679 
-8.335572 
-9.168062 
-7.914698 
-13.288319 
-12.283878 
-12.966089 
-11.923897 
-12.630194 
-11.553495 
-12.281724 
-11.173734 
-11.171707 
-9.988513 
-10.783698 
-9.581337 
-11.921770 
-10.785654 
-11.551410 
-10.390258 
0.000000 
0.000000 
0.000000 
0.000000 
0.000000 
0.000000 
0.000000 
0.000000 
0.000000 
0.000000 
0.000000 
0.000000 
0.000000 
0.000000 
0.000000 
0.000000 
0.000000 
0.000000 
0.000000 
0.000000 
0.000000 
0.000000 
0.000000 
0.000000 
0.000000 
0.000000 
0.000000 
0.000000 
0.000000 
0.000000 
0.000000 
0.000000 
-7.067476 
-5.792374 
-6.642952 
-5.366320 
-6.217904 
-4.939783 
-5.792524 
-4.512423 
-4.514124 
-3.217544 
-4.086226 
-2.776761 
-5.366866 
-4.083638 
-4.940830 
-3.652481 
0.000000 
0.000000 
0.000000 
0.000000 
-1.962605 
-0.118280 
-1.466110 
0.733055 
-3.656322 
-2.327104 
-3.223298 
-1.863935 
-2.786152 
-1.378862 
-2.348088 
-0.847701 

