# vtk DataFile Version 2.0
Unstructured Grid Example
ASCII
DATASET UNSTRUCTURED_GRID

POINTS 16 float
0.000000 0.000000 0.000000 
0.125000 0.000000 0.000000 
0.125000 7.286821 0.000000 
0.250000 -14.573641 0.000000 
0.250000 -1.425367 0.000000 
0.375000 -19.009727 0.000000 
0.375000 -11.372128 0.000000 
0.500000 -16.700565 0.000000 
0.500000 -16.700565 0.000000 
0.625000 -11.372128 0.000000 
0.625000 -19.009727 0.000000 
0.750000 -1.425367 0.000000 
0.750000 -14.573641 0.000000 
0.875000 7.286821 0.000000 
0.875000 0.000000 0.000000 
1.000000 0.000000 0.000000 

CELLS 8 24
2  0 1 
2  2 3 
2  4 5 
2  6 7 
2  8 9 
2  10 11 
2  12 13 
2  14 15 

CELL_TYPES 8
3
3
3
3
3
3
3
3

POINT_DATA 16

SCALARS lambda_h float 1
LOOKUP_TABLE default
0.000000 
0.000000 
7.286821 
-14.573641 
-1.425367 
-19.009727 
-11.372128 
-16.700565 
-16.700565 
-11.372128 
-19.009727 
-1.425367 
-14.573641 
7.286821 
0.000000 
0.000000 

