# vtk DataFile Version 2.0
Unstructured Grid Example
ASCII
DATASET UNSTRUCTURED_GRID

POINTS 64 float
0.000000 0.000000 0.000000 
0.031250 0.000000 0.000000 
0.031250 0.000000 0.000000 
0.062500 0.000000 0.000000 
0.062500 0.000000 0.000000 
0.093750 0.000000 0.000000 
0.093750 0.000000 0.000000 
0.125000 0.000000 0.000000 
0.187500 -1.567146 0.000000 
0.218750 -6.747362 0.000000 
0.218750 -3.329848 0.000000 
0.250000 -8.402174 0.000000 
0.125000 1.002500 0.000000 
0.156250 -2.004999 0.000000 
0.156250 1.288886 0.000000 
0.187500 -5.585270 0.000000 
0.437500 -14.477917 0.000000 
0.468750 -16.066583 0.000000 
0.468750 -15.417338 0.000000 
0.500000 -15.776407 0.000000 
0.375000 -11.797680 0.000000 
0.406250 -15.296434 0.000000 
0.406250 -13.252893 0.000000 
0.437500 -15.884762 0.000000 
0.250000 -5.031392 0.000000 
0.281250 -10.071413 0.000000 
0.281250 -6.753345 0.000000 
0.312500 -11.667528 0.000000 
0.312500 -8.484440 0.000000 
0.343750 -13.119522 0.000000 
0.343750 -10.185058 0.000000 
0.375000 -14.353368 0.000000 
0.500000 -15.776407 0.000000 
0.531250 -15.417338 0.000000 
0.531250 -16.066583 0.000000 
0.562500 -14.477917 0.000000 
0.562500 -15.884762 0.000000 
0.593750 -13.252893 0.000000 
0.593750 -15.296434 0.000000 
0.625000 -11.797680 0.000000 
0.687500 -11.667528 0.000000 
0.718750 -6.753345 0.000000 
0.718750 -10.071413 0.000000 
0.750000 -5.031392 0.000000 
0.625000 -14.353368 0.000000 
0.656250 -10.185058 0.000000 
0.656250 -13.119522 0.000000 
0.687500 -8.484440 0.000000 
0.937500 0.000000 0.000000 
0.968750 0.000000 0.000000 
0.968750 0.000000 0.000000 
1.000000 0.000000 0.000000 
0.875000 0.000000 0.000000 
0.906250 0.000000 0.000000 
0.906250 0.000000 0.000000 
0.937500 0.000000 0.000000 
0.750000 -8.402174 0.000000 
0.781250 -3.329848 0.000000 
0.781250 -6.747362 0.000000 
0.812500 -1.567146 0.000000 
0.812500 -5.585270 0.000000 
0.843750 1.288886 0.000000 
0.843750 -2.004999 0.000000 
0.875000 1.002500 0.000000 

CELLS 32 96
2  0 1 
2  2 3 
2  4 5 
2  6 7 
2  8 9 
2  10 11 
2  12 13 
2  14 15 
2  16 17 
2  18 19 
2  20 21 
2  22 23 
2  24 25 
2  26 27 
2  28 29 
2  30 31 
2  32 33 
2  34 35 
2  36 37 
2  38 39 
2  40 41 
2  42 43 
2  44 45 
2  46 47 
2  48 49 
2  50 51 
2  52 53 
2  54 55 
2  56 57 
2  58 59 
2  60 61 
2  62 63 

CELL_TYPES 32
3
3
3
3
3
3
3
3
3
3
3
3
3
3
3
3
3
3
3
3
3
3
3
3
3
3
3
3
3
3
3
3

POINT_DATA 64

SCALARS lambda_h float 1
LOOKUP_TABLE default
0.000000 
0.000000 
0.000000 
0.000000 
0.000000 
0.000000 
0.000000 
0.000000 
-1.567146 
-6.747362 
-3.329848 
-8.402174 
1.002500 
-2.004999 
1.288886 
-5.585270 
-14.477917 
-16.066583 
-15.417338 
-15.776407 
-11.797680 
-15.296434 
-13.252893 
-15.884762 
-5.031392 
-10.071413 
-6.753345 
-11.667528 
-8.484440 
-13.119522 
-10.185058 
-14.353368 
-15.776407 
-15.417338 
-16.066583 
-14.477917 
-15.884762 
-13.252893 
-15.296434 
-11.797680 
-11.667528 
-6.753345 
-10.071413 
-5.031392 
-14.353368 
-10.185058 
-13.119522 
-8.484440 
0.000000 
0.000000 
0.000000 
0.000000 
0.000000 
0.000000 
0.000000 
0.000000 
-8.402174 
-3.329848 
-6.747362 
-1.567146 
-5.585270 
1.288886 
-2.004999 
1.002500 

