# vtk DataFile Version 2.0
Unstructured Grid Example
ASCII
DATASET UNSTRUCTURED_GRID

POINTS 32 float
0.000000 0.000000 0.000000 
0.062500 0.000000 0.000000 
0.062500 0.000000 0.000000 
0.125000 0.000000 0.000000 
0.125000 3.001594 0.000000 
0.187500 -6.003188 0.000000 
0.187500 0.946230 0.000000 
0.250000 -10.897243 0.000000 
0.375000 -11.158420 0.000000 
0.437500 -16.734055 0.000000 
0.437500 -14.360131 0.000000 
0.500000 -15.906268 0.000000 
0.250000 -3.683256 0.000000 
0.312500 -13.481743 0.000000 
0.312500 -7.414196 0.000000 
0.375000 -15.818350 0.000000 
0.500000 -15.906268 0.000000 
0.562500 -14.360131 0.000000 
0.562500 -16.734055 0.000000 
0.625000 -11.158420 0.000000 
0.625000 -15.818350 0.000000 
0.687500 -7.414196 0.000000 
0.687500 -13.481743 0.000000 
0.750000 -3.683256 0.000000 
0.875000 0.000000 0.000000 
0.937500 0.000000 0.000000 
0.937500 0.000000 0.000000 
1.000000 0.000000 0.000000 
0.750000 -10.897243 0.000000 
0.812500 0.946230 0.000000 
0.812500 -6.003188 0.000000 
0.875000 3.001594 0.000000 

CELLS 16 48
2  0 1 
2  2 3 
2  4 5 
2  6 7 
2  8 9 
2  10 11 
2  12 13 
2  14 15 
2  16 17 
2  18 19 
2  20 21 
2  22 23 
2  24 25 
2  26 27 
2  28 29 
2  30 31 

CELL_TYPES 16
3
3
3
3
3
3
3
3
3
3
3
3
3
3
3
3

POINT_DATA 32

SCALARS lambda_h float 1
LOOKUP_TABLE default
0.000000 
0.000000 
0.000000 
0.000000 
3.001594 
-6.003188 
0.946230 
-10.897243 
-11.158420 
-16.734055 
-14.360131 
-15.906268 
-3.683256 
-13.481743 
-7.414196 
-15.818350 
-15.906268 
-14.360131 
-16.734055 
-11.158420 
-15.818350 
-7.414196 
-13.481743 
-3.683256 
0.000000 
0.000000 
0.000000 
0.000000 
-10.897243 
0.946230 
-6.003188 
3.001594 

