# vtk DataFile Version 2.0
Unstructured Grid Example
ASCII
DATASET UNSTRUCTURED_GRID

POINTS 128 float
0.000000 0.000000 0.000000 
0.015625 0.000000 0.000000 
0.015625 0.000000 0.000000 
0.031250 0.000000 0.000000 
0.031250 0.000000 0.000000 
0.046875 0.000000 0.000000 
0.046875 0.000000 0.000000 
0.062500 0.000000 0.000000 
0.093750 0.000000 0.000000 
0.109375 0.000000 0.000000 
0.109375 0.000000 0.000000 
0.125000 0.000000 0.000000 
0.062500 0.000000 0.000000 
0.078125 0.000000 0.000000 
0.078125 0.000000 0.000000 
0.093750 0.000000 0.000000 
0.218750 -4.101878 0.000000 
0.234375 -6.655555 0.000000 
0.234375 -4.954476 0.000000 
0.250000 -7.504036 0.000000 
0.187500 -2.377560 0.000000 
0.203125 -4.960428 0.000000 
0.203125 -3.245840 0.000000 
0.218750 -5.806735 0.000000 
0.125000 0.000000 0.000000 
0.140625 0.000000 0.000000 
0.140625 1.339320 0.000000 
0.156250 -2.678641 0.000000 
0.156250 -0.325502 0.000000 
0.171875 -3.366958 0.000000 
0.171875 -1.467762 0.000000 
0.187500 -4.123893 0.000000 
0.468750 -15.464951 0.000000 
0.484375 -15.880309 0.000000 
0.484375 -15.724145 0.000000 
0.500000 -15.777280 0.000000 
0.437500 -14.717056 0.000000 
0.453125 -15.694548 0.000000 
0.453125 -15.134030 0.000000 
0.468750 -15.838091 0.000000 
0.375000 -12.329662 0.000000 
0.390625 -14.204738 0.000000 
0.390625 -13.018056 0.000000 
0.406250 -14.703026 0.000000 
0.406250 -13.651165 0.000000 
0.421875 -15.121778 0.000000 
0.421875 -14.220261 0.000000 
0.437500 -15.454199 0.000000 
0.250000 -5.806942 0.000000 
0.265625 -8.348663 0.000000 
0.265625 -6.659769 0.000000 
0.281250 -9.184729 0.000000 
0.281250 -7.511419 0.000000 
0.296875 -10.006389 0.000000 
0.296875 -8.358698 0.000000 
0.312500 -10.806801 0.000000 
0.343750 -10.822354 0.000000 
0.359375 -13.000977 0.000000 
0.359375 -11.594851 0.000000 
0.375000 -13.634605 0.000000 
0.312500 -9.197000 0.000000 
0.328125 -11.578299 0.000000 
0.328125 -10.020504 0.000000 
0.343750 -12.312591 0.000000 
0.500000 -15.777280 0.000000 
0.515625 -15.724145 0.000000 
0.515625 -15.880309 0.000000 
0.531250 -15.464951 0.000000 
0.531250 -15.838091 0.000000 
0.546875 -15.134030 0.000000 
0.546875 -15.694548 0.000000 
0.562500 -14.717056 0.000000 
0.593750 -14.703026 0.000000 
0.609375 -13.018056 0.000000 
0.609375 -14.204738 0.000000 
0.625000 -12.329662 0.000000 
0.562500 -15.454199 0.000000 
0.578125 -14.220261 0.000000 
0.578125 -15.121778 0.000000 
0.593750 -13.651165 0.000000 
0.718750 -9.184729 0.000000 
0.734375 -6.659769 0.000000 
0.734375 -8.348663 0.000000 
0.750000 -5.806942 0.000000 
0.687500 -10.806801 0.000000 
0.703125 -8.358698 0.000000 
0.703125 -10.006389 0.000000 
0.718750 -7.511419 0.000000 
0.625000 -13.634605 0.000000 
0.640625 -11.594851 0.000000 
0.640625 -13.000977 0.000000 
0.656250 -10.822354 0.000000 
0.656250 -12.312591 0.000000 
0.671875 -10.020504 0.000000 
0.671875 -11.578299 0.000000 
0.687500 -9.197000 0.000000 
0.968750 0.000000 0.000000 
0.984375 0.000000 0.000000 
0.984375 0.000000 0.000000 
1.000000 0.000000 0.000000 
0.937500 0.000000 0.000000 
0.953125 0.000000 0.000000 
0.953125 0.000000 0.000000 
0.968750 0.000000 0.000000 
0.875000 0.000000 0.000000 
0.890625 0.000000 0.000000 
0.890625 0.000000 0.000000 
0.906250 0.000000 0.000000 
0.906250 0.000000 0.000000 
0.921875 0.000000 0.000000 
0.921875 0.000000 0.000000 
0.937500 0.000000 0.000000 
0.750000 -7.504036 0.000000 
0.765625 -4.954476 0.000000 
0.765625 -6.655555 0.000000 
0.781250 -4.101878 0.000000 
0.781250 -5.806735 0.000000 
0.796875 -3.245840 0.000000 
0.796875 -4.960428 0.000000 
0.812500 -2.377560 0.000000 
0.843750 -2.678641 0.000000 
0.859375 1.339320 0.000000 
0.859375 0.000000 0.000000 
0.875000 0.000000 0.000000 
0.812500 -4.123893 0.000000 
0.828125 -1.467762 0.000000 
0.828125 -3.366958 0.000000 
0.843750 -0.325502 0.000000 

CELLS 64 192
2  0 1 
2  2 3 
2  4 5 
2  6 7 
2  8 9 
2  10 11 
2  12 13 
2  14 15 
2  16 17 
2  18 19 
2  20 21 
2  22 23 
2  24 25 
2  26 27 
2  28 29 
2  30 31 
2  32 33 
2  34 35 
2  36 37 
2  38 39 
2  40 41 
2  42 43 
2  44 45 
2  46 47 
2  48 49 
2  50 51 
2  52 53 
2  54 55 
2  56 57 
2  58 59 
2  60 61 
2  62 63 
2  64 65 
2  66 67 
2  68 69 
2  70 71 
2  72 73 
2  74 75 
2  76 77 
2  78 79 
2  80 81 
2  82 83 
2  84 85 
2  86 87 
2  88 89 
2  90 91 
2  92 93 
2  94 95 
2  96 97 
2  98 99 
2  100 101 
2  102 103 
2  104 105 
2  106 107 
2  108 109 
2  110 111 
2  112 113 
2  114 115 
2  116 117 
2  118 119 
2  120 121 
2  122 123 
2  124 125 
2  126 127 

CELL_TYPES 64
3
3
3
3
3
3
3
3
3
3
3
3
3
3
3
3
3
3
3
3
3
3
3
3
3
3
3
3
3
3
3
3
3
3
3
3
3
3
3
3
3
3
3
3
3
3
3
3
3
3
3
3
3
3
3
3
3
3
3
3
3
3
3
3

POINT_DATA 128

SCALARS lambda_h float 1
LOOKUP_TABLE default
0.000000 
0.000000 
0.000000 
0.000000 
0.000000 
0.000000 
0.000000 
0.000000 
0.000000 
0.000000 
0.000000 
0.000000 
0.000000 
0.000000 
0.000000 
0.000000 
-4.101878 
-6.655555 
-4.954476 
-7.504036 
-2.377560 
-4.960428 
-3.245840 
-5.806735 
0.000000 
0.000000 
1.339320 
-2.678641 
-0.325502 
-3.366958 
-1.467762 
-4.123893 
-15.464951 
-15.880309 
-15.724145 
-15.777280 
-14.717056 
-15.694548 
-15.134030 
-15.838091 
-12.329662 
-14.204738 
-13.018056 
-14.703026 
-13.651165 
-15.121778 
-14.220261 
-15.454199 
-5.806942 
-8.348663 
-6.659769 
-9.184729 
-7.511419 
-10.006389 
-8.358698 
-10.806801 
-10.822354 
-13.000977 
-11.594851 
-13.634605 
-9.197000 
-11.578299 
-10.020504 
-12.312591 
-15.777280 
-15.724145 
-15.880309 
-15.464951 
-15.838091 
-15.134030 
-15.694548 
-14.717056 
-14.703026 
-13.018056 
-14.204738 
-12.329662 
-15.454199 
-14.220261 
-15.121778 
-13.651165 
-9.184729 
-6.659769 
-8.348663 
-5.806942 
-10.806801 
-8.358698 
-10.006389 
-7.511419 
-13.634605 
-11.594851 
-13.000977 
-10.822354 
-12.312591 
-10.020504 
-11.578299 
-9.197000 
0.000000 
0.000000 
0.000000 
0.000000 
0.000000 
0.000000 
0.000000 
0.000000 
0.000000 
0.000000 
0.000000 
0.000000 
0.000000 
0.000000 
0.000000 
0.000000 
-7.504036 
-4.954476 
-6.655555 
-4.101878 
-5.806735 
-3.245840 
-4.960428 
-2.377560 
-2.678641 
1.339320 
0.000000 
0.000000 
-4.123893 
-1.467762 
-3.366958 
-0.325502 

