# vtk DataFile Version 2.0
Unstructured Grid Example
ASCII
DATASET UNSTRUCTURED_GRID

POINTS 4 float
0.000000 14.307489 0.000000 
0.500000 -28.614977 0.000000 
0.500000 -28.614977 0.000000 
1.000000 14.307489 0.000000 

CELLS 2 6
2  0 1 
2  2 3 

CELL_TYPES 2
3
3

POINT_DATA 4

SCALARS lambda_h float 1
LOOKUP_TABLE default
14.307489 
-28.614977 
-28.614977 
14.307489 

