# vtk DataFile Version 2.0
Unstructured Grid Example
ASCII
DATASET UNSTRUCTURED_GRID

POINTS 4225 float
0.008425 -0.277028 0.000000 
0.991575 -0.277028 0.000000 
1.000000 1.000000 0.000000 
0.000000 1.000000 0.000000 
0.500000 -0.099947 0.000000 
0.983110 0.296225 0.000000 
0.500000 1.000000 0.000000 
0.016890 0.296225 0.000000 
0.500000 0.295580 0.000000 
0.235481 -0.169726 0.000000 
0.500000 0.065419 0.000000 
0.222868 0.032935 0.000000 
0.764519 -0.169726 0.000000 
0.777132 0.032935 0.000000 
1.025977 0.000600 0.000000 
0.749185 0.285281 0.000000 
0.935034 0.612530 0.000000 
0.720844 0.607564 0.000000 
0.750000 1.000000 0.000000 
0.500000 0.611363 0.000000 
0.250000 1.000000 0.000000 
0.279156 0.607564 0.000000 
0.064966 0.612530 0.000000 
0.250815 0.285281 0.000000 
-0.025977 0.000600 0.000000 
0.128741 -0.235243 0.000000 
0.221474 -0.073945 0.000000 
0.096908 -0.117197 0.000000 
0.500000 -0.024282 0.000000 
0.356852 -0.038002 0.000000 
0.359788 -0.119381 0.000000 
0.365482 0.165456 0.000000 
0.359018 0.056219 0.000000 
0.500000 0.171142 0.000000 
0.640212 -0.119381 0.000000 
0.643148 -0.038002 0.000000 
0.903092 -0.117197 0.000000 
0.778526 -0.073945 0.000000 
0.871259 -0.235243 0.000000 
0.640982 0.056219 0.000000 
0.634518 0.165456 0.000000 
1.021789 -0.145384 0.000000 
0.905524 0.008117 0.000000 
0.868655 0.282228 0.000000 
0.891056 0.140627 0.000000 
1.009090 0.147742 0.000000 
0.765706 0.151876 0.000000 
0.625726 0.292482 0.000000 
0.956186 0.449837 0.000000 
0.845329 0.436047 0.000000 
0.829082 0.796548 0.000000 
0.827981 0.606079 0.000000 
0.930624 0.787334 0.000000 
0.732358 0.436231 0.000000 
0.616985 0.440173 0.000000 
0.875000 1.000000 0.000000 
0.723277 0.799055 0.000000 
0.500000 0.800441 0.000000 
0.612787 0.800020 0.000000 
0.625000 1.000000 0.000000 
0.611339 0.610174 0.000000 
0.500000 0.442108 0.000000 
0.375000 1.000000 0.000000 
0.387213 0.800020 0.000000 
0.170918 0.796548 0.000000 
0.276723 0.799055 0.000000 
0.125000 1.000000 0.000000 
0.388661 0.610174 0.000000 
0.383015 0.440173 0.000000 
0.069376 0.787334 0.000000 
0.172019 0.606079 0.000000 
0.131345 0.282228 0.000000 
0.154671 0.436047 0.000000 
0.043814 0.449837 0.000000 
0.267642 0.436231 0.000000 
0.374274 0.292482 0.000000 
-0.009090 0.147742 0.000000 
0.108944 0.140627 0.000000 
0.094476 0.008117 0.000000 
-0.021789 -0.145384 0.000000 
0.234294 0.151876 0.000000 
0.068856 -0.259171 0.000000 
0.107794 -0.177455 0.000000 
0.050000 -0.198180 0.000000 
0.226208 -0.123186 0.000000 
0.165599 -0.150455 0.000000 
0.181163 -0.201590 0.000000 
0.155633 -0.039351 0.000000 
0.157895 -0.096089 0.000000 
0.220598 -0.021914 0.000000 
0.500000 -0.063799 0.000000 
0.428069 -0.068009 0.000000 
0.428728 -0.104952 0.000000 
0.428232 0.015802 0.000000 
0.427864 -0.027806 0.000000 
0.500000 0.018719 0.000000 
0.295038 -0.141664 0.000000 
0.357735 -0.080182 0.000000 
0.290239 -0.099126 0.000000 
0.434672 0.229759 0.000000 
0.432518 0.169665 0.000000 
0.500000 0.230870 0.000000 
0.290093 0.045742 0.000000 
0.361825 0.108800 0.000000 
0.294022 0.100583 0.000000 
0.500000 0.116113 0.000000 
0.430645 0.114218 0.000000 
0.429181 0.063045 0.000000 
0.287868 -0.053886 0.000000 
0.357300 0.007381 0.000000 
0.287915 -0.005667 0.000000 
0.571272 -0.104952 0.000000 
0.571931 -0.068009 0.000000 
0.709761 -0.099126 0.000000 
0.642265 -0.080182 0.000000 
0.704962 -0.141664 0.000000 
0.572136 -0.027806 0.000000 
0.571768 0.015802 0.000000 
0.950000 -0.198180 0.000000 
0.892206 -0.177455 0.000000 
0.931144 -0.259171 0.000000 
0.779402 -0.021914 0.000000 
0.842105 -0.096089 0.000000 
0.844367 -0.039351 0.000000 
0.818837 -0.201590 0.000000 
0.834401 -0.150455 0.000000 
0.773792 -0.123186 0.000000 
0.567482 0.169665 0.000000 
0.565328 0.229759 0.000000 
0.570819 0.063045 0.000000 
0.569355 0.114218 0.000000 
0.705978 0.100583 0.000000 
0.638175 0.108800 0.000000 
0.709907 0.045742 0.000000 
0.712132 -0.053886 0.000000 
0.712085 -0.005667 0.000000 
0.642700 0.007381 0.000000 
1.008813 -0.214154 0.000000 
0.962720 -0.133852 0.000000 
0.966736 0.000881 0.000000 
0.967969 -0.067269 0.000000 
1.027368 -0.072972 0.000000 
0.907053 -0.055369 0.000000 
0.842360 0.019636 0.000000 
0.926541 0.286124 0.000000 
0.939360 0.212531 0.000000 
0.996670 0.221560 0.000000 
0.819801 0.212122 0.000000 
0.880376 0.210118 0.000000 
0.809500 0.282532 0.000000 
1.019317 0.074211 0.000000 
0.951046 0.140687 0.000000 
0.960591 0.070212 0.000000 
0.630274 0.226556 0.000000 
0.563015 0.294893 0.000000 
0.772359 0.090774 0.000000 
0.700709 0.159165 0.000000 
0.687862 0.288991 0.000000 
0.694525 0.221840 0.000000 
0.757784 0.216584 0.000000 
0.899791 0.073387 0.000000 
0.829225 0.145080 0.000000 
0.837019 0.081027 0.000000 
0.969387 0.372078 0.000000 
0.913494 0.361911 0.000000 
0.889865 0.522064 0.000000 
0.900982 0.440383 0.000000 
0.944382 0.529869 0.000000 
0.856716 0.357378 0.000000 
0.799038 0.356721 0.000000 
0.896399 0.895440 0.000000 
0.879782 0.793018 0.000000 
0.942947 0.881595 0.000000 
0.774643 0.606422 0.000000 
0.824933 0.698569 0.000000 
0.772675 0.699881 0.000000 
0.929637 0.698175 0.000000 
0.876893 0.697495 0.000000 
0.881266 0.607528 0.000000 
0.621170 0.363586 0.000000 
0.560700 0.365412 0.000000 
0.740495 0.358363 0.000000 
0.681163 0.360992 0.000000 
0.669797 0.520829 0.000000 
0.674951 0.438191 0.000000 
0.725499 0.519231 0.000000 
0.835364 0.518760 0.000000 
0.780649 0.518240 0.000000 
0.789144 0.435139 0.000000 
0.937500 1.000000 0.000000 
0.844763 0.898838 0.000000 
0.733256 0.899616 0.000000 
0.789832 0.899513 0.000000 
0.812500 1.000000 0.000000 
0.776919 0.798201 0.000000 
0.719606 0.701100 0.000000 
0.500000 0.899701 0.000000 
0.558840 0.899646 0.000000 
0.562500 1.000000 0.000000 
0.555589 0.703618 0.000000 
0.556537 0.800297 0.000000 
0.500000 0.703860 0.000000 
0.687500 1.000000 0.000000 
0.617471 0.899624 0.000000 
0.675689 0.899619 0.000000 
0.558601 0.441590 0.000000 
0.500000 0.366049 0.000000 
0.666404 0.608936 0.000000 
0.613554 0.522399 0.000000 
0.500000 0.523933 0.000000 
0.556889 0.523515 0.000000 
0.555796 0.611031 0.000000 
0.668464 0.799613 0.000000 
0.610891 0.703036 0.000000 
0.665637 0.702171 0.000000 
0.437500 1.000000 0.000000 
0.441160 0.899646 0.000000 
0.324311 0.899619 0.000000 
0.382529 0.899624 0.000000 
0.312500 1.000000 0.000000 
0.443463 0.800297 0.000000 
0.444411 0.703618 0.000000 
0.103601 0.895440 0.000000 
0.155237 0.898838 0.000000 
0.062500 1.000000 0.000000 
0.280394 0.701100 0.000000 
0.223081 0.798201 0.000000 
0.227325 0.699881 0.000000 
0.187500 1.000000 0.000000 
0.210168 0.899513 0.000000 
0.266744 0.899616 0.000000 
0.441399 0.441590 0.000000 
0.439300 0.365412 0.000000 
0.444204 0.611031 0.000000 
0.443111 0.523515 0.000000 
0.330203 0.520829 0.000000 
0.386446 0.522399 0.000000 
0.333596 0.608936 0.000000 
0.331536 0.799613 0.000000 
0.334363 0.702171 0.000000 
0.389109 0.703036 0.000000 
0.057053 0.881595 0.000000 
0.120218 0.793018 0.000000 
0.118734 0.607528 0.000000 
0.123107 0.697495 0.000000 
0.070363 0.698175 0.000000 
0.175067 0.698569 0.000000 
0.225357 0.606422 0.000000 
0.073459 0.286124 0.000000 
0.086506 0.361911 0.000000 
0.030613 0.372078 0.000000 
0.200962 0.356721 0.000000 
0.143284 0.357378 0.000000 
0.190500 0.282532 0.000000 
0.055618 0.529869 0.000000 
0.099018 0.440383 0.000000 
0.110135 0.522064 0.000000 
0.378830 0.363586 0.000000 
0.436985 0.294893 0.000000 
0.274501 0.519231 0.000000 
0.325049 0.438191 0.000000 
0.312138 0.288991 0.000000 
0.318837 0.360992 0.000000 
0.259505 0.358363 0.000000 
0.164636 0.518760 0.000000 
0.210856 0.435139 0.000000 
0.219351 0.518240 0.000000 
0.003330 0.221560 0.000000 
0.060640 0.212531 0.000000 
0.039409 0.070212 0.000000 
0.048954 0.140687 0.000000 
-0.019317 0.074211 0.000000 
0.119624 0.210118 0.000000 
0.180199 0.212122 0.000000 
0.037280 -0.133852 0.000000 
-0.008813 -0.214154 0.000000 
0.157640 0.019636 0.000000 
0.092947 -0.055369 0.000000 
-0.027368 -0.072972 0.000000 
0.032031 -0.067269 0.000000 
0.033264 0.000881 0.000000 
0.369726 0.226556 0.000000 
0.242216 0.216584 0.000000 
0.305475 0.221840 0.000000 
0.299291 0.159165 0.000000 
0.227641 0.090774 0.000000 
0.100209 0.073387 0.000000 
0.162981 0.081027 0.000000 
0.170775 0.145080 0.000000 
0.038439 -0.268323 0.000000 
0.058946 -0.229193 0.000000 
0.029304 -0.237914 0.000000 
0.116603 -0.206881 0.000000 
0.088172 -0.219118 0.000000 
0.099276 -0.248439 0.000000 
0.072065 -0.157694 0.000000 
0.079081 -0.188716 0.000000 
0.101372 -0.147523 0.000000 
0.230256 -0.146767 0.000000 
0.200755 -0.161277 0.000000 
0.207707 -0.185283 0.000000 
0.191758 -0.111089 0.000000 
0.195499 -0.136557 0.000000 
0.223310 -0.098916 0.000000 
0.155531 -0.218632 0.000000 
0.172143 -0.176502 0.000000 
0.144247 -0.192148 0.000000 
0.188493 -0.002537 0.000000 
0.187815 -0.030635 0.000000 
0.221381 0.005151 0.000000 
0.127128 -0.107014 0.000000 
0.156168 -0.067998 0.000000 
0.124897 -0.077597 0.000000 
0.220601 -0.048277 0.000000 
0.188058 -0.058096 0.000000 
0.189331 -0.084921 0.000000 
0.136443 -0.164397 0.000000 
0.160967 -0.123599 0.000000 
0.130894 -0.135963 0.000000 
0.500000 -0.082291 0.000000 
0.464052 -0.083449 0.000000 
0.464218 -0.101208 0.000000 
0.463863 -0.045439 0.000000 
0.463930 -0.064861 0.000000 
0.500000 -0.044466 0.000000 
0.393832 -0.111068 0.000000 
0.428354 -0.086883 0.000000 
0.393146 -0.092497 0.000000 
0.464271 0.040922 0.000000 
0.464062 0.017981 0.000000 
0.500000 0.041590 0.000000 
0.392154 -0.032118 0.000000 
0.427974 -0.006440 0.000000 
0.392267 -0.010368 0.000000 
0.500000 -0.003229 0.000000 
0.463925 -0.004040 0.000000 
0.463859 -0.025172 0.000000 
0.264584 -0.155106 0.000000 
0.292355 -0.120710 0.000000 
0.260771 -0.133171 0.000000 
0.358637 -0.100141 0.000000 
0.325000 -0.109620 0.000000 
0.326805 -0.129666 0.000000 
0.322590 -0.067481 0.000000 
0.323577 -0.088904 0.000000 
0.357131 -0.059478 0.000000 
0.427900 -0.048321 0.000000 
0.392274 -0.053040 0.000000 
[...]
POINT_DATA 4225

SCALARS u_h float 2
LOOKUP_TABLE default
0.008425 -0.277028 
-0.008425 -0.277028 
0.000000 0.000000 
0.000000 0.000000 
0.000000 -0.099947 
-0.016890 -0.203775 
0.000000 0.000000 
0.016890 -0.203775 
0.000000 -0.204420 
-0.014519 -0.169726 
0.000000 -0.184581 
-0.027132 -0.217065 
0.014519 -0.169726 
0.027132 -0.217065 
0.025977 -0.249400 
-0.000815 -0.214719 
-0.064966 -0.137470 
-0.029156 -0.142436 
0.000000 0.000000 
0.000000 -0.138637 
0.000000 0.000000 
0.029156 -0.142436 
0.064966 -0.137470 
0.000815 -0.214719 
-0.025977 -0.249400 
0.003741 -0.235243 
-0.028526 -0.198945 
-0.028092 -0.242197 
0.000000 -0.149282 
-0.018148 -0.163002 
-0.015212 -0.119381 
-0.009518 -0.209544 
-0.015982 -0.193781 
0.000000 -0.203858 
0.015212 -0.119381 
0.018148 -0.163002 
0.028092 -0.242197 
0.028526 -0.198945 
-0.003741 -0.235243 
0.015982 -0.193781 
0.009518 -0.209544 
0.021789 -0.270384 
0.030524 -0.241883 
-0.006345 -0.217772 
0.016056 -0.234373 
0.009090 -0.227258 
0.015706 -0.223124 
0.000726 -0.207518 
-0.043814 -0.175163 
-0.029671 -0.188953 
-0.045918 -0.078452 
-0.047019 -0.143921 
-0.069376 -0.087666 
-0.017642 -0.188769 
-0.008015 -0.184827 
0.000000 0.000000 
-0.026723 -0.075945 
0.000000 -0.074559 
-0.012213 -0.074980 
0.000000 0.000000 
-0.013661 -0.139826 
0.000000 -0.182892 
0.000000 0.000000 
0.012213 -0.074980 
0.045918 -0.078452 
0.026723 -0.075945 
0.000000 0.000000 
0.013661 -0.139826 
0.008015 -0.184827 
0.069376 -0.087666 
0.047019 -0.143921 
0.006345 -0.217772 
0.029671 -0.188953 
0.043814 -0.175163 
0.017642 -0.188769 
-0.000726 -0.207518 
-0.009090 -0.227258 
-0.016056 -0.234373 
-0.030524 -0.241883 
-0.021789 -0.270384 
-0.015706 -0.223124 
0.006356 -0.259171 
-0.017206 -0.239955 
-0.012500 -0.260680 
-0.023792 -0.185686 
-0.021901 -0.212955 
-0.006337 -0.201590 
-0.031867 -0.226851 
-0.029605 -0.221089 
-0.029402 -0.209414 
0.000000 -0.126299 
-0.009431 -0.130509 
-0.008772 -0.104952 
-0.009268 -0.171698 
-0.009636 -0.152806 
0.000000 -0.168781 
-0.017462 -0.141664 
-0.017265 -0.142682 
-0.022261 -0.161626 
-0.002828 -0.207741 
-0.004982 -0.205335 
0.000000 -0.206630 
-0.022407 -0.204258 
-0.013175 -0.203700 
-0.018478 -0.211917 
0.000000 -0.196387 
-0.006855 -0.198282 
-0.008319 -0.186955 
-0.024632 -0.178886 
-0.017700 -0.180119 
-0.024585 -0.193167 
0.008772 -0.104952 
0.009431 -0.130509 
0.022261 -0.161626 
0.017265 -0.142682 
0.017462 -0.141664 
0.009636 -0.152806 
0.009268 -0.171698 
0.012500 -0.260680 
0.017206 -0.239955 
-0.006356 -0.259171 
0.029402 -0.209414 
0.029605 -0.221089 
0.031867 -0.226851 
0.006337 -0.201590 
0.021901 -0.212955 
0.023792 -0.185686 
0.004982 -0.205335 
0.002828 -0.207741 
0.008319 -0.186955 
0.006855 -0.198282 
0.018478 -0.211917 
0.013175 -0.203700 
0.022407 -0.204258 
0.024632 -0.178886 
0.024585 -0.193167 
0.017700 -0.180119 
0.008813 -0.276654 
0.025220 -0.258852 
0.029236 -0.249119 
0.030469 -0.254769 
0.027368 -0.260472 
0.032053 -0.242869 
0.029860 -0.230364 
-0.010959 -0.213876 
0.001860 -0.224969 
-0.003330 -0.215940 
0.007301 -0.225378 
0.005376 -0.227382 
-0.003000 -0.217468 
0.019317 -0.238289 
0.013546 -0.234313 
0.023091 -0.242288 
0.005274 -0.210944 
0.000515 -0.205107 
0.022359 -0.221726 
0.013209 -0.215835 
0.000362 -0.211009 
0.007025 -0.215660 
0.007784 -0.220916 
0.024791 -0.239113 
0.016725 -0.229920 
0.024519 -0.231473 
-0.030613 -0.190422 
-0.024006 -0.200589 
-0.047635 -0.165436 
-0.036518 -0.184617 
-0.055618 -0.157631 
-0.018284 -0.205122 
-0.013462 -0.205779 
-0.041101 -0.042060 
-0.057718 -0.081982 
-0.057053 -0.055905 
-0.037857 -0.143578 
-0.050067 -0.113931 
-0.039825 -0.112619 
-0.070363 -0.114325 
-0.060607 -0.115005 
-0.056234 -0.142472 
-0.003830 -0.198914 
-0.001800 -0.197088 
-0.009505 -0.204137 
-0.006337 -0.201508 
-0.017703 -0.166671 
-0.012549 -0.186809 
-0.024501 -0.168269 
-0.039636 -0.168740 
-0.031851 -0.169260 
-0.023356 -0.189861 
0.000000 0.000000 
-0.030237 -0.038662 
-0.016744 -0.037884 
-0.022668 -0.037987 
0.000000 0.000000 
-0.035581 -0.076799 
-0.030394 -0.111400 
-0.000000 -0.037799 
-0.003660 -0.037854 
0.000000 0.000000 
-0.006911 -0.108882 
-0.005963 -0.074703 
0.000000 -0.108640 
0.000000 0.000000 
-0.007529 -0.037876 
-0.011811 -0.037881 
-0.003899 -0.183410 
0.000000 -0.196451 
-0.021096 -0.141064 
-0.011446 -0.165101 
0.000000 -0.163567 
-0.005611 -0.163985 
-0.006704 -0.138969 
-0.019036 -0.075387 
-0.014109 -0.109464 
-0.021863 -0.110329 
0.000000 0.000000 
0.003660 -0.037854 
0.011811 -0.037881 
0.007529 -0.037876 
0.000000 0.000000 
0.005963 -0.074703 
0.006911 -0.108882 
0.041101 -0.042060 
0.030237 -0.038662 
0.000000 0.000000 
0.030394 -0.111400 
0.035581 -0.076799 
0.039825 -0.112619 
0.000000 0.000000 
0.022668 -0.037987 
0.016744 -0.037884 
0.003899 -0.183410 
0.001800 -0.197088 
0.006704 -0.138969 
0.005611 -0.163985 
0.017703 -0.166671 
0.011446 -0.165101 
0.021096 -0.141064 
0.019036 -0.075387 
0.021863 -0.110329 
0.014109 -0.109464 
0.057053 -0.055905 
0.057718 -0.081982 
0.056234 -0.142472 
0.060607 -0.115005 
0.070363 -0.114325 
0.050067 -0.113931 
0.037857 -0.143578 
0.010959 -0.213876 
0.024006 -0.200589 
0.030613 -0.190422 
0.013462 -0.205779 
0.018284 -0.205122 
0.003000 -0.217468 
0.055618 -0.157631 
0.036518 -0.184617 
0.047635 -0.165436 
0.003830 -0.198914 
-0.000515 -0.205107 
0.024501 -0.168269 
0.012549 -0.186809 
-0.000362 -0.211009 
0.006337 -0.201508 
0.009505 -0.204137 
0.039636 -0.168740 
0.023356 -0.189861 
0.031851 -0.169260 
0.003330 -0.215940 
-0.001860 -0.224969 
-0.023091 -0.242288 
-0.013546 -0.234313 
-0.019317 -0.238289 
-0.005376 -0.227382 
-0.007301 -0.225378 
-0.025220 -0.258852 
-0.008813 -0.276654 
-0.029860 -0.230364 
-0.032053 -0.242869 
-0.027368 -0.260472 
-0.030469 -0.254769 
-0.029236 -0.249119 
-0.005274 -0.210944 
-0.007784 -0.220916 
-0.007025 -0.215660 
-0.013209 -0.215835 
-0.022359 -0.221726 
-0.024791 -0.239113 
-0.024519 -0.231473 
-0.016725 -0.229920 
0.007189 -0.268323 
-0.003554 -0.260443 
-0.001946 -0.269164 
-0.008397 -0.238131 
-0.005578 -0.250368 
0.005526 -0.248439 
-0.021685 -0.251444 
-0.014669 -0.251216 
-0.023628 -0.241273 
-0.019744 -0.178017 
-0.017995 -0.192527 
-0.011043 -0.185283 
-0.026992 -0.204839 
-0.023251 -0.199057 
-0.026690 -0.192666 
-0.000719 -0.218632 
-0.015357 -0.207752 
-0.012003 -0.223398 
-0.030257 -0.221287 
-0.030935 -0.218135 
-0.028619 -0.213599 
-0.029122 -0.232014 
-0.031332 -0.224248 
-0.031353 -0.233847 
-0.029399 -0.204527 
-0.030692 -0.214346 
-0.029419 -0.209921 
-0.019807 -0.226897 
-0.026533 -0.217349 
-0.025356 -0.229713 
0.000000 -0.113541 
-0.004698 -0.114699 
-0.004532 -0.101208 
-0.004887 -0.139189 
-0.004820 -0.127361 
0.000000 -0.138216 
-0.012418 -0.111068 
-0.009146 -0.118133 
-0.013104 -0.123747 
-0.004479 -0.177828 
-0.004688 -0.169519 
0.000000 -0.177160 
-0.014096 -0.157118 
-0.009526 -0.162690 
-0.013983 -0.166618 
0.000000 -0.159479 
-0.004825 -0.160290 
-0.004891 -0.150172 
-0.016666 -0.155106 
-0.020145 -0.151960 
-0.020479 -0.164421 
-0.016363 -0.131391 
-0.018750 -0.140870 
-0.016945 -0.129666 
-0.021160 -0.161231 
-0.020173 -0.151404 
-0.017869 -0.153228 
-0.009600 -0.142071 
-0.013976 -0.146790 
-0.013637 -0.135659 
-0.000874 -0.206364 
-0.001442 -0.206906 
0.000000 -0.206152 
-0.007331 -0.207128 
-0.003931 -0.207143 
-0.005766 -0.208712 
0.000000 -0.205854 
-0.001994 -0.206179 
-0.002520 -0.204233 
-0.025005 -0.210473 
-0.020637 -0.208534 
-0.023044 -0.214015 
-0.014701 -0.199228 
-0.017839 -0.203548 
-0.019382 -0.198634 
-0.013852 -0.210517 
-0.015982 -0.207523 
-0.011437 -0.207154 
0.000000 -0.191004 
-0.003860 -0.191543 
-0.004201 -0.185182 
-0.003012 -0.201113 
-0.003462 -0.196868 
0.000000 -0.200688 
-0.012271 -0.189849 
-0.007645 -0.193130 
-0.011282 -0.195718 
-0.008789 -0.204403 
-0.010113 -0.200584 
-0.005962 -0.202365 
-0.023471 -0.173130 
-0.021687 -0.170316 
-0.023760 -0.170614 
-0.025611 -0.181170 
-0.026924 -0.188507 
-0.008863 -0.179798 
-0.016990 -0.187398 
-0.013062 -0.183017 
-0.013637 -0.175262 
-0.018090 -0.171976 
-0.026437 -0.206126 
-0.027459 -0.195122 
-0.027276 -0.201001 
-0.023740 -0.199125 
-0.020572 -0.192819 
-0.021753 -0.178629 
-0.021373 -0.186141 
-0.024896 -0.186412 
0.004532 -0.101208 
0.004698 -0.114699 
0.013104 -0.123747 
0.009146 -0.118133 
0.012418 -0.111068 
0.004820 -0.127361 
0.004887 -0.139189 
0.020479 -0.164421 
0.020145 -0.151960 
0.016666 -0.155106 
0.017869 -0.153228 
0.020173 -0.151404 
0.021160 -0.161231 
0.016945 -0.129666 
0.018750 -0.140870 
0.016363 -0.131391 
0.004688 -0.169519 
0.004479 -0.177828 
0.004891 -0.150172 
0.004825 -0.160290 
0.013983 -0.166618 
0.009526 -0.162690 
0.014096 -0.157118 
0.013637 -0.135659 
0.013976 -0.146790 
0.009600 -0.142071 
0.001946 -0.269164 
0.003554 -0.260443 
-0.007189 -0.268323 
0.023628 -0.241273 
0.014669 -0.251216 
0.021685 -0.251444 
-0.005526 -0.248439 
0.005578 -0.250368 
0.008397 -0.238131 
0.028619 -0.213599 
0.030935 -0.218135 
0.030257 -0.221287 
0.029419 -0.209921 
0.030692 -0.214346 
0.029399 -0.204527 
0.031353 -0.233847 
0.031332 -0.224248 
0.029122 -0.232014 
0.011043 -0.185283 
0.017995 -0.192527 
0.019744 -0.178017 
0.012003 -0.223398 
0.015357 -0.207752 
0.000719 -0.218632 
0.026690 -0.192666 
0.023251 -0.199057 
0.026992 -0.204839 
0.025356 -0.229713 
0.026533 -0.217349 
0.019807 -0.226897 
0.001442 -0.206906 
0.000874 -0.206364 
0.002520 -0.204233 
0.001994 -0.206179 
0.005766 -0.208712 
0.003931 -0.207143 
0.007331 -0.207128 
0.004201 -0.185182 
0.003860 -0.191543 
0.011282 -0.195718 
0.007645 -0.193130 
0.012271 -0.189849 
0.003462 -0.196868 
0.003012 -0.201113 
0.023044 -0.214015 
0.020637 -0.208534 
0.025005 -0.210473 
0.011437 -0.207154 
0.015982 -0.207523 
0.013852 -0.210517 
0.019382 -0.198634 
0.017839 -0.203548 
0.014701 -0.199228 
0.005962 -0.202365 
0.010113 -0.200584 
0.008789 -0.204403 
0.023471 -0.173130 
0.026924 -0.188507 
0.025611 -0.181170 
0.023760 -0.170614 
0.021687 -0.170316 
0.026437 -0.206126 
0.020572 -0.192819 
0.023740 -0.199125 
0.027276 -0.201001 
0.027459 -0.195122 
0.008863 -0.179798 
0.018090 -0.171976 
0.013637 -0.175262 
0.013062 -0.183017 
0.016990 -0.187398 
0.024896 -0.186412 
0.021373 -0.186141 
0.021753 -0.178629 
0.000367 -0.277579 
0.010643 -0.268888 
0.023622 -0.265189 
0.018018 -0.267512 
0.016138 -0.274166 
0.019800 -0.260100 
0.026728 -0.251205 
0.027870 -0.250316 
0.029254 -0.254540 
0.027446 -0.254980 
0.031446 -0.248025 
0.030568 -0.252108 
0.030117 -0.246196 
0.025530 -0.265698 
0.029136 -0.258516 
0.027311 -0.262123 
0.031337 -0.228895 
0.028756 -0.223786 
0.030840 -0.242733 
0.032221 -0.235216 
0.030445 -0.236500 
0.031872 -0.236107 
0.031893 -0.242591 
0.028742 -0.257044 
0.031445 -0.249478 
0.029929 -0.250543 
-0.013760 -0.209743 
-0.007054 -0.215772 
-0.010022 -0.210004 
-0.002249 -0.221966 
-0.004463 -0.219669 
-0.008489 -0.216468 
0.003081 -0.221668 
-0.000525 -0.221425 
0.005722 -0.226758 
0.003027 -0.220308 
0.002215 -0.221870 
-0.001771 -0.216299 
0.010899 -0.231180 
0.006529 -0.226804 
0.011741 -0.230037 
-0.004519 -0.218030 
0.001077 -0.222819 
-0.000406 -0.222931 
0.023192 -0.243826 
0.021473 -0.241375 
0.025206 -0.245917 
0.011565 -0.231828 
0.016867 -0.236687 
0.014555 -0.232780 
0.019941 -0.238446 
0.018659 -0.238453 
0.015039 -0.235055 
0.003824 -0.226861 
0.009625 -0.231207 
0.007902 -0.229834 
0.001684 -0.207077 
0.000278 -0.204496 
0.007452 -0.210823 
0.004118 -0.209107 
0.000676 -0.206136 
0.002412 -0.208263 
0.003019 -0.209857 
0.025019 -0.219784 
0.020618 -0.216716 
0.014627 -0.219439 
0.017791 -0.218538 
0.019229 -0.222853 
0.015985 -0.214365 
0.011492 -0.212487 
-0.000112 -0.212903 
0.003757 -0.216155 
0.003533 -0.218341 
0.003469 -0.211777 
0.003725 -0.213918 
0.000631 -0.209175 
0.011867 -0.222494 
0.007545 -0.218296 
0.011190 -0.219374 
0.008945 -0.213386 
0.010205 -0.216283 
0.006256 -0.213165 
0.026678 -0.245841 
0.020729 -0.237004 
0.024192 -0.241417 
0.027639 -0.243995 
0.028105 -0.240731 
0.007712 -0.223343 
0.016415 -0.226691 
0.012202 -0.225454 
0.012168 -0.228045 
0.016612 -0.232568 
0.026528 -0.225610 
0.028076 -0.236373 
0.027550 -0.231234 
0.023667 -0.226727 
0.020266 -0.227101 
0.021035 -0.234441 
0.020876 -0.231048 
0.024897 -0.235697 
-0.023764 -0.197319 
-0.020501 -0.203282 
-0.033774 -0.188796 
-0.027202 -0.196321 
-0.037331 -0.183052 
-0.017502 -0.207536 
-0.014779 -0.210316 
-0.056558 -0.151829 
-0.051640 -0.162220 
-0.060679 -0.147901 
-0.033033 -0.187314 
-0.042312 -0.175461 
-0.038568 -0.177915 
-0.049951 -0.166704 
-0.046110 -0.171804 
-0.040114 -0.180643 
-0.008256 -0.212124 
-0.006602 -0.211267 
-0.012335 -0.211856 
-0.010163 -0.212387 
-0.021222 -0.198302 
-0.015762 -0.205831 
-0.024097 -0.197509 
-0.030378 -0.192971 
-0.027151 -0.195802 
-0.021032 -0.203448 
-0.030668 -0.023663 
-0.048666 -0.047023 
-0.042535 -0.035640 
-0.051677 -0.079904 
-0.051777 -0.062936 
-0.045456 -0.060365 
-0.065153 -0.072646 
-0.058576 -0.067042 
-0.063768 -0.084694 
-0.033432 -0.143065 
-0.039466 -0.128754 
-0.034788 -0.128167 
-0.049230 -0.129605 
-0.044296 -0.129256 
-0.042400 -0.143898 
-0.043752 -0.095969 
-0.044863 -0.113270 
-0.049132 -0.096867 
-0.068279 -0.126295 
-0.063821 -0.128341 
-0.060691 -0.140562 
-0.065834 -0.100584 
-0.065664 -0.115062 
-0.070883 -0.101487 
-0.051653 -0.143509 
-0.059093 -0.129357 
-0.054194 -0.129694 
-0.054712 -0.097977 
-0.055356 -0.114549 
-0.060352 -0.099274 
-0.000662 -0.201791 
-0.000324 -0.201257 
-0.001577 -0.203884 
-0.001068 -0.202686 
-0.004396 -0.191656 
-0.002769 -0.197870 
-0.005991 -0.192570 
-0.005189 -0.210002 
-0.004000 -0.208493 
-0.011528 -0.196004 
-0.007829 -0.202875 
-0.013685 -0.197075 
-0.003016 -0.206888 
-0.002217 -0.205315 
-0.023346 -0.155299 
-0.021030 -0.167501 
-0.027172 -0.156022 
-0.010219 -0.185778 
-0.015298 -0.177428 
-0.012513 -0.176513 
-0.021283 -0.179178 
-0.018219 -0.178345 
-0.015020 -0.187838 
-0.005011 -0.200154 
-0.009537 -0.194827 
-0.007697 -0.193652 
-0.052337 -0.154466 
-0.043740 -0.156943 
-0.048049 -0.156092 
-0.043624 -0.167532 
-0.034894 -0.179386 
-0.031144 -0.156641 
-0.024492 -0.179827 
-0.028111 -0.168889 
-0.035248 -0.157074 
-0.039459 -0.157217 
-0.011379 -0.205157 
-0.026442 -0.189739 
-0.018528 -0.198377 
-0.016016 -0.197914 
-0.020421 -0.189487 
-0.035701 -0.169259 
-0.027838 -0.180173 
-0.031311 -0.180079 
0.000000 0.000000 
-0.023925 -0.020103 
-0.016868 -0.018675 
-0.019831 -0.019025 
0.000000 0.000000 
-0.035080 -0.039719 
-0.039819 -0.058884 
-0.009184 -0.018731 
-0.010751 -0.018666 
0.000000 0.000000 
-0.026286 -0.057276 
-0.019553 -0.037909 
-0.022585 -0.057082 
0.000000 0.000000 
-0.012502 -0.018610 
-0.014502 -0.018591 
-0.034996 -0.111994 
-0.030291 -0.127540 
-0.040549 -0.077471 
-0.038638 -0.095246 
-0.029270 -0.094139 
-0.033812 -0.094649 
-0.030985 -0.076316 
-0.026181 -0.038190 
-0.030337 -0.057568 
-0.034816 -0.058049 
-0.000000 -0.018927 
-0.000984 -0.018948 
0.000000 0.000000 
-0.002477 -0.056459 
-0.001816 -0.037834 
0.000000 -0.056413 
0.000000 0.000000 
-0.001987 -0.018948 
-0.003022 -0.018937 
-0.003451 -0.124307 
-0.003438 -0.108716 
0.000000 -0.124222 
-0.009034 -0.074825 
-0.006597 -0.092224 
-0.009987 -0.092411 
0.000000 -0.092031 
-0.003280 -0.092097 
-0.002964 -0.074615 
0.000000 0.000000 
-0.006454 -0.018843 
-0.007761 -0.018791 
-0.004102 -0.018915 
-0.005240 -0.018884 
0.000000 0.000000 
-0.013038 -0.056728 
-0.009605 -0.037880 
-0.010235 -0.056644 
-0.004987 -0.056510 
-0.007562 -0.056571 
-0.005556 -0.037867 
-0.000889 -0.196610 
0.000000 -0.201104 
-0.005916 -0.184021 
-0.002886 -0.190966 
0.000000 -0.190390 
-0.001430 -0.190538 
-0.001937 -0.183027 
-0.025043 -0.141753 
-0.019670 -0.154541 
-0.012738 -0.153139 
-0.016138 -0.153806 
-0.017307 -0.140411 
-0.014512 -0.165852 
-0.009852 -0.175671 
0.000000 -0.151779 
-0.003111 -0.151882 
-0.003336 -0.138732 
-0.002395 -0.174071 
-0.002792 -0.163680 
0.000000 -0.173948 
-0.010135 -0.139338 
-0.006251 -0.152153 
-0.009451 -0.152579 
-0.007294 -0.174956 
-0.008487 -0.164467 
-0.004817 -0.174413 
-0.014179 -0.037880 
-0.015535 -0.075167 
-0.016006 -0.056825 
-0.019174 -0.056940 
-0.022753 -0.075643 
-0.006935 -0.124509 
-0.014142 -0.125233 
-0.010488 -0.124821 
-0.010456 -0.109133 
-0.013487 -0.092655 
-0.025985 -0.126907 
-0.024994 -0.093693 
-0.026021 -0.110843 
-0.021868 -0.126296 
-0.017927 -0.125731 
-0.017133 -0.092952 
-0.017901 -0.109865 
-0.020958 -0.093298 
0.000000 0.000000 
0.000984 -0.018948 
0.003022 -0.018937 
0.001987 -0.018948 
0.000000 0.000000 
0.001816 -0.037834 
0.002477 -0.056459 
0.007761 -0.018791 
0.006454 -0.018843 
0.000000 0.000000 
0.010235 -0.056644 
0.009605 -0.037880 
0.013038 -0.056728 
0.000000 0.000000 
0.005240 -0.018884 
0.004102 -0.018915 
0.003438 -0.108716 
0.003451 -0.124307 
0.002964 -0.074615 
0.003280 -0.092097 
0.009987 -0.092411 
0.006597 -0.092224 
0.009034 -0.074825 
0.005556 -0.037867 
0.007562 -0.056571 
0.004987 -0.056510 
0.030668 -0.023663 
0.023925 -0.020103 
0.000000 0.000000 
0.039819 -0.058884 
0.035080 -0.039719 
0.045456 -0.060365 
0.000000 0.000000 
0.019831 -0.019025 
0.016868 -0.018675 
0.030291 -0.127540 
0.034996 -0.111994 
0.034788 -0.128167 
0.030985 -0.076316 
0.033812 -0.094649 
0.029270 -0.094139 
0.043752 -0.095969 
0.038638 -0.095246 
0.040549 -0.077471 
0.000000 0.000000 
0.010751 -0.018666 
0.009184 -0.018731 
0.014502 -0.018591 
0.012502 -0.018610 
0.000000 0.000000 
0.022585 -0.057082 
0.019553 -0.037909 
0.026286 -0.057276 
0.034816 -0.058049 
0.030337 -0.057568 
0.026181 -0.038190 
0.000889 -0.196610 
0.000324 -0.201257 
0.001937 -0.183027 
0.001430 -0.190538 
0.004396 -0.191656 
0.002886 -0.190966 
0.005916 -0.184021 
0.003336 -0.138732 
0.003111 -0.151882 
0.009451 -0.152579 
0.006251 -0.152153 
0.010135 -0.139338 
0.002792 -0.163680 
0.002395 -0.174071 
0.023346 -0.155299 
0.019670 -0.154541 
0.025043 -0.141753 
0.009852 -0.175671 
0.014512 -0.165852 
0.012513 -0.176513 
0.017307 -0.140411 
0.016138 -0.153806 
0.012738 -0.153139 
0.004817 -0.174413 
0.008487 -0.164467 
0.007294 -0.174956 
0.014179 -0.037880 
0.022753 -0.075643 
0.019174 -0.056940 
0.016006 -0.056825 
0.015535 -0.075167 
0.025985 -0.126907 
0.017927 -0.125731 
0.021868 -0.126296 
0.026021 -0.110843 
0.024994 -0.093693 
0.006935 -0.124509 
0.013487 -0.092655 
0.010456 -0.109133 
0.010488 -0.124821 
0.014142 -0.125233 
0.020958 -0.093298 
0.017901 -0.109865 
0.017133 -0.092952 
0.042535 -0.035640 
0.048666 -0.047023 
0.063768 -0.084694 
0.058576 -0.067042 
0.065153 -0.072646 
0.051777 -0.062936 
0.051677 -0.079904 
0.060691 -0.140562 
0.063821 -0.128341 
0.068279 -0.126295 
0.054194 -0.129694 
0.059093 -0.129357 
0.051653 -0.143509 
0.070883 -0.101487 
0.065664 -0.115062 
0.065834 -0.100584 
0.039466 -0.128754 
0.033432 -0.143065 
0.049132 -0.096867 
0.044863 -0.113270 
0.042400 -0.143898 
0.044296 -0.129256 
0.049230 -0.129605 
0.060352 -0.099274 
0.055356 -0.114549 
0.054712 -0.097977 
0.013760 -0.209743 
0.020501 -0.203282 
0.023764 -0.197319 
0.014779 -0.210316 
0.017502 -0.207536 
0.008489 -0.216468 
0.037331 -0.183052 
0.027202 -0.196321 
0.033774 -0.188796 
0.006602 -0.211267 
0.008256 -0.212124 
0.001771 -0.216299 
0.024097 -0.197509 
0.015762 -0.205831 
0.021222 -0.198302 
0.004519 -0.218030 
0.010163 -0.212387 
0.012335 -0.211856 
0.060679 -0.147901 
0.051640 -0.162220 
0.056558 -0.151829 
0.040114 -0.180643 
0.046110 -0.171804 
0.049951 -0.166704 
0.038568 -0.177915 
0.042312 -0.175461 
0.033033 -0.187314 
0.021032 -0.203448 
0.027151 -0.195802 
0.030378 -0.192971 
0.000662 -0.201791 
-0.000278 -0.204496 
0.005991 -0.192570 
0.002769 -0.197870 
-0.000676 -0.206136 
0.001068 -0.202686 
0.001577 -0.203884 
0.027172 -0.156022 
0.021030 -0.167501 
0.015020 -0.187838 
0.018219 -0.178345 
0.021283 -0.179178 
0.015298 -0.177428 
0.010219 -0.185778 
0.000112 -0.212903 
0.004000 -0.208493 
0.005189 -0.210002 
0.002217 -0.205315 
0.003016 -0.206888 
-0.000631 -0.209175 
0.013685 -0.197075 
0.007829 -0.202875 
0.011528 -0.196004 
0.007697 -0.193652 