# vtk DataFile Version 2.0
Unstructured Grid Example
ASCII
DATASET UNSTRUCTURED_GRID

POINTS 1089 float
0.006875 -0.275609 0.000000 
0.993125 -0.275609 0.000000 
1.000000 1.000000 0.000000 
0.000000 1.000000 0.000000 
0.500000 -0.099791 0.000000 
0.982889 0.296645 0.000000 
0.500000 1.000000 0.000000 
0.017111 0.296645 0.000000 
0.500000 0.295500 0.000000 
0.235619 -0.169556 0.000000 
0.500000 0.065763 0.000000 
0.223000 0.033200 0.000000 
0.764381 -0.169556 0.000000 
0.777000 0.033200 0.000000 
1.025643 0.001220 0.000000 
0.749086 0.285761 0.000000 
0.935340 0.612612 0.000000 
0.721008 0.607998 0.000000 
0.750000 1.000000 0.000000 
0.500000 0.611889 0.000000 
0.250000 1.000000 0.000000 
0.278992 0.607998 0.000000 
0.064660 0.612612 0.000000 
0.250914 0.285761 0.000000 
-0.025643 0.001220 0.000000 
0.126987 -0.235003 0.000000 
0.221495 -0.073843 0.000000 
0.096962 -0.116891 0.000000 
0.500000 -0.023971 0.000000 
0.356867 -0.037775 0.000000 
0.360047 -0.119177 0.000000 
0.365494 0.165804 0.000000 
0.359030 0.056508 0.000000 
0.500000 0.171436 0.000000 
0.639953 -0.119177 0.000000 
0.643133 -0.037775 0.000000 
0.903038 -0.116891 0.000000 
0.778505 -0.073843 0.000000 
0.873013 -0.235003 0.000000 
0.640970 0.056508 0.000000 
0.634506 0.165804 0.000000 
1.022208 -0.143808 0.000000 
0.905199 0.008511 0.000000 
0.868466 0.282685 0.000000 
0.890783 0.141051 0.000000 
1.008794 0.148039 0.000000 
0.765567 0.152267 0.000000 
0.625705 0.292891 0.000000 
0.956279 0.450005 0.000000 
0.845320 0.436478 0.000000 
0.829641 0.796986 0.000000 
0.828207 0.606486 0.000000 
0.931196 0.787609 0.000000 
0.732324 0.436709 0.000000 
0.616935 0.440600 0.000000 
0.875000 1.000000 0.000000 
0.723580 0.799341 0.000000 
0.500000 0.800857 0.000000 
0.612910 0.800248 0.000000 
0.625000 1.000000 0.000000 
0.611411 0.610579 0.000000 
0.500000 0.442506 0.000000 
0.375000 1.000000 0.000000 
0.387090 0.800248 0.000000 
0.170359 0.796986 0.000000 
0.276420 0.799341 0.000000 
0.125000 1.000000 0.000000 
0.388589 0.610579 0.000000 
0.383065 0.440600 0.000000 
0.068804 0.787609 0.000000 
0.171793 0.606486 0.000000 
0.131534 0.282685 0.000000 
0.154680 0.436478 0.000000 
0.043721 0.450005 0.000000 
0.267676 0.436709 0.000000 
0.374295 0.292891 0.000000 
-0.008794 0.148039 0.000000 
0.109217 0.141051 0.000000 
0.094801 0.008511 0.000000 
-0.022208 -0.143808 0.000000 
0.234433 0.152267 0.000000 
0.067271 -0.258145 0.000000 
0.107446 -0.177158 0.000000 
0.049094 -0.197169 0.000000 
0.226187 -0.123126 0.000000 
0.165482 -0.150522 0.000000 
0.180875 -0.201683 0.000000 
0.155803 -0.039142 0.000000 
0.157948 -0.095997 0.000000 
0.220684 -0.021730 0.000000 
0.500000 -0.063539 0.000000 
0.428126 -0.067776 0.000000 
0.428913 -0.104776 0.000000 
0.428228 0.016098 0.000000 
0.427873 -0.027535 0.000000 
0.500000 0.019054 0.000000 
0.295290 -0.141448 0.000000 
0.357816 -0.079974 0.000000 
0.290297 -0.098968 0.000000 
0.434637 0.230057 0.000000 
0.432500 0.169979 0.000000 
0.500000 0.231058 0.000000 
0.290150 0.046011 0.000000 
0.361841 0.109120 0.000000 
0.294091 0.100907 0.000000 
0.500000 0.116447 0.000000 
0.430638 0.114538 0.000000 
0.429176 0.063357 0.000000 
0.287885 -0.053717 0.000000 
0.357305 0.007638 0.000000 
0.287948 -0.005453 0.000000 
0.571087 -0.104776 0.000000 
0.571874 -0.067776 0.000000 
0.709703 -0.098968 0.000000 
0.642184 -0.079974 0.000000 
0.704710 -0.141448 0.000000 
0.572127 -0.027535 0.000000 
0.571772 0.016098 0.000000 
0.950906 -0.197169 0.000000 
0.892554 -0.177158 0.000000 
0.932729 -0.258145 0.000000 
0.779316 -0.021730 0.000000 
0.842052 -0.095997 0.000000 
0.844197 -0.039142 0.000000 
0.819125 -0.201683 0.000000 
0.834518 -0.150522 0.000000 
0.773813 -0.123126 0.000000 
0.567500 0.169979 0.000000 
0.565363 0.230057 0.000000 
0.570824 0.063357 0.000000 
0.569362 0.114538 0.000000 
0.705909 0.100907 0.000000 
0.638159 0.109120 0.000000 
0.709850 0.046011 0.000000 
0.712115 -0.053717 0.000000 
0.712052 -0.005453 0.000000 
0.642695 0.007638 0.000000 
1.010086 -0.212386 0.000000 
0.962876 -0.133006 0.000000 
0.966365 0.001442 0.000000 
0.967726 -0.066576 0.000000 
1.027227 -0.071920 0.000000 
0.906801 -0.055013 0.000000 
0.842131 0.019932 0.000000 
0.926326 0.286535 0.000000 
0.939118 0.212935 0.000000 
0.996422 0.221878 0.000000 
0.819623 0.212567 0.000000 
0.880154 0.210555 0.000000 
0.809353 0.283012 0.000000 
1.018973 0.074593 0.000000 
0.950745 0.141103 0.000000 
0.960231 0.070678 0.000000 
0.630267 0.226934 0.000000 
0.563014 0.295193 0.000000 
0.772212 0.091108 0.000000 
0.700641 0.159538 0.000000 
0.687807 0.289449 0.000000 
0.694464 0.222259 0.000000 
0.757664 0.217023 0.000000 
0.899473 0.073800 0.000000 
0.829013 0.145488 0.000000 
0.836783 0.081388 0.000000 
0.969355 0.372331 0.000000 
0.913403 0.362291 0.000000 
0.889999 0.522378 0.000000 
0.901007 0.440722 0.000000 
0.944580 0.529982 0.000000 
0.856609 0.357829 0.000000 
0.798937 0.357205 0.000000 
0.897323 0.896130 0.000000 
0.880373 0.793449 0.000000 
0.943645 0.882752 0.000000 
0.774842 0.606861 0.000000 
0.825310 0.698986 0.000000 
0.773012 0.700302 0.000000 
0.930065 0.698274 0.000000 
0.877291 0.697848 0.000000 
0.881519 0.607843 0.000000 
0.621098 0.364004 0.000000 
0.560631 0.365742 0.000000 
0.740407 0.358850 0.000000 
0.681087 0.361458 0.000000 
0.669828 0.521275 0.000000 
0.674909 0.438652 0.000000 
0.725554 0.519691 0.000000 
0.835464 0.519173 0.000000 
0.780725 0.518694 0.000000 
0.789120 0.435611 0.000000 
0.937500 1.000000 0.000000 
0.845300 0.899165 0.000000 
0.733429 0.899750 0.000000 
0.790127 0.899698 0.000000 
0.812500 1.000000 0.000000 
0.777355 0.798562 0.000000 
0.719875 0.701486 0.000000 
0.500000 0.899957 0.000000 
0.558882 0.899781 0.000000 
0.562500 1.000000 0.000000 
0.555643 0.703994 0.000000 
0.556597 0.800565 0.000000 
0.500000 0.704362 0.000000 
0.687500 1.000000 0.000000 
0.617541 0.899732 0.000000 
0.675796 0.899731 0.000000 
0.558558 0.441985 0.000000 
0.500000 0.366276 0.000000 
0.666523 0.609351 0.000000 
0.613561 0.522830 0.000000 
0.500000 0.524425 0.000000 
0.556883 0.523953 0.000000 
0.555825 0.611466 0.000000 
0.668664 0.799852 0.000000 
0.611011 0.703373 0.000000 
0.665829 0.702520 0.000000 
0.437500 1.000000 0.000000 
0.441118 0.899781 0.000000 
0.324204 0.899731 0.000000 
0.382459 0.899732 0.000000 
0.312500 1.000000 0.000000 
0.443403 0.800565 0.000000 
0.444357 0.703994 0.000000 
0.102677 0.896130 0.000000 
0.154700 0.899165 0.000000 
0.062500 1.000000 0.000000 
0.280125 0.701486 0.000000 
0.222645 0.798562 0.000000 
0.226988 0.700302 0.000000 
0.187500 1.000000 0.000000 
0.209873 0.899698 0.000000 
0.266571 0.899750 0.000000 
0.441442 0.441985 0.000000 
0.439369 0.365742 0.000000 
0.444175 0.611466 0.000000 
0.443117 0.523953 0.000000 
0.330172 0.521275 0.000000 
0.386439 0.522830 0.000000 
0.333477 0.609351 0.000000 
0.331336 0.799852 0.000000 
0.334171 0.702520 0.000000 
0.388989 0.703373 0.000000 
0.056355 0.882752 0.000000 
0.119627 0.793449 0.000000 
0.118481 0.607843 0.000000 
0.122709 0.697848 0.000000 
0.069935 0.698274 0.000000 
0.174690 0.698986 0.000000 
0.225158 0.606861 0.000000 
0.073674 0.286535 0.000000 
0.086597 0.362291 0.000000 
0.030645 0.372331 0.000000 
0.201063 0.357205 0.000000 
0.143391 0.357829 0.000000 
0.190647 0.283012 0.000000 
0.055420 0.529982 0.000000 
0.098993 0.440722 0.000000 
0.110001 0.522378 0.000000 
0.378902 0.364004 0.000000 
0.436986 0.295193 0.000000 
0.274446 0.519691 0.000000 
0.325091 0.438652 0.000000 
0.312193 0.289449 0.000000 
0.318913 0.361458 0.000000 
0.259593 0.358850 0.000000 
0.164536 0.519173 0.000000 
0.210880 0.435611 0.000000 
0.219275 0.518694 0.000000 
0.003578 0.221878 0.000000 
0.060882 0.212935 0.000000 
0.039769 0.070678 0.000000 
0.049255 0.141103 0.000000 
-0.018973 0.074593 0.000000 
0.119846 0.210555 0.000000 
0.180377 0.212567 0.000000 
0.037124 -0.133006 0.000000 
-0.010086 -0.212386 0.000000 
0.157869 0.019932 0.000000 
0.093199 -0.055013 0.000000 
-0.027227 -0.071920 0.000000 
0.032274 -0.066576 0.000000 
0.033635 0.001442 0.000000 
0.369733 0.226934 0.000000 
0.242336 0.217023 0.000000 
0.305536 0.222259 0.000000 
0.299359 0.159538 0.000000 
0.227788 0.091108 0.000000 
0.100527 0.073800 0.000000 
0.163217 0.081388 0.000000 
0.170987 0.145488 0.000000 
0.036910 -0.267052 0.000000 
0.057607 -0.228127 0.000000 
0.027847 -0.236595 0.000000 
0.115821 -0.206550 0.000000 
0.087025 -0.218353 0.000000 
0.097548 -0.247722 0.000000 
0.071775 -0.157089 0.000000 
0.078433 -0.188031 0.000000 
0.101264 -0.147234 0.000000 
0.230265 -0.146681 0.000000 
0.200659 -0.161288 0.000000 
0.207706 -0.185192 0.000000 
0.191734 -0.111059 0.000000 
0.195424 -0.136569 0.000000 
0.223302 -0.098845 0.000000 
0.154588 -0.219189 0.000000 
0.171915 -0.176662 0.000000 
0.143911 -0.192328 0.000000 
0.188651 -0.002304 0.000000 
0.187940 -0.030449 0.000000 
0.221494 0.005376 0.000000 
0.127205 -0.106867 0.000000 
0.156287 -0.067844 0.000000 
0.125054 -0.077389 0.000000 
0.220655 -0.048135 0.000000 
0.188141 -0.057960 0.000000 
0.189362 -0.084838 0.000000 
0.136302 -0.164423 0.000000 
0.160942 -0.123579 0.000000 
0.130873 -0.135891 0.000000 
0.500000 -0.082074 0.000000 
0.464113 -0.083241 0.000000 
0.464330 -0.101045 0.000000 
0.463877 -0.045169 0.000000 
0.463962 -0.064617 0.000000 
0.500000 -0.044177 0.000000 
0.394064 -0.110878 0.000000 
0.428461 -0.086676 0.000000 
0.393283 -0.092290 0.000000 
0.464267 0.041244 0.000000 
0.464059 0.018295 0.000000 
0.500000 0.041932 0.000000 
0.392167 -0.031867 0.000000 
0.427974 -0.006156 0.000000 
0.392268 -0.010104 0.000000 
0.500000 -0.002903 0.000000 
0.463924 -0.003736 0.000000 
0.463863 -0.024882 0.000000 
0.264797 -0.154902 0.000000 
0.292482 -0.120532 0.000000 
0.260853 -0.133027 0.000000 
0.358789 -0.099937 0.000000 
0.325149 -0.109425 0.000000 
0.327071 -0.129452 0.000000 
0.322625 -0.067291 0.000000 
0.323653 -0.088716 0.000000 
0.357169 -0.059262 0.000000 
0.427926 -0.048068 0.000000 
0.392309 -0.052803 0.000000 
[...]
POINT_DATA 1089

SCALARS u_h float 2
LOOKUP_TABLE default
0.006875 -0.275609 
-0.006875 -0.275609 
0.000000 0.000000 
0.000000 0.000000 
-0.000000 -0.099791 
-0.017111 -0.203355 
0.000000 0.000000 
0.017111 -0.203355 
0.000000 -0.204500 
-0.014381 -0.169556 
-0.000000 -0.184237 
-0.027000 -0.216800 
0.014381 -0.169556 
0.027000 -0.216800 
0.025643 -0.248780 
-0.000914 -0.214239 
-0.064660 -0.137388 
-0.028992 -0.142002 
0.000000 0.000000 
0.000000 -0.138111 
0.000000 0.000000 
0.028992 -0.142002 
0.064660 -0.137388 
0.000914 -0.214239 
-0.025643 -0.248780 
0.001987 -0.235003 
-0.028505 -0.198843 
-0.028038 -0.241891 
-0.000000 -0.148971 
-0.018133 -0.162775 
-0.014953 -0.119177 
-0.009506 -0.209196 
-0.015970 -0.193492 
-0.000000 -0.203564 
0.014953 -0.119177 
0.018133 -0.162775 
0.028038 -0.241891 
0.028505 -0.198843 
-0.001987 -0.235003 
0.015970 -0.193492 
0.009506 -0.209196 
0.022208 -0.268808 
0.030199 -0.241489 
-0.006534 -0.217315 
0.015783 -0.233949 
0.008794 -0.226961 
0.015567 -0.222733 
0.000705 -0.207109 
-0.043721 -0.174995 
-0.029680 -0.188522 
-0.045359 -0.078014 
-0.046793 -0.143514 
-0.068804 -0.087391 
-0.017676 -0.188291 
-0.008065 -0.184400 
0.000000 0.000000 
-0.026420 -0.075659 
0.000000 -0.074143 
-0.012090 -0.074752 
0.000000 0.000000 
-0.013589 -0.139421 
-0.000000 -0.182494 
0.000000 0.000000 
0.012090 -0.074752 
0.045359 -0.078014 
0.026420 -0.075659 
0.000000 0.000000 
0.013589 -0.139421 
0.008065 -0.184400 
0.068804 -0.087391 
0.046793 -0.143514 
0.006534 -0.217315 
0.029680 -0.188522 
0.043721 -0.174995 
0.017676 -0.188291 
-0.000705 -0.207109 
-0.008794 -0.226961 
-0.015783 -0.233949 
-0.030199 -0.241489 
-0.022208 -0.268808 
-0.015567 -0.222733 
0.004771 -0.258145 
-0.017554 -0.239658 
-0.013406 -0.259669 
-0.023813 -0.185626 
-0.022018 -0.213022 
-0.006625 -0.201683 
-0.031697 -0.226642 
-0.029552 -0.220997 
-0.029316 -0.209230 
-0.000000 -0.126039 
-0.009374 -0.130276 
-0.008587 -0.104776 
-0.009272 -0.171402 
-0.009627 -0.152535 
-0.000000 -0.168446 
-0.017210 -0.141448 
-0.017184 -0.142474 
-0.022203 -0.161468 
-0.002863 -0.207443 
-0.005000 -0.205021 
-0.000000 -0.206442 
-0.022350 -0.203989 
-0.013159 -0.203380 
-0.018409 -0.211593 
-0.000000 -0.196053 
-0.006862 -0.197962 
-0.008324 -0.186643 
-0.024615 -0.178717 
-0.017695 -0.179862 
-0.024552 -0.192953 
0.008587 -0.104776 
0.009374 -0.130276 
0.022203 -0.161468 
0.017184 -0.142474 
0.017210 -0.141448 
0.009627 -0.152535 
0.009272 -0.171402 
0.013406 -0.259669 
0.017554 -0.239658 
-0.004771 -0.258145 
0.029316 -0.209230 
0.029552 -0.220997 
0.031697 -0.226642 
0.006625 -0.201683 
0.022018 -0.213022 
0.023813 -0.185626 
0.005000 -0.205021 
0.002863 -0.207443 
0.008324 -0.186643 
0.006862 -0.197962 
0.018409 -0.211593 
0.013159 -0.203380 
0.022350 -0.203989 
0.024615 -0.178717 
0.024552 -0.192953 
0.017695 -0.179862 
0.010086 -0.274886 
0.025376 -0.258006 
0.028865 -0.248558 
0.030226 -0.254076 
0.027227 -0.259420 
0.031801 -0.242513 
0.029631 -0.230068 
-0.011174 -0.213465 
0.001618 -0.224565 
-0.003578 -0.215622 
0.007123 -0.224933 
0.005154 -0.226945 
-0.003147 -0.216988 
0.018973 -0.237907 
0.013245 -0.233897 
0.022731 -0.241822 
0.005267 -0.210566 
0.000514 -0.204807 
0.022212 -0.221392 
0.013141 -0.215462 
0.000307 -0.210551 
0.006964 -0.215241 
0.007664 -0.220477 
0.024473 -0.238700 
0.016513 -0.229512 
0.024283 -0.231112 
-0.030645 -0.190169 
-0.024097 -0.200209 
-0.047501 -0.165122 
-0.036493 -0.184278 
-0.055420 -0.157518 
-0.018391 -0.204671 
-0.013563 -0.205295 
-0.040177 -0.041370 
-0.057127 -0.081551 
-0.056355 -0.054748 
-0.037658 -0.143139 
-0.049690 -0.113514 
-0.039488 -0.112198 
-0.069935 -0.114226 
-0.060209 -0.114652 
-0.055981 -0.142157 
-0.003902 -0.198496 
-0.001869 -0.196758 
-0.009593 -0.203650 
-0.006413 -0.201042 
-0.017672 -0.166225 
-0.012591 -0.186348 
-0.024446 -0.167809 
-0.039536 -0.168327 
-0.031775 -0.168806 
-0.023380 -0.189389 
0.000000 0.000000 
-0.029700 -0.038335 
-0.016571 -0.037750 
-0.022373 -0.037802 
0.000000 0.000000 
-0.035145 -0.076438 
-0.030125 -0.111014 
-0.000000 -0.037543 
-0.003618 -0.037719 
0.000000 0.000000 
-0.006857 -0.108506 
-0.005903 -0.074435 
0.000000 -0.108138 
0.000000 0.000000 
-0.007459 -0.037768 
-0.011704 -0.037769 
-0.003942 -0.183015 
0.000000 -0.196224 
-0.020977 -0.140649 
-0.011439 -0.164670 
-0.000000 -0.163075 
-0.005617 -0.163547 
-0.006675 -0.138534 
-0.018836 -0.075148 
-0.013989 -0.109127 
-0.021671 -0.109980 
0.000000 0.000000 
0.003618 -0.037719 
0.011704 -0.037769 
0.007459 -0.037768 
0.000000 0.000000 
0.005903 -0.074435 
0.006857 -0.108506 
0.040177 -0.041370 
0.029700 -0.038335 
0.000000 0.000000 
0.030125 -0.111014 
0.035145 -0.076438 
0.039488 -0.112198 
0.000000 0.000000 
0.022373 -0.037802 
0.016571 -0.037750 
0.003942 -0.183015 
0.001869 -0.196758 
0.006675 -0.138534 
0.005617 -0.163547 
0.017672 -0.166225 
0.011439 -0.164670 
0.020977 -0.140649 
0.018836 -0.075148 
0.021671 -0.109980 
0.013989 -0.109127 
0.056355 -0.054748 
0.057127 -0.081551 
0.055981 -0.142157 
0.060209 -0.114652 
0.069935 -0.114226 
0.049690 -0.113514 
0.037658 -0.143139 
0.011174 -0.213465 
0.024097 -0.200209 
0.030645 -0.190169 
0.013563 -0.205295 
0.018391 -0.204671 
0.003147 -0.216988 
0.055420 -0.157518 
0.036493 -0.184278 
0.047501 -0.165122 
0.003902 -0.198496 
-0.000514 -0.204807 
0.024446 -0.167809 
0.012591 -0.186348 
-0.000307 -0.210551 
0.006413 -0.201042 
0.009593 -0.203650 
0.039536 -0.168327 
0.023380 -0.189389 
0.031775 -0.168806 
0.003578 -0.215622 
-0.001618 -0.224565 
-0.022731 -0.241822 
-0.013245 -0.233897 
-0.018973 -0.237907 
-0.005154 -0.226945 
-0.007123 -0.224933 
-0.025376 -0.258006 
-0.010086 -0.274886 
-0.029631 -0.230068 
-0.031801 -0.242513 
-0.027227 -0.259420 
-0.030226 -0.254076 
-0.028865 -0.248558 
-0.005267 -0.210566 
-0.007664 -0.220477 
-0.006964 -0.215241 
-0.013141 -0.215462 
-0.022212 -0.221392 
-0.024473 -0.238700 
-0.024283 -0.231112 
-0.016513 -0.229512 
0.005660 -0.267052 
-0.004893 -0.259377 
-0.003403 -0.267845 
-0.009179 -0.237800 
-0.006725 -0.249603 
0.003798 -0.247722 
-0.021975 -0.250839 
-0.015317 -0.250531 
-0.023736 -0.240984 
-0.019735 -0.177931 
-0.018091 -0.192538 
-0.011044 -0.185192 
-0.027016 -0.204809 
-0.023326 -0.199069 
-0.026698 -0.192595 
-0.001662 -0.219189 
-0.015585 -0.207912 
-0.012339 -0.223578 
-0.030099 -0.221054 
-0.030810 -0.217949 
-0.028506 -0.213374 
-0.029045 -0.231867 
-0.031213 -0.224094 
-0.031196 -0.233639 
-0.029345 -0.204385 
-0.030609 -0.214210 
-0.029388 -0.209838 
-0.019948 -0.226923 
-0.026558 -0.217329 
-0.025377 -0.229641 
-0.000000 -0.113324 
-0.004637 -0.114491 
-0.004420 -0.101045 
-0.004873 -0.138919 
-0.004788 -0.127117 
-0.000000 -0.137927 
-0.012186 -0.110878 
-0.009039 -0.117926 
-0.012967 -0.123540 
-0.004483 -0.177506 
-0.004691 -0.169205 
-0.000000 -0.176818 
-0.014083 -0.156867 
-0.009526 -0.162406 
-0.013982 -0.166354 
-0.000000 -0.159153 
-0.004826 -0.159986 
-0.004887 -0.149882 
-0.016453 -0.154902 
-0.020018 -0.151782 
-0.020397 -0.164277 
-0.016211 -0.131187 
-0.018601 -0.140675 
-0.016679 -0.129452 
-0.021125 -0.161041 
-0.020097 -0.151216 
-0.017831 -0.153012 
-0.009574 -0.141818 
-0.013941 -0.146553 
-0.013563 -0.135437 
-0.000921 -0.206164 
-0.001478 -0.206663 
0.000000 -0.206072 
-0.007339 -0.206797 
-0.003958 -0.206837 
-0.005780 -0.208375 
-0.000000 -0.205600 
-0.002017 -0.205903 
-0.002535 -0.203933 
-0.024914 -0.210210 
-0.020571 -0.208237 
-0.022943 -0.213718 
-0.014686 -0.198923 
-0.017802 -0.203247 
-0.019351 -0.198355 
-0.013812 -0.210175 
-0.015942 -0.207201 
-0.011422 -0.206819 
-0.000000 -0.190662 
-0.003866 -0.191216 
-0.004207 -0.184856 
-0.003022 -0.200798 
-0.003469 -0.196544 
-0.000000 -0.200368 
-0.012271 -0.189549 
-0.007651 -0.192813 
-0.011281 -0.195408 
-0.008791 -0.204077 
-0.010113 -0.200265 
-0.005973 -0.202047 
-0.023446 -0.173013 
-0.021671 -0.170116 
-0.023734 -0.170457 
-0.025601 -0.181053 
-0.026907 -0.188373 
-0.008868 -0.179493 
-0.016983 -0.187126 
-0.013063 -0.182729 
-0.013638 -0.174985 
-0.018084 -0.171735 
-0.026361 -0.205897 
-0.027424 -0.194960 
-0.027220 -0.200806 
-0.023694 -0.198884 
-0.020549 -0.192563 
-0.021741 -0.178414 
-0.021357 -0.185906 
-0.024874 -0.186223 
0.004420 -0.101045 
0.004637 -0.114491 
0.012967 -0.123540 
0.009039 -0.117926 
0.012186 -0.110878 
0.004788 -0.127117 
0.004873 -0.138919 
0.020397 -0.164277 
0.020018 -0.151782 
0.016453 -0.154902 
0.017831 -0.153012 
0.020097 -0.151216 
0.021125 -0.161041 
0.016679 -0.129452 
0.018601 -0.140675 
0.016211 -0.131187 
0.004691 -0.169205 
0.004483 -0.177506 
0.004887 -0.149882 
0.004826 -0.159986 
0.013982 -0.166354 
0.009526 -0.162406 
0.014083 -0.156867 
0.013563 -0.135437 
0.013941 -0.146553 
0.009574 -0.141818 
0.003403 -0.267845 
0.004893 -0.259377 
-0.005660 -0.267052 
0.023736 -0.240984 
0.015317 -0.250531 
0.021975 -0.250839 
-0.003798 -0.247722 
0.006725 -0.249603 
0.009179 -0.237800 
0.028506 -0.213374 
0.030810 -0.217949 
0.030099 -0.221054 
0.029388 -0.209838 
0.030609 -0.214210 
0.029345 -0.204385 
0.031196 -0.233639 
0.031213 -0.224094 
0.029045 -0.231867 
0.011044 -0.185192 
0.018091 -0.192538 
0.019735 -0.177931 
0.012339 -0.223578 
0.015585 -0.207912 
0.001662 -0.219189 
0.026698 -0.192595 
0.023326 -0.199069 
0.027016 -0.204809 
0.025377 -0.229641 
0.026558 -0.217329 
0.019948 -0.226923 
0.001478 -0.206663 
0.000921 -0.206164 
0.002535 -0.203933 
0.002017 -0.205903 
0.005780 -0.208375 
0.003958 -0.206837 
0.007339 -0.206797 
0.004207 -0.184856 
0.003866 -0.191216 
0.011281 -0.195408 
0.007651 -0.192813 
0.012271 -0.189549 
0.003469 -0.196544 
0.003022 -0.200798 
0.022943 -0.213718 
0.020571 -0.208237 
0.024914 -0.210210 
0.011422 -0.206819 
0.015942 -0.207201 
0.013812 -0.210175 
0.019351 -0.198355 
0.017802 -0.203247 
0.014686 -0.198923 
0.005973 -0.202047 
0.010113 -0.200265 
0.008791 -0.204077 
0.023446 -0.173013 
0.026907 -0.188373 
0.025601 -0.181053 
0.023734 -0.170457 
0.021671 -0.170116 
0.026361 -0.205897 
0.020549 -0.192563 
0.023694 -0.198884 
0.027220 -0.200806 
0.027424 -0.194960 
0.008868 -0.179493 
0.018084 -0.171735 
0.013638 -0.174985 
0.013063 -0.182729 
0.016983 -0.187126 
0.024874 -0.186223 
0.021357 -0.185906 
0.021741 -0.178414 
0.001913 -0.275965 
0.011748 -0.267563 
0.023904 -0.264017 
0.018690 -0.266238 
0.016982 -0.272417 
0.020291 -0.259172 
0.026762 -0.250650 
0.027507 -0.249690 
0.028940 -0.253792 
0.027174 -0.254168 
0.031119 -0.247535 
0.030236 -0.251484 
0.029759 -0.245722 
0.025616 -0.264377 
0.028932 -0.257628 
0.027300 -0.261086 
0.031130 -0.228639 
0.028577 -0.223512 
0.030670 -0.242402 
0.032003 -0.234957 
0.030165 -0.236166 
0.031614 -0.235806 
0.031592 -0.242213 
0.028656 -0.256276 
0.031184 -0.248971 
0.029785 -0.250017 
-0.013981 -0.209348 
-0.007279 -0.215390 
-0.010256 -0.209641 
-0.002464 -0.221537 
-0.004685 -0.219262 
-0.008693 -0.216032 
0.002812 -0.221371 
-0.000769 -0.221054 
0.005450 -0.226390 
0.002890 -0.219845 
0.002053 -0.221407 
-0.001894 -0.215817 
0.010653 -0.230750 
0.006326 -0.226360 
0.011517 -0.229607 
-0.004689 -0.217558 
0.000892 -0.222362 
-0.000609 -0.222485 
0.022841 -0.243347 
0.021114 -0.240918 
0.024833 -0.245389 
0.011263 -0.231449 
0.016535 -0.236279 
0.014233 -0.232456 
0.019620 -0.238013 
0.018326 -0.238017 
0.014747 -0.234628 
0.003588 -0.226436 
0.009362 -0.230783 
0.007632 -0.229427 
0.001716 -0.206781 
0.000280 -0.204316 
0.007444 -0.210461 
0.004135 -0.208762 
0.000668 -0.205770 
0.002423 -0.207907 
0.003009 -0.209463 
0.024876 -0.219484 
0.020512 -0.216388 
0.014524 -0.219057 
0.017684 -0.218182 
0.019084 -0.222490 
0.015914 -0.214016 
0.011455 -0.212125 
-0.000188 -0.212431 
0.003673 -0.215703 
0.003422 -0.217881 
0.003436 -0.211356 
0.003668 -0.213479 
0.000595 -0.208737 
0.011736 -0.222078 
0.007455 -0.217865 
0.011093 -0.218967 
0.008911 -0.213004 
0.010140 -0.215887 
0.006223 -0.212763 
0.026302 -0.245333 
0.020431 -0.236586 
0.023846 -0.240973 
0.027279 -0.243537 
0.027776 -0.240326 
0.007561 -0.222899 
0.016239 -0.226292 
0.012038 -0.225032 
0.011973 -0.227618 
0.016367 -0.232151 
0.026339 -0.225299 
0.027790 -0.236011 
0.027312 -0.230902 
0.023476 -0.226383 
0.020080 -0.226727 
0.020770 -0.234039 
0.020649 -0.230662 
0.024617 -0.235314 
-0.023876 -0.196994 
-0.020643 -0.202919 
-0.033778 -0.188501 
-0.027272 -0.195994 
-0.037296 -0.182849 
-0.017656 -0.207137 
-0.014936 -0.209884 
-0.056343 -0.151608 
-0.051479 -0.161992 
-0.060427 -0.147806 
-0.033029 -0.186921 
-0.042233 -0.175138 
-0.038509 -0.177534 
-0.049803 -0.166566 
-0.046002 -0.171560 
-0.040060 -0.180377 
-0.008384 -0.211639 
-0.006716 -0.210779 
-0.012486 -0.211400 
-0.010304 -0.211913 
-0.021286 -0.197837 
-0.015867 -0.205359 
-0.024156 -0.197068 
-0.030410 -0.192612 
-0.027200 -0.195395 
-0.021135 -0.203027 
-0.029241 -0.022173 
-0.047920 -0.046346 
-0.042523 -0.033566 
-0.051092 -0.079460 
-0.051069 -0.062440 
-0.044747 -0.059872 
-0.064507 -0.072093 
-0.057883 -0.066512 
-0.063180 -0.084281 
-0.033249 -0.142625 
-0.039199 -0.128323 
-0.034542 -0.127741 
-0.048933 -0.129194 
-0.044012 -0.128829 
-0.042187 -0.143469 
-0.043312 -0.095547 
-0.044502 -0.112844 
-0.048666 -0.096440 
-0.067914 -0.126214 
-0.063485 -0.128102 
-0.060418 -0.140339 
-0.065344 -0.100256 
-0.065257 -0.114790 
-0.070386 -0.101335 
-0.051415 -0.143137 
-0.058772 -0.129028 
-0.053885 -0.129314 
-0.054232 -0.097562 
-0.054967 -0.114155 
-0.059865 -0.098886 
-0.000718 -0.201482 
-0.000381 -0.201048 
-0.001633 -0.203470 
-0.001123 -0.202313 
-0.004463 -0.191263 
-0.002841 -0.197490 
-0.006059 -0.192148 
-0.005288 -0.209516 
-0.004085 -0.208015 
-0.011593 -0.195527 
-0.007910 -0.202395 
-0.013750 -0.196591 
-0.003089 -0.206423 
-0.002280 -0.204871 
-0.023254 -0.154856 
-0.020988 -0.167046 
-0.027065 -0.155573 
-0.010266 -0.185333 
-0.015308 -0.176973 
-0.012531 -0.176070 
-0.021276 -0.178708 
-0.018220 -0.177880 
-0.015058 -0.187367 
-0.005084 -0.199708 
-0.009602 -0.194362 
-0.007764 -0.193205 
-0.052146 -0.154157 
-0.043581 -0.156534 
-0.047876 -0.155722 
-0.043510 -0.167160 
-0.034851 -0.178965 
-0.031022 -0.156191 
-0.024477 -0.179357 
-0.028045 -0.168429 
-0.035113 -0.156628 
-0.039312 -0.156784 
-0.011473 -0.204668 
-0.026460 -0.189283 
-0.018594 -0.197898 
-0.016082 -0.197429 
-0.020451 -0.189009 
-0.035614 -0.168819 
-0.027815 -0.179710 
-0.031279 -0.179631 
0.000000 0.000000 
-0.023279 -0.019468 
-0.016676 -0.018487 
-0.019505 -0.018702 
0.000000 0.000000 
-0.034349 -0.039240 
-0.039198 -0.058462 
-0.009124 -0.018664 
-0.010675 -0.018590 
0.000000 0.000000 
-0.025958 -0.057032 
-0.019329 -0.037754 
-0.022324 -0.056870 
0.000000 0.000000 
-0.012405 -0.018516 
-0.014372 -0.018466 
-0.034690 -0.111587 
-0.030071 -0.127125 
-0.040045 -0.077067 
-0.038238 -0.094844 
-0.028968 -0.093795 
-0.033460 -0.094275 
-0.030619 -0.075995 
-0.025786 -0.037952 
-0.029927 -0.057280 
-0.034305 -0.057702 
-0.000000 -0.018789 
-0.000965 -0.018859 
0.000000 0.000000 
-0.002449 -0.056205 
-0.001792 -0.037659 
-0.000000 -0.056066 
0.000000 0.000000 
-0.001961 -0.018881 
-0.002992 -0.018879 
-0.003431 -0.123851 
-0.003413 -0.108290 
0.000000 -0.123700 
-0.008944 -0.074585 
-0.006537 -0.091897 
-0.009894 -0.092113 
0.000000 -0.091564 
-0.003252 -0.091716 
-0.002934 -0.074292 
0.000000 0.000000 
-0.006412 -0.018788 
-0.007712 -0.018732 
-0.004069 -0.018862 
-0.005204 -0.018831 
0.000000 0.000000 
-0.012907 -0.056561 
-0.009518 -0.037773 
-0.010133 -0.056477 
-0.004934 -0.056307 
-0.007485 -0.056394 
-0.005500 -0.037751 
-0.000940 -0.196334 
-0.000000 -0.201010 
-0.005966 -0.183612 
-0.002945 -0.190604 
-0.000000 -0.190065 
-0.001469 -0.190201 
-0.001963 -0.182638 
-0.024901 -0.141328 
-0.019595 -0.154107 
-0.012699 -0.152716 
-0.016082 -0.153379 
-0.017212 -0.140003 
-0.014494 -0.165414 
-0.009875 -0.175239 
0.000000 -0.151263 
-0.003107 -0.151411 
-0.003324 -0.138260 
-0.002411 -0.173642 
-0.002798 -0.163222 
-0.000000 -0.173495 
-0.010086 -0.138925 
-0.006239 -0.151710 
-0.009426 -0.152151 
-0.007321 -0.174533 
-0.008489 -0.164037 
-0.004842 -0.173992 
-0.014043 -0.037760 
-0.015376 -0.074939 
-0.015840 -0.056651 
-0.018966 -0.056750 
-0.022505 -0.075384 
-0.006892 -0.124097 
-0.014043 -0.124857 
-0.010418 -0.124434 
-0.010370 -0.108785 
-0.013359 -0.092369 
-0.025794 -0.126506 
-0.024740 -0.093374 
-0.025790 -0.110477 
-0.021707 -0.125909 
-0.017797 -0.125353 
-0.016966 -0.092664 
-0.017746 -0.109528 
-0.020750 -0.092999 
0.000000 0.000000 
0.000965 -0.018859 
0.002992 -0.018879 
0.001961 -0.018881 
0.000000 0.000000 
0.001792 -0.037659 
0.002449 -0.056205 
0.007712 -0.018732 
0.006412 -0.018788 
0.000000 0.000000 
0.010133 -0.056477 
0.009518 -0.037773 
0.012907 -0.056561 
0.000000 0.000000 
0.005204 -0.018831 
0.004069 -0.018862 
0.003413 -0.108290 
0.003431 -0.123851 
0.002934 -0.074292 
0.003252 -0.091716 
0.009894 -0.092113 
0.006537 -0.091897 
0.008944 -0.074585 
0.005500 -0.037751 
0.007485 -0.056394 
0.004934 -0.056307 
0.029241 -0.022173 
0.023279 -0.019468 
0.000000 0.000000 
0.039198 -0.058462 
0.034349 -0.039240 
0.044747 -0.059872 
0.000000 0.000000 
0.019505 -0.018702 
0.016676 -0.018487 
0.030071 -0.127125 
0.034690 -0.111587 
0.034542 -0.127741 
0.030619 -0.075995 
0.033460 -0.094275 
0.028968 -0.093795 
0.043312 -0.095547 
0.038238 -0.094844 
0.040045 -0.077067 
0.000000 0.000000 
0.010675 -0.018590 
0.009124 -0.018664 
0.014372 -0.018466 
0.012405 -0.018516 
0.000000 0.000000 
0.022324 -0.056870 
0.019329 -0.037754 
0.025958 -0.057032 
0.034305 -0.057702 
0.029927 -0.057280 
0.025786 -0.037952 
0.000940 -0.196334 
0.000381 -0.201048 
0.001963 -0.182638 
0.001469 -0.190201 
0.004463 -0.191263 
0.002945 -0.190604 
0.005966 -0.183612 
0.003324 -0.138260 
0.003107 -0.151411 
0.009426 -0.152151 
0.006239 -0.151710 
0.010086 -0.138925 
0.002798 -0.163222 
0.002411 -0.173642 
0.023254 -0.154856 
0.019595 -0.154107 
0.024901 -0.141328 
0.009875 -0.175239 
0.014494 -0.165414 
0.012531 -0.176070 
0.017212 -0.140003 
0.016082 -0.153379 
0.012699 -0.152716 
0.004842 -0.173992 
0.008489 -0.164037 
0.007321 -0.174533 
0.014043 -0.037760 
0.022505 -0.075384 
0.018966 -0.056750 
0.015840 -0.056651 
0.015376 -0.074939 
0.025794 -0.126506 
0.017797 -0.125353 
0.021707 -0.125909 
0.025790 -0.110477 
0.024740 -0.093374 
0.006892 -0.124097 
0.013359 -0.092369 
0.010370 -0.108785 
0.010418 -0.124434 
0.014043 -0.124857 
0.020750 -0.092999 
0.017746 -0.109528 
0.016966 -0.092664 
0.042523 -0.033566 
0.047920 -0.046346 
0.063180 -0.084281 
0.057883 -0.066512 
0.064507 -0.072093 
0.051069 -0.062440 
0.051092 -0.079460 
0.060418 -0.140339 
0.063485 -0.128102 
0.067914 -0.126214 
0.053885 -0.129314 
0.058772 -0.129028 
0.051415 -0.143137 
0.070386 -0.101335 
0.065257 -0.114790 
0.065344 -0.100256 
0.039199 -0.128323 
0.033249 -0.142625 
0.048666 -0.096440 
0.044502 -0.112844 
0.042187 -0.143469 
0.044012 -0.128829 
0.048933 -0.129194 
0.059865 -0.098886 
0.054967 -0.114155 
0.054232 -0.097562 
0.013981 -0.209348 
0.020643 -0.202919 
0.023876 -0.196994 
0.014936 -0.209884 
0.017656 -0.207137 
0.008693 -0.216032 
0.037296 -0.182849 
0.027272 -0.195994 
0.033778 -0.188501 
0.006716 -0.210779 
0.008384 -0.211639 
0.001894 -0.215817 
0.024156 -0.197068 
0.015867 -0.205359 
0.021286 -0.197837 
0.004689 -0.217558 
0.010304 -0.211913 
0.012486 -0.211400 
0.060427 -0.147806 
0.051479 -0.161992 
0.056343 -0.151608 
0.040060 -0.180377 
0.046002 -0.171560 
0.049803 -0.166566 
0.038509 -0.177534 
0.042233 -0.175138 
0.033029 -0.186921 
0.021135 -0.203027 
0.027200 -0.195395 
0.030410 -0.192612 
0.000718 -0.201482 
-0.000280 -0.204316 
0.006059 -0.192148 
0.002841 -0.197490 
-0.000668 -0.205770 
0.001123 -0.202313 
0.001633 -0.203470 
0.027065 -0.155573 
0.020988 -0.167046 
0.015058 -0.187367 
0.018220 -0.177880 
0.021276 -0.178708 
0.015308 -0.176973 
0.010266 -0.185333 
0.000188 -0.212431 
0.004085 -0.208015 
0.005288 -0.209516 
0.002280 -0.204871 
0.003089 -0.206423 
-0.000595 -0.208737 
0.013750 -0.196591 
0.007910 -0.202395 
0.011593 -0.195527 