# vtk DataFile Version 2.0
Unstructured Grid Example
ASCII
DATASET UNSTRUCTURED_GRID

POINTS 25 float
-0.027202 -0.231532 0.000000 
1.027202 -0.231532 0.000000 
1.000000 1.000000 0.000000 
0.000000 1.000000 0.000000 
0.500000 -0.087417 0.000000 
0.976720 0.310610 0.000000 
0.500000 1.000000 0.000000 
0.023280 0.310610 0.000000 
0.500000 0.303899 0.000000 
0.224006 -0.163947 0.000000 
0.500000 0.081144 0.000000 
0.228345 0.045173 0.000000 
0.775994 -0.163947 0.000000 
0.771655 0.045173 0.000000 
1.019579 0.024339 0.000000 
0.742885 0.302565 0.000000 
0.944911 0.615553 0.000000 
0.726234 0.622467 0.000000 
0.750000 1.000000 0.000000 
0.500000 0.629286 0.000000 
0.250000 1.000000 0.000000 
0.273766 0.622467 0.000000 
0.055089 0.615553 0.000000 
0.257115 0.302565 0.000000 
-0.019579 0.024339 0.000000 

CELLS 32 128
3  0 9 11 
3  4 10 9 
3  8 11 10 
3  9 10 11 
3  4 12 10 
3  1 13 12 
3  8 10 13 
3  12 13 10 
3  1 14 13 
3  5 15 14 
3  8 13 15 
3  14 15 13 
3  5 16 15 
3  2 17 16 
3  8 15 17 
3  16 17 15 
3  2 18 17 
3  6 19 18 
3  8 17 19 
3  18 19 17 
3  6 20 19 
3  3 21 20 
3  8 19 21 
3  20 21 19 
3  3 22 21 
3  7 23 22 
3  8 21 23 
3  22 23 21 
3  7 24 23 
3  0 11 24 
3  8 23 11 
3  24 11 23 

CELL_TYPES 32
5
5
5
5
5
5
5
5
5
5
5
5
5
5
5
5
5
5
5
5
5
5
5
5
5
5
5
5
5
5
5
5

POINT_DATA 25

SCALARS u_h float 2
LOOKUP_TABLE default
-0.027202 -0.231532 
0.027202 -0.231532 
0.000000 0.000000 
0.000000 0.000000 
0.000000 -0.087417 
-0.023280 -0.189390 
0.000000 0.000000 
0.023280 -0.189390 
0.000000 -0.196101 
-0.025994 -0.163947 
0.000000 -0.168856 
-0.021655 -0.204827 
0.025994 -0.163947 
0.021655 -0.204827 
0.019579 -0.225661 
-0.007115 -0.197435 
-0.055089 -0.134447 
-0.023766 -0.127533 
0.000000 0.000000 
-0.000000 -0.120714 
0.000000 0.000000 
0.023766 -0.127533 
0.055089 -0.134447 
0.007115 -0.197435 
-0.019579 -0.225661 

CELL_DATA 32

SCALARS epsilon float 4
LOOKUP_TABLE default
-0.000561 -0.129447 0.000000 0.169876
0.098619 -0.281862 0.000000 0.224995
0.082894 -0.103787 0.000000 0.080227
0.080343 -0.166423 0.000000 0.093163
0.098619 -0.281862 0.000000 -0.224995
-0.000561 -0.129447 0.000000 -0.169876
0.082894 -0.103787 0.000000 -0.080227
0.080343 -0.166423 0.000000 -0.093163
-0.010393 0.024090 0.000000 -0.056076
-0.048945 0.140228 0.000000 -0.076071
-0.022852 0.028530 0.000000 -0.061769
-0.011303 0.023092 0.000000 -0.098460
-0.056999 0.200265 0.000000 -0.052600
-0.115249 0.415038 0.000000 0.101474
-0.027715 0.242120 0.000000 -0.034728
-0.132813 0.241121 0.000000 -0.046854
0.001981 0.394864 0.000000 0.042109
0.000000 0.378641 0.000000 0.000000
-0.099534 0.258792 0.000000 -0.010364
-0.095248 0.396741 0.000000 0.037551
0.000000 0.378641 0.000000 0.000000
0.001981 0.394864 0.000000 -0.042109
-0.099534 0.258792 0.000000 0.010364
-0.095248 0.396741 0.000000 -0.037551
-0.115249 0.415038 0.000000 -0.101474
-0.056999 0.200265 0.000000 0.052600
-0.027715 0.242120 0.000000 0.034728
-0.132813 0.241121 0.000000 0.046854
-0.048945 0.140228 0.000000 0.076071
-0.010393 0.024090 0.000000 0.056076
-0.022852 0.028530 0.000000 0.061769
-0.011303 0.023092 0.000000 0.098460

SCALARS sigma float 4
LOOKUP_TABLE default
-1.975659 -6.194670 -1.875786 2.916853
-1.629964 -18.206633 -3.400831 3.372308
0.786995 -2.726390 -0.509727 1.218587
-0.019273 -5.331011 -1.301803 1.513148
-1.629964 -18.206633 -3.400831 -3.372308
-1.975659 -6.194670 -1.875786 -2.916853
0.786995 -2.726390 -0.509727 -1.218587
-0.019273 -5.331011 -1.301803 -1.513148
-0.130262 0.380759 0.069068 -0.918187
-0.338627 2.639706 0.659826 -0.883441
-0.537170 0.418246 -0.032570 -0.994631
-0.459263 0.160407 -0.081220 -1.625650
0.142128 3.758537 1.149026 -0.476064
-0.295483 6.399785 1.835302 0.719906
1.552383 4.888129 1.985730 -0.316962
-2.128539 3.563012 0.398692 -0.650429
3.948638 7.792159 3.948638 0.200051
3.786406 7.540679 3.786406 0.000000
-0.622492 4.315272 1.075261 -0.189922
0.709236 6.527792 2.230949 0.181255
3.786406 7.540679 3.786406 0.000000
3.948638 7.792159 3.948638 -0.200051
-0.622492 4.315272 1.075261 0.189922
0.709236 6.527792 2.230949 -0.181255
-0.295483 6.399785 1.835302 -0.719906
0.142128 3.758537 1.149026 0.476064
1.552383 4.888129 1.985730 0.316962
-2.128539 3.563012 0.398692 0.650429
-0.338627 2.639706 0.659826 0.883441
-0.130262 0.380759 0.069068 0.918187
-0.537170 0.418246 -0.032570 0.994631
-0.459263 0.160407 -0.081220 1.625650

