# vtk DataFile Version 2.0
Unstructured Grid Example
ASCII
DATASET UNSTRUCTURED_GRID

POINTS 9 float
0.027859 -0.266485 0.000000 
0.972141 -0.266485 0.000000 
1.000000 1.000000 0.000000 
0.000000 1.000000 0.000000 
0.500000 -0.062977 0.000000 
0.956295 0.297167 0.000000 
0.500000 1.000000 0.000000 
0.043705 0.297167 0.000000 
0.500000 0.335159 0.000000 

CELLS 8 32
3  0 4 8 
3  4 1 8 
3  1 5 8 
3  5 2 8 
3  2 6 8 
3  6 3 8 
3  3 7 8 
3  7 0 8 

CELL_TYPES 8
5
5
5
5
5
5
5
5

POINT_DATA 9

SCALARS u_h float 2
LOOKUP_TABLE default
0.027859 -0.266485 
-0.027859 -0.266485 
0.000000 0.000000 
0.000000 0.000000 
0.000000 -0.062977 
-0.043705 -0.202833 
0.000000 0.000000 
0.043705 -0.202833 
0.000000 -0.164841 

CELL_DATA 8

SCALARS epsilon float 4
LOOKUP_TABLE default
-0.057265 -0.076612 0.000000 0.254687
-0.057265 -0.076612 0.000000 -0.254687
-0.093040 0.119731 0.000000 -0.050525
-0.083778 0.336701 0.000000 0.016993
0.000000 0.278678 0.000000 -0.000000
0.000000 0.278678 0.000000 -0.000000
-0.083778 0.336701 0.000000 -0.016993
-0.093040 0.119731 0.000000 0.050525

SCALARS sigma float 4
LOOKUP_TABLE default
-3.706171 -8.341857 -2.548339 4.438783
-3.706171 -8.341857 -2.548339 -4.438783
-1.729477 1.704052 -0.006936 -0.860648
0.625134 5.783556 1.959293 -0.124616
2.786777 5.895387 2.786777 -0.000000
2.786777 5.895387 2.786777 -0.000000
0.625134 5.783556 1.959293 0.124616
-1.729477 1.704052 -0.006936 0.860648

