# vtk DataFile Version 2.0
Unstructured Grid Example
ASCII
DATASET UNSTRUCTURED_GRID

POINTS 81 float
-0.005351 -0.261120 0.000000 
1.005351 -0.261120 0.000000 
1.000000 1.000000 0.000000 
0.000000 1.000000 0.000000 
0.500000 -0.096915 0.000000 
0.980152 0.299510 0.000000 
0.500000 1.000000 0.000000 
0.019848 0.299510 0.000000 
0.500000 0.297013 0.000000 
0.236273 -0.166871 0.000000 
0.500000 0.071235 0.000000 
0.225318 0.036820 0.000000 
0.763727 -0.166871 0.000000 
0.774682 0.036820 0.000000 
1.021403 0.006532 0.000000 
0.747506 0.291817 0.000000 
0.939189 0.612425 0.000000 
0.722989 0.613363 0.000000 
0.750000 1.000000 0.000000 
0.500000 0.618711 0.000000 
0.250000 1.000000 0.000000 
0.277011 0.613363 0.000000 
0.060811 0.612425 0.000000 
0.252494 0.291817 0.000000 
-0.021403 0.006532 0.000000 
0.118847 -0.231836 0.000000 
0.223244 -0.071447 0.000000 
0.098937 -0.113635 0.000000 
0.500000 -0.018840 0.000000 
0.357743 -0.033903 0.000000 
0.363455 -0.115621 0.000000 
0.365567 0.171008 0.000000 
0.359456 0.061177 0.000000 
0.500000 0.175828 0.000000 
0.636545 -0.115621 0.000000 
0.642257 -0.033903 0.000000 
0.901063 -0.113635 0.000000 
0.776756 -0.071447 0.000000 
0.881153 -0.231836 0.000000 
0.640544 0.061177 0.000000 
0.634433 0.171008 0.000000 
1.023311 -0.131779 0.000000 
0.900753 0.011775 0.000000 
0.865654 0.287532 0.000000 
0.886982 0.144852 0.000000 
1.004554 0.150321 0.000000 
0.763645 0.157198 0.000000 
0.625268 0.298490 0.000000 
0.957585 0.450819 0.000000 
0.845189 0.440949 0.000000 
0.836299 0.801579 0.000000 
0.830814 0.610250 0.000000 
0.936635 0.789261 0.000000 
0.731769 0.442557 0.000000 
0.616175 0.446249 0.000000 
0.875000 1.000000 0.000000 
0.726850 0.802782 0.000000 
0.500000 0.805988 0.000000 
0.614126 0.803541 0.000000 
0.625000 1.000000 0.000000 
0.612158 0.616014 0.000000 
0.500000 0.447888 0.000000 
0.375000 1.000000 0.000000 
0.385874 0.803541 0.000000 
0.163701 0.801579 0.000000 
0.273150 0.802782 0.000000 
0.125000 1.000000 0.000000 
0.387842 0.616014 0.000000 
0.383825 0.446249 0.000000 
0.063365 0.789261 0.000000 
0.169186 0.610250 0.000000 
0.134346 0.287532 0.000000 
0.154811 0.440949 0.000000 
0.042415 0.450819 0.000000 
0.268231 0.442557 0.000000 
0.374732 0.298490 0.000000 
-0.004554 0.150321 0.000000 
0.113018 0.144852 0.000000 
0.099247 0.011775 0.000000 
-0.023311 -0.131779 0.000000 
0.236355 0.157198 0.000000 

CELLS 128 512
3  0 25 27 
3  9 26 25 
3  11 27 26 
3  25 26 27 
3  4 28 30 
3  10 29 28 
3  9 30 29 
3  28 29 30 
3  8 31 33 
3  11 32 31 
3  10 33 32 
3  31 32 33 
3  9 29 26 
3  10 32 29 
3  11 26 32 
3  29 32 26 
3  4 34 28 
3  12 35 34 
3  10 28 35 
3  34 35 28 
3  1 36 38 
3  13 37 36 
3  12 38 37 
3  36 37 38 
3  8 33 40 
3  10 39 33 
3  13 40 39 
3  33 39 40 
3  12 37 35 
3  13 39 37 
3  10 35 39 
3  37 39 35 
3  1 41 36 
3  14 42 41 
3  13 36 42 
3  41 42 36 
3  5 43 45 
3  15 44 43 
3  14 45 44 
3  43 44 45 
3  8 40 47 
3  13 46 40 
3  15 47 46 
3  40 46 47 
3  14 44 42 
3  15 46 44 
3  13 42 46 
3  44 46 42 
3  5 48 43 
3  16 49 48 
3  15 43 49 
3  48 49 43 
3  2 50 52 
3  17 51 50 
3  16 52 51 
3  50 51 52 
3  8 47 54 
3  15 53 47 
3  17 54 53 
3  47 53 54 
3  16 51 49 
3  17 53 51 
3  15 49 53 
3  51 53 49 
3  2 55 50 
3  18 56 55 
3  17 50 56 
3  55 56 50 
3  6 57 59 
3  19 58 57 
3  18 59 58 
3  57 58 59 
3  8 54 61 
3  17 60 54 
3  19 61 60 
3  54 60 61 
3  18 58 56 
3  19 60 58 
3  17 56 60 
3  58 60 56 
3  6 62 57 
3  20 63 62 
3  19 57 63 
3  62 63 57 
3  3 64 66 
3  21 65 64 
3  20 66 65 
3  64 65 66 
3  8 61 68 
3  19 67 61 
3  21 68 67 
3  61 67 68 
3  20 65 63 
3  21 67 65 
3  19 63 67 
3  65 67 63 
3  3 69 64 
3  22 70 69 
3  21 64 70 
3  69 70 64 
3  7 71 73 
3  23 72 71 
3  22 73 72 
3  71 72 73 
3  8 68 75 
3  21 74 68 
3  23 75 74 
3  68 74 75 
3  22 72 70 
3  23 74 72 
3  21 70 74 
3  72 74 70 
3  7 76 71 
3  24 77 76 
3  23 71 77 
3  76 77 71 
3  0 27 79 
3  11 78 27 
3  24 79 78 
3  27 78 79 
3  8 75 31 
3  23 80 75 
3  11 31 80 
3  75 80 31 
3  24 78 77 
3  11 80 78 
3  23 77 80 
3  78 80 77 

CELL_TYPES 128
5
5
5
5
5
5
5
5
5
5
5
5
5
5
5
5
5
5
5
5
5
5
5
5
5
5
5
5
5
5
5
5
5
5
5
5
5
5
5
5
5
5
5
5
5
5
5
5
5
5
5
5
5
5
5
5
5
5
5
5
5
5
5
5
5
5
5
5
5
5
5
5
5
5
5
5
5
5
5
5
5
5
5
5
5
5
5
5
5
5
5
5
5
5
5
5
5
5
5
5
5
5
5
5
5
5
5
5
5
5
5
5
5
5
5
5
5
5
5
5
5
5
5
5
5
5
5
5

POINT_DATA 81

SCALARS u_h float 2
LOOKUP_TABLE default
-0.005351 -0.261120 
0.005351 -0.261120 
0.000000 0.000000 
0.000000 0.000000 
0.000000 -0.096915 
-0.019848 -0.200490 
0.000000 0.000000 
0.019848 -0.200490 
-0.000000 -0.202987 
-0.013727 -0.166871 
0.000000 -0.178765 
-0.024682 -0.213180 
0.013727 -0.166871 
0.024682 -0.213180 
0.021403 -0.243468 
-0.002494 -0.208183 
-0.060811 -0.137575 
-0.027011 -0.136637 
0.000000 0.000000 
-0.000000 -0.131289 
0.000000 0.000000 
0.027011 -0.136637 
0.060811 -0.137575 
0.002494 -0.208183 
-0.021403 -0.243468 
-0.006153 -0.231836 
-0.026756 -0.196447 
-0.026063 -0.238635 
0.000000 -0.143840 
-0.017257 -0.158903 
-0.011545 -0.115621 
-0.009433 -0.203992 
-0.015544 -0.188823 
-0.000000 -0.199172 
0.011545 -0.115621 
0.017257 -0.158903 
0.026063 -0.238635 
0.026756 -0.196447 
0.006153 -0.231836 
0.015544 -0.188823 
0.009433 -0.203992 
0.023311 -0.256779 
0.025753 -0.238225 
-0.009346 -0.212468 
0.011982 -0.230148 
0.004554 -0.224679 
0.013645 -0.217802 
0.000268 -0.201510 
-0.042415 -0.174181 
-0.029811 -0.184051 
-0.038701 -0.073421 
-0.044186 -0.139750 
-0.063365 -0.085739 
-0.018231 -0.182443 
-0.008825 -0.178751 
0.000000 0.000000 
-0.023150 -0.072218 
0.000000 -0.069012 
-0.010874 -0.071459 
0.000000 0.000000 
-0.012842 -0.133986 
-0.000000 -0.177112 
0.000000 0.000000 
0.010874 -0.071459 
0.038701 -0.073421 
0.023150 -0.072218 
0.000000 0.000000 
0.012842 -0.133986 
0.008825 -0.178751 
0.063365 -0.085739 
0.044186 -0.139750 
0.009346 -0.212468 
0.029811 -0.184051 
0.042415 -0.174181 
0.018231 -0.182443 
-0.000268 -0.201510 
-0.004554 -0.224679 
-0.011982 -0.230148 
-0.025753 -0.238225 
-0.023311 -0.256779 
-0.013645 -0.217802 

CELL_DATA 128

SCALARS epsilon float 4
LOOKUP_TABLE default
0.045798 0.011777 0.000000 0.043615
0.019449 0.032823 0.000000 0.287516
-0.011895 -0.071191 0.000000 0.202929
0.062827 0.057296 0.000000 0.097951
0.088128 -0.396353 0.000000 0.118941
0.128668 -0.301776 0.000000 0.082388
0.047280 -0.189087 0.000000 0.295857
0.137787 -0.371111 0.000000 0.075983
0.072632 -0.030303 0.000000 0.019786
0.061704 -0.116721 0.000000 0.132768
0.116715 -0.172416 0.000000 0.047492
0.071989 -0.129691 0.000000 0.044118
0.117702 -0.165528 0.000000 0.149444
0.115570 -0.261895 0.000000 0.057742
0.067137 -0.123881 0.000000 0.119547
0.068240 -0.201684 0.000000 0.202285
0.088128 -0.396353 0.000000 -0.118941
0.047280 -0.189087 0.000000 -0.295857
0.128668 -0.301776 0.000000 -0.082388
0.137787 -0.371111 0.000000 -0.075983
0.045798 0.011777 0.000000 -0.043615
-0.011895 -0.071191 0.000000 -0.202929
0.019449 0.032823 0.000000 -0.287516
0.062827 0.057296 0.000000 -0.097951
0.072632 -0.030303 0.000000 -0.019786
0.116715 -0.172416 0.000000 -0.047492
0.061704 -0.116721 0.000000 -0.132768
0.071989 -0.129691 0.000000 -0.044118
0.117702 -0.165528 0.000000 -0.149444
0.067137 -0.123881 0.000000 -0.119547
0.115570 -0.261895 0.000000 -0.057742
0.068240 -0.201684 0.000000 -0.202285
0.007816 0.064360 0.000000 0.003110
-0.035902 0.101048 0.000000 -0.026765
0.008040 0.022410 0.000000 -0.101073
-0.022620 0.013862 0.000000 -0.073567
-0.055250 0.195472 0.000000 -0.063320
-0.049087 0.126741 0.000000 -0.103938
-0.048096 0.145357 0.000000 -0.051388
-0.041828 0.139223 0.000000 -0.070068
0.005560 0.020567 0.000000 -0.030773
0.027300 -0.041205 0.000000 -0.099939
-0.021292 0.068770 0.000000 -0.090498
0.027877 0.017518 0.000000 -0.089591
-0.034107 0.058883 0.000000 -0.076555
-0.017898 0.066408 0.000000 -0.111017
-0.005566 -0.033923 0.000000 -0.147642
-0.018185 0.056668 0.000000 -0.102041
-0.059283 0.207591 0.000000 -0.055759
-0.088164 0.263853 0.000000 -0.047123
-0.051090 0.198135 0.000000 -0.097671
-0.083587 0.216107 0.000000 -0.055738
-0.115920 0.522008 0.000000 0.229892
-0.145244 0.407672 0.000000 0.014439
-0.141213 0.336456 0.000000 -0.004761
-0.211665 0.413049 0.000000 -0.006306
0.004752 0.166651 0.000000 -0.030429
-0.022293 0.180822 0.000000 -0.084711
-0.078144 0.302879 0.000000 -0.046002
-0.077793 0.164338 0.000000 -0.050825
-0.135192 0.297602 0.000000 -0.055458
-0.146269 0.302975 0.000000 -0.046685
-0.091712 0.183969 0.000000 -0.072659
-0.093688 0.294838 0.000000 -0.063763
0.019021 0.438488 0.000000 0.133607
0.006889 0.433229 0.000000 0.080184
-0.131496 0.398143 0.000000 0.012483
-0.105183 0.440360 0.000000 0.149440
0.000000 0.418975 0.000000 -0.000000
-0.090744 0.387931 0.000000 -0.006475
0.001532 0.429888 0.000000 0.037742
-0.087735 0.431010 0.000000 0.035139
-0.073078 0.186279 0.000000 -0.005401
-0.119870 0.298083 0.000000 -0.024549
-0.107946 0.304382 0.000000 -0.007791
-0.073085 0.298198 0.000000 -0.020890
-0.093734 0.433922 0.000000 0.086977
-0.107629 0.389366 0.000000 0.000700
-0.118926 0.398475 0.000000 0.008513
-0.102835 0.389087 0.000000 0.005759
0.000000 0.418975 0.000000 -0.000000
0.001532 0.429888 0.000000 -0.037742
-0.090744 0.387931 0.000000 0.006475
-0.087735 0.431010 0.000000 -0.035139
0.019021 0.438488 0.000000 -0.133607
-0.131496 0.398143 0.000000 -0.012483
0.006889 0.433229 0.000000 -0.080184
-0.105183 0.440360 0.000000 -0.149440
-0.073078 0.186279 0.000000 0.005401
-0.107946 0.304382 0.000000 0.007791
-0.119870 0.298083 0.000000 0.024549
-0.073085 0.298198 0.000000 0.020890
-0.093734 0.433922 0.000000 -0.086977
-0.118926 0.398475 0.000000 -0.008513
-0.107629 0.389366 0.000000 -0.000700
-0.102835 0.389087 0.000000 -0.005759
-0.115920 0.522008 0.000000 -0.229892
-0.141213 0.336456 0.000000 0.004761
-0.145244 0.407672 0.000000 -0.014439
-0.211665 0.413049 0.000000 0.006306
-0.059283 0.207591 0.000000 0.055759
-0.051090 0.198135 0.000000 0.097671
-0.088164 0.263853 0.000000 0.047123
-0.083587 0.216107 0.000000 0.055738
0.004752 0.166651 0.000000 0.030429
-0.078144 0.302879 0.000000 0.046002
-0.022293 0.180822 0.000000 0.084711
-0.077793 0.164338 0.000000 0.050825
-0.135192 0.297602 0.000000 0.055458
-0.091712 0.183969 0.000000 0.072659
-0.146269 0.302975 0.000000 0.046685
-0.093688 0.294838 0.000000 0.063763
-0.055250 0.195472 0.000000 0.063320
-0.048096 0.145357 0.000000 0.051388
-0.049087 0.126741 0.000000 0.103938
-0.041828 0.139223 0.000000 0.070068
0.007816 0.064360 0.000000 -0.003110
0.008040 0.022410 0.000000 0.101073
-0.035902 0.101048 0.000000 0.026765
-0.022620 0.013862 0.000000 0.073567
0.005560 0.020567 0.000000 0.030773
-0.021292 0.068770 0.000000 0.090498
0.027300 -0.041205 0.000000 0.099939
0.027877 0.017518 0.000000 0.089591
-0.034107 0.058883 0.000000 0.076555
-0.005566 -0.033923 0.000000 0.147642
-0.017898 0.066408 0.000000 0.111017
-0.018185 0.056668 0.000000 0.102041

SCALARS sigma float 4
LOOKUP_TABLE default
1.323264 0.563718 0.548496 0.782181
0.014135 -4.270125 -1.117825 4.096149
-1.951143 -4.979602 -1.637528 3.466715
2.147519 1.427445 1.081342 1.749713
-2.414351 -27.466123 -4.063784 1.798556
-0.475560 -12.690196 -2.643412 1.204982
-1.727930 -16.771247 -3.347499 3.573916
-0.917959 -19.856523 -3.471389 0.031495
1.460155 -0.141185 0.371443 0.303219
-0.161557 -4.036418 -1.046765 2.256552
0.818971 -4.835647 -1.004584 0.701309
0.313659 -3.448196 -0.802675 0.844579
0.878359 -6.190249 -1.314585 1.533548
-0.236774 -9.542974 -2.135278 0.991575
0.037443 -4.103930 -1.019610 1.910160
-1.316467 -10.230571 -2.428082 3.273826
-2.414351 -27.466123 -4.063784 -1.798556
-1.727930 -16.771247 -3.347499 -3.573916
-0.475560 -12.690196 -2.643412 -1.204982
-0.917959 -19.856523 -3.471389 -0.031495
1.323264 0.563718 0.548496 -0.782181
-1.951143 -4.979602 -1.637528 -3.466715
0.014135 -4.270125 -1.117825 -4.096149
2.147519 1.427445 1.081342 -1.749713
1.460155 -0.141185 0.371443 -0.303219
0.818971 -4.835647 -1.004584 -0.701309
-0.161557 -4.036418 -1.046765 -2.256552
0.313659 -3.448196 -0.802675 -0.844579
0.878359 -6.190249 -1.314585 -1.533548
0.037443 -4.103930 -1.019610 -1.910160
-0.236774 -9.542974 -2.135278 -0.991575
-1.316467 -10.230571 -2.428082 -3.273826
0.839055 1.672769 0.731628 -0.182041
-0.031087 2.012455 0.564584 -0.425781
0.229878 0.145227 0.103796 -1.644081
-0.589806 -0.157075 -0.202087 -1.235164
0.047848 3.696565 1.106043 -0.420312
-0.655981 2.205633 0.436052 -1.446050
-0.106403 2.805189 0.779981 -0.525339
-0.091795 2.719934 0.759298 -0.762395
0.299204 0.575570 0.244615 -0.462043
-0.067064 -1.292195 -0.361298 -1.715256
-0.248170 1.257512 0.281696 -1.369148
0.647100 0.437090 0.303194 -1.403425
-0.625013 0.953001 0.090391 -1.201820
-0.300952 1.076128 0.214830 -1.733034
-1.192720 -2.056208 -0.827079 -2.637848
-0.321860 0.886469 0.155972 -1.618517
0.084305 3.881885 1.174759 -0.315739
-0.306009 4.529158 1.247229 -0.228192
0.050381 3.633535 1.077199 -1.159737
-0.639123 3.745499 0.901793 -0.405097
-1.300068 7.320611 1.793657 1.409602
-1.130437 6.029108 1.435865 0.043461
-1.552513 5.040863 1.001738 0.006929
-4.212261 5.195165 0.264478 -0.380111
1.756788 3.851428 1.711344 -0.261939
0.896914 3.670653 1.361154 -1.024305
0.455254 5.278037 1.731654 -0.502348
-0.837166 2.806532 0.558095 -0.705284
-1.800185 4.471221 0.757921 -0.556676
-2.145255 4.414301 0.637161 -0.598578
-1.275755 2.980248 0.479541 -0.946375
-0.263960 4.922542 1.377735 -0.651934
4.384881 8.449526 4.384881 0.543137
4.332291 8.371676 4.332291 0.332318
-0.633584 6.078302 1.616278 0.073714
-0.166538 6.714688 1.978762 1.113818
4.189748 8.158776 4.189748 -0.000000
0.860801 6.474393 2.266984 -0.117365
4.298877 8.322019 4.298877 0.158339
1.309620 7.125366 2.651756 0.159834
-0.367191 3.340182 0.859176 -0.095863
-1.054826 4.700829 1.055462 -0.317910
-0.524362 4.963794 1.306001 -0.144291
0.650826 5.298726 1.806523 -0.224792
0.856290 6.992039 2.437119 0.579628
0.241560 6.271552 1.979221 -0.069838
-0.122004 6.252692 1.846265 -0.004651
0.419983 6.331388 2.061616 0.023314
4.189748 8.158776 4.189748 -0.000000
4.298877 8.322019 4.298877 -0.158339
0.860801 6.474393 2.266984 0.117365
1.309620 7.125366 2.651756 -0.159834
4.384881 8.449526 4.384881 -0.543137
-0.633584 6.078302 1.616278 -0.073714
4.332291 8.371676 4.332291 -0.332318
-0.166538 6.714688 1.978762 -1.113818
-0.367191 3.340182 0.859176 0.095863
-0.524362 4.963794 1.306001 0.144291
-1.054826 4.700829 1.055462 0.317910
0.650826 5.298726 1.806523 0.224792
0.856290 6.992039 2.437119 -0.579628
-0.122004 6.252692 1.846265 0.004651
0.241560 6.271552 1.979221 0.069838
0.419983 6.331388 2.061616 -0.023314
-1.300068 7.320611 1.793657 -1.409602
-1.552513 5.040863 1.001738 -0.006929
-1.130437 6.029108 1.435865 -0.043461
-4.212261 5.195165 0.264478 0.380111
0.084305 3.881885 1.174759 0.315739
0.050381 3.633535 1.077199 1.159737
-0.306009 4.529158 1.247229 0.228192
-0.639123 3.745499 0.901793 0.405097
1.756788 3.851428 1.711344 0.261939
0.455254 5.278037 1.731654 0.502348
0.896914 3.670653 1.361154 1.024305
-0.837166 2.806532 0.558095 0.705284
-1.800185 4.471221 0.757921 0.556676
-1.275755 2.980248 0.479541 0.946375
-2.145255 4.414301 0.637161 0.598578
-0.263960 4.922542 1.377735 0.651934
0.047848 3.696565 1.106043 0.420312
-0.106403 2.805189 0.779981 0.525339
-0.655981 2.205633 0.436052 1.446050
-0.091795 2.719934 0.759298 0.762395
0.839055 1.672769 0.731628 0.182041
0.229878 0.145227 0.103796 1.644081
-0.031087 2.012455 0.564584 0.425781
-0.589806 -0.157075 -0.202087 1.235164
0.299204 0.575570 0.244615 0.462043
-0.248170 1.257512 0.281696 1.369148
-0.067064 -1.292195 -0.361298 1.715256
0.647100 0.437090 0.303194 1.403425
-0.625013 0.953001 0.090391 1.201820
-1.192720 -2.056208 -0.827079 2.637848
-0.300952 1.076128 0.214830 1.733034
-0.321860 0.886469 0.155972 1.618517

