# vtk DataFile Version 2.0
Unstructured Grid Example
ASCII
DATASET UNSTRUCTURED_GRID

POINTS 16641 float
0.008667 -0.277289 0.000000 
0.991333 -0.277289 0.000000 
1.000000 1.000000 0.000000 
0.000000 1.000000 0.000000 
0.500000 -0.099987 0.000000 
0.983171 0.296096 0.000000 
0.500000 1.000000 0.000000 
0.016829 0.296096 0.000000 
0.500000 0.295618 0.000000 
0.235424 -0.169780 0.000000 
0.500000 0.065324 0.000000 
0.222831 0.032861 0.000000 
0.764576 -0.169780 0.000000 
0.777169 0.032861 0.000000 
1.026074 0.000462 0.000000 
0.749207 0.285147 0.000000 
0.934943 0.612486 0.000000 
0.720788 0.607436 0.000000 
0.750000 1.000000 0.000000 
0.500000 0.611217 0.000000 
0.250000 1.000000 0.000000 
0.279212 0.607436 0.000000 
0.065057 0.612486 0.000000 
0.250793 0.285147 0.000000 
-0.026074 0.000462 0.000000 
0.129245 -0.235261 0.000000 
0.221458 -0.073979 0.000000 
0.096875 -0.117264 0.000000 
0.500000 -0.024365 0.000000 
0.356842 -0.038066 0.000000 
0.359714 -0.119435 0.000000 
0.365479 0.165357 0.000000 
0.359012 0.056137 0.000000 
0.500000 0.171054 0.000000 
0.640286 -0.119435 0.000000 
0.643158 -0.038066 0.000000 
0.903125 -0.117264 0.000000 
0.778542 -0.073979 0.000000 
0.870755 -0.235261 0.000000 
0.640988 0.056137 0.000000 
0.634521 0.165357 0.000000 
1.021700 -0.145780 0.000000 
0.905613 0.008016 0.000000 
0.868700 0.282102 0.000000 
0.891125 0.140514 0.000000 
1.009166 0.147670 0.000000 
0.765742 0.151768 0.000000 
0.625728 0.292365 0.000000 
0.956156 0.449783 0.000000 
0.845324 0.435921 0.000000 
0.828902 0.796409 0.000000 
0.827908 0.605950 0.000000 
0.930440 0.787233 0.000000 
0.732359 0.436093 0.000000 
0.616994 0.440049 0.000000 
0.875000 1.000000 0.000000 
0.723179 0.798971 0.000000 
0.500000 0.800327 0.000000 
0.612747 0.799957 0.000000 
0.625000 1.000000 0.000000 
0.611314 0.610058 0.000000 
0.500000 0.441991 0.000000 
0.375000 1.000000 0.000000 
0.387253 0.799957 0.000000 
0.171098 0.796409 0.000000 
0.276821 0.798971 0.000000 
0.125000 1.000000 0.000000 
0.388686 0.610058 0.000000 
0.383006 0.440049 0.000000 
0.069560 0.787233 0.000000 
0.172092 0.605950 0.000000 
0.131300 0.282102 0.000000 
0.154676 0.435921 0.000000 
0.043844 0.449783 0.000000 
0.267641 0.436093 0.000000 
0.374272 0.292365 0.000000 
-0.009166 0.147670 0.000000 
0.108875 0.140514 0.000000 
0.094387 0.008016 0.000000 
-0.021700 -0.145780 0.000000 
0.234258 0.151768 0.000000 
0.069203 -0.259439 0.000000 
0.107836 -0.177502 0.000000 
0.050215 -0.198433 0.000000 
0.226198 -0.123212 0.000000 
0.165614 -0.150447 0.000000 
0.181175 -0.201602 0.000000 
0.155582 -0.039408 0.000000 
0.157871 -0.096117 0.000000 
0.220569 -0.021968 0.000000 
0.500000 -0.063866 0.000000 
0.428051 -0.068070 0.000000 
0.428676 -0.104996 0.000000 
0.428231 0.015721 0.000000 
0.427859 -0.027879 0.000000 
0.500000 0.018627 0.000000 
0.294962 -0.141723 0.000000 
0.357707 -0.080238 0.000000 
0.290212 -0.099173 0.000000 
0.434681 0.229671 0.000000 
0.432522 0.169574 0.000000 
0.500000 0.230806 0.000000 
0.290074 0.045665 0.000000 
0.361819 0.108709 0.000000 
0.294002 0.100492 0.000000 
0.500000 0.116017 0.000000 
0.430646 0.114128 0.000000 
0.429181 0.062958 0.000000 
0.287855 -0.053936 0.000000 
0.357294 0.007309 0.000000 
0.287901 -0.005729 0.000000 
0.571324 -0.104996 0.000000 
0.571949 -0.068070 0.000000 
0.709788 -0.099173 0.000000 
0.642293 -0.080238 0.000000 
0.705038 -0.141723 0.000000 
0.572141 -0.027879 0.000000 
0.571769 0.015721 0.000000 
0.949785 -0.198433 0.000000 
0.892164 -0.177502 0.000000 
0.930797 -0.259439 0.000000 
0.779431 -0.021968 0.000000 
0.842129 -0.096117 0.000000 
0.844418 -0.039408 0.000000 
0.818825 -0.201602 0.000000 
0.834386 -0.150447 0.000000 
0.773802 -0.123212 0.000000 
0.567478 0.169574 0.000000 
0.565319 0.229671 0.000000 
0.570819 0.062958 0.000000 
0.569354 0.114128 0.000000 
0.705998 0.100492 0.000000 
0.638181 0.108709 0.000000 
0.709926 0.045665 0.000000 
0.712145 -0.053936 0.000000 
0.712099 -0.005729 0.000000 
0.642706 0.007309 0.000000 
1.008493 -0.214584 0.000000 
0.962705 -0.134049 0.000000 
0.966840 0.000745 0.000000 
0.968049 -0.067433 0.000000 
1.027425 -0.073220 0.000000 
0.907127 -0.055457 0.000000 
0.842423 0.019555 0.000000 
0.926594 0.286013 0.000000 
0.939419 0.212424 0.000000 
0.996732 0.221477 0.000000 
0.819845 0.212000 0.000000 
0.880431 0.210000 0.000000 
0.809535 0.282399 0.000000 
1.019409 0.074125 0.000000 
0.951123 0.140580 0.000000 
0.960687 0.070097 0.000000 
0.630275 0.226448 0.000000 
0.563013 0.294802 0.000000 
0.772398 0.090681 0.000000 
0.700727 0.159059 0.000000 
0.687873 0.288862 0.000000 
0.694540 0.221722 0.000000 
0.757814 0.216462 0.000000 
0.899874 0.073279 0.000000 
0.829280 0.144969 0.000000 
0.837081 0.080929 0.000000 
0.969392 0.372008 0.000000 
0.913516 0.361803 0.000000 
0.889821 0.521965 0.000000 
0.900970 0.440282 0.000000 
0.944323 0.529822 0.000000 
0.856739 0.357250 0.000000 
0.799059 0.356584 0.000000 
0.896088 0.895239 0.000000 
0.879586 0.792856 0.000000 
0.942657 0.881250 0.000000 
0.774577 0.606289 0.000000 
0.824811 0.698434 0.000000 
0.772568 0.699753 0.000000 
0.929507 0.698121 0.000000 
0.876768 0.697368 0.000000 
0.881187 0.607422 0.000000 
0.621185 0.363466 0.000000 
0.560715 0.365314 0.000000 
0.740513 0.358225 0.000000 
0.681178 0.360859 0.000000 
0.669782 0.520700 0.000000 
0.674956 0.438058 0.000000 
0.725476 0.519097 0.000000 
0.835328 0.518635 0.000000 
0.780619 0.518105 0.000000 
0.789143 0.435003 0.000000 
0.937500 1.000000 0.000000 
0.844583 0.898748 0.000000 
0.733197 0.899577 0.000000 
0.789734 0.899460 0.000000 
0.812500 1.000000 0.000000 
0.776781 0.798092 0.000000 
0.719519 0.700986 0.000000 
0.500000 0.899629 0.000000 
0.558826 0.899610 0.000000 
0.562500 1.000000 0.000000 
0.555571 0.703513 0.000000 
0.556518 0.800223 0.000000 
0.500000 0.703722 0.000000 
0.687500 1.000000 0.000000 
0.617446 0.899596 0.000000 
0.675652 0.899588 0.000000 
0.558609 0.441475 0.000000 
0.500000 0.365974 0.000000 
0.666363 0.608816 0.000000 
0.613546 0.522274 0.000000 
0.500000 0.523794 0.000000 
0.556888 0.523390 0.000000 
0.555785 0.610909 0.000000 
0.668399 0.799545 0.000000 
0.610852 0.702941 0.000000 
0.665574 0.702071 0.000000 
0.437500 1.000000 0.000000 
0.441174 0.899610 0.000000 
0.324348 0.899588 0.000000 
0.382554 0.899596 0.000000 
0.312500 1.000000 0.000000 
0.443482 0.800223 0.000000 
0.444429 0.703513 0.000000 
0.103912 0.895239 0.000000 
0.155417 0.898748 0.000000 
0.062500 1.000000 0.000000 
0.280481 0.700986 0.000000 
0.223219 0.798092 0.000000 
0.227432 0.699753 0.000000 
0.187500 1.000000 0.000000 
0.210266 0.899460 0.000000 
0.266803 0.899577 0.000000 
0.441391 0.441475 0.000000 
0.439285 0.365314 0.000000 
0.444215 0.610909 0.000000 
0.443112 0.523390 0.000000 
0.330218 0.520700 0.000000 
0.386454 0.522274 0.000000 
0.333637 0.608816 0.000000 
0.331601 0.799545 0.000000 
0.334426 0.702071 0.000000 
0.389148 0.702941 0.000000 
0.057343 0.881250 0.000000 
0.120414 0.792856 0.000000 
0.118813 0.607422 0.000000 
0.123232 0.697368 0.000000 
0.070493 0.698121 0.000000 
0.175189 0.698434 0.000000 
0.225423 0.606289 0.000000 
0.073406 0.286013 0.000000 
0.086484 0.361803 0.000000 
0.030608 0.372008 0.000000 
0.200941 0.356584 0.000000 
0.143261 0.357250 0.000000 
0.190465 0.282399 0.000000 
0.055677 0.529822 0.000000 
0.099030 0.440282 0.000000 
0.110179 0.521965 0.000000 
0.378815 0.363466 0.000000 
0.436987 0.294802 0.000000 
0.274524 0.519097 0.000000 
0.325044 0.438058 0.000000 
0.312127 0.288862 0.000000 
0.318822 0.360859 0.000000 
0.259487 0.358225 0.000000 
0.164672 0.518635 0.000000 
0.210857 0.435003 0.000000 
0.219381 0.518105 0.000000 
0.003268 0.221477 0.000000 
0.060581 0.212424 0.000000 
0.039313 0.070097 0.000000 
0.048877 0.140580 0.000000 
-0.019409 0.074125 0.000000 
0.119569 0.210000 0.000000 
0.180155 0.212000 0.000000 
0.037295 -0.134049 0.000000 
-0.008493 -0.214584 0.000000 
0.157577 0.019555 0.000000 
0.092873 -0.055457 0.000000 
-0.027425 -0.073220 0.000000 
0.031951 -0.067433 0.000000 
0.033160 0.000745 0.000000 
0.369725 0.226448 0.000000 
0.242186 0.216462 0.000000 
0.305460 0.221722 0.000000 
0.299273 0.159059 0.000000 
0.227602 0.090681 0.000000 
0.100126 0.073279 0.000000 
0.162919 0.080929 0.000000 
0.170720 0.144969 0.000000 
0.038738 -0.268636 0.000000 
0.059271 -0.229473 0.000000 
0.029648 -0.238237 0.000000 
0.116744 -0.206931 0.000000 
0.088447 -0.219322 0.000000 
0.099703 -0.248634 0.000000 
0.072108 -0.157830 0.000000 
0.079212 -0.188880 0.000000 
0.101371 -0.147579 0.000000 
0.230236 -0.146800 0.000000 
0.200759 -0.161291 0.000000 
0.207672 -0.185326 0.000000 
0.191751 -0.111106 0.000000 
0.195502 -0.136567 0.000000 
0.223300 -0.098943 0.000000 
0.155721 -0.218522 0.000000 
0.172179 -0.176482 0.000000 
0.144306 -0.192088 0.000000 
0.188448 -0.002602 0.000000 
0.187776 -0.030688 0.000000 
0.221347 0.005086 0.000000 
0.127097 -0.107052 0.000000 
0.156128 -0.068042 0.000000 
0.124847 -0.077651 0.000000 
0.220578 -0.048320 0.000000 
0.188028 -0.058137 0.000000 
0.189312 -0.084949 0.000000 
0.136462 -0.164386 0.000000 
0.160962 -0.123610 0.000000 
0.130886 -0.135980 0.000000 
0.500000 -0.082347 0.000000 
0.464035 -0.083503 0.000000 
0.464185 -0.101249 0.000000 
0.463858 -0.045511 0.000000 
0.463921 -0.064925 0.000000 
0.500000 -0.044542 0.000000 
0.393767 -0.111117 0.000000 
0.428323 -0.086937 0.000000 
0.393104 -0.092551 0.000000 
0.464271 0.040833 0.000000 
0.464062 0.017895 0.000000 
0.500000 0.041496 0.000000 
0.392146 -0.032187 0.000000 
0.427972 -0.006518 0.000000 
0.392262 -0.010441 0.000000 
0.500000 -0.003316 0.000000 
0.463924 -0.004123 0.000000 
0.463857 -0.025250 0.000000 
0.264515 -0.155164 0.000000 
0.292310 -0.120760 0.000000 
0.260735 -0.133215 0.000000 
0.358590 -0.100195 0.000000 
0.324951 -0.109673 0.000000 
0.326727 -0.129723 0.000000 
0.322572 -0.067535 0.000000 
0.323548 -0.088957 0.000000 
0.357114 -0.059538 0.000000 
0.427890 -0.048390 0.000000 
0.392260 -0.053104 0.000000 
[...]
POINT_DATA 16641

SCALARS u_h float 2
LOOKUP_TABLE default
0.008667 -0.277289 
-0.008667 -0.277289 
0.000000 0.000000 
0.000000 0.000000 
-0.000000 -0.099987 
-0.016829 -0.203904 
0.000000 0.000000 
0.016829 -0.203904 
-0.000000 -0.204382 
-0.014576 -0.169780 
-0.000000 -0.184676 
-0.027169 -0.217139 
0.014576 -0.169780 
0.027169 -0.217139 
0.026074 -0.249538 
-0.000793 -0.214853 
-0.065057 -0.137514 
-0.029212 -0.142564 
0.000000 0.000000 
-0.000000 -0.138783 
0.000000 0.000000 
0.029212 -0.142564 
0.065057 -0.137514 
0.000793 -0.214853 
-0.026074 -0.249538 
0.004245 -0.235261 
-0.028542 -0.198979 
-0.028125 -0.242264 
-0.000000 -0.149365 
-0.018158 -0.163066 
-0.015286 -0.119435 
-0.009521 -0.209643 
-0.015988 -0.193863 
-0.000000 -0.203946 
0.015286 -0.119435 
0.018158 -0.163066 
0.028125 -0.242264 
0.028542 -0.198979 
-0.004245 -0.235261 
0.015988 -0.193863 
0.009521 -0.209643 
0.021700 -0.270780 
0.030613 -0.241984 
-0.006300 -0.217898 
0.016125 -0.234486 
0.009166 -0.227330 
0.015742 -0.223232 
0.000728 -0.207635 
-0.043844 -0.175217 
-0.029676 -0.189079 
-0.046098 -0.078591 
-0.047092 -0.144050 
-0.069560 -0.087767 
-0.017641 -0.188907 
-0.008006 -0.184951 
0.000000 0.000000 
-0.026821 -0.076029 
0.000000 -0.074673 
-0.012253 -0.075043 
0.000000 0.000000 
-0.013686 -0.139942 
-0.000000 -0.183009 
0.000000 0.000000 
0.012253 -0.075043 
0.046098 -0.078591 
0.026821 -0.076029 
0.000000 0.000000 
0.013686 -0.139942 
0.008006 -0.184951 
0.069560 -0.087767 
0.047092 -0.144050 
0.006300 -0.217898 
0.029676 -0.189079 
0.043844 -0.175217 
0.017641 -0.188907 
-0.000728 -0.207635 
-0.009166 -0.227330 
-0.016125 -0.234486 
-0.030613 -0.241984 
-0.021700 -0.270780 
-0.015742 -0.223232 
0.006703 -0.259439 
-0.017164 -0.240002 
-0.012285 -0.260933 
-0.023802 -0.185712 
-0.021886 -0.212947 
-0.006325 -0.201602 
-0.031918 -0.226908 
-0.029629 -0.221117 
-0.029431 -0.209468 
-0.000000 -0.126366 
-0.009449 -0.130570 
-0.008824 -0.104996 
-0.009269 -0.171779 
-0.009641 -0.152879 
-0.000000 -0.168873 
-0.017538 -0.141723 
-0.017293 -0.142738 
-0.022288 -0.161673 
-0.002819 -0.207829 
-0.004978 -0.205426 
-0.000000 -0.206694 
-0.022426 -0.204335 
-0.013181 -0.203791 
-0.018498 -0.212008 
-0.000000 -0.196483 
-0.006854 -0.198372 
-0.008319 -0.187042 
-0.024645 -0.178936 
-0.017706 -0.180191 
-0.024599 -0.193229 
0.008824 -0.104996 
0.009449 -0.130570 
0.022288 -0.161673 
0.017293 -0.142738 
0.017538 -0.141723 
0.009641 -0.152879 
0.009269 -0.171779 
0.012285 -0.260933 
0.017164 -0.240002 
-0.006703 -0.259439 
0.029431 -0.209468 
0.029629 -0.221117 
0.031918 -0.226908 
0.006325 -0.201602 
0.021886 -0.212947 
0.023802 -0.185712 
0.004978 -0.205426 
0.002819 -0.207829 
0.008319 -0.187042 
0.006854 -0.198372 
0.018498 -0.212008 
0.013181 -0.203791 
0.022426 -0.204335 
0.024645 -0.178936 
0.024599 -0.193229 
0.017706 -0.180191 
0.008493 -0.277084 
0.025205 -0.259049 
0.029340 -0.249255 
0.030549 -0.254933 
0.027425 -0.260720 
0.032127 -0.242957 
0.029923 -0.230445 
-0.010906 -0.213987 
0.001919 -0.225076 
-0.003268 -0.216023 
0.007345 -0.225500 
0.005431 -0.227500 
-0.002965 -0.217601 
0.019409 -0.238375 
0.013623 -0.234420 
0.023187 -0.242403 
0.005275 -0.211052 
0.000513 -0.205198 
0.022398 -0.221819 
0.013227 -0.215941 
0.000373 -0.211138 
0.007040 -0.215778 
0.007814 -0.221038 
0.024874 -0.239221 
0.016780 -0.230031 
0.024581 -0.231571 
-0.030608 -0.190492 
-0.023984 -0.200697 
-0.047679 -0.165535 
-0.036530 -0.184718 
-0.055677 -0.157678 
-0.018261 -0.205250 
-0.013441 -0.205916 
-0.041412 -0.042261 
-0.057914 -0.082144 
-0.057343 -0.056250 
-0.037923 -0.143711 
-0.050189 -0.114066 
-0.039932 -0.112747 
-0.070493 -0.114379 
-0.060732 -0.115132 
-0.056313 -0.142578 
-0.003815 -0.199034 
-0.001785 -0.197186 
-0.009487 -0.204275 
-0.006322 -0.201641 
-0.017718 -0.166800 
-0.012544 -0.186942 
-0.024524 -0.168403 
-0.039672 -0.168865 
-0.031881 -0.169395 
-0.023357 -0.189997 
0.000000 0.000000 
-0.030417 -0.038752 
-0.016803 -0.037923 
-0.022766 -0.038040 
0.000000 0.000000 
-0.035719 -0.076908 
-0.030481 -0.111514 
0.000000 -0.037871 
-0.003674 -0.037890 
0.000000 0.000000 
-0.006929 -0.108987 
-0.005982 -0.074777 
0.000000 -0.108778 
0.000000 0.000000 
-0.007554 -0.037904 
-0.011848 -0.037912 
-0.003891 -0.183525 
-0.000000 -0.196526 
-0.021137 -0.141184 
-0.011454 -0.165226 
-0.000000 -0.163706 
-0.005612 -0.164110 
-0.006715 -0.139091 
-0.019101 -0.075455 
-0.014148 -0.109559 
-0.021926 -0.110429 
0.000000 0.000000 
0.003674 -0.037890 
0.011848 -0.037912 
0.007554 -0.037904 
0.000000 0.000000 
0.005982 -0.074777 
0.006929 -0.108987 
0.041412 -0.042261 
0.030417 -0.038752 
0.000000 0.000000 
0.030481 -0.111514 
0.035719 -0.076908 
0.039932 -0.112747 
0.000000 0.000000 
0.022766 -0.038040 
0.016803 -0.037923 
0.003891 -0.183525 
0.001785 -0.197186 
0.006715 -0.139091 
0.005612 -0.164110 
0.017718 -0.166800 
0.011454 -0.165226 
0.021137 -0.141184 
0.019101 -0.075455 
0.021926 -0.110429 
0.014148 -0.109559 
0.057343 -0.056250 
0.057914 -0.082144 
0.056313 -0.142578 
0.060732 -0.115132 
0.070493 -0.114379 
0.050189 -0.114066 
0.037923 -0.143711 
0.010906 -0.213987 
0.023984 -0.200697 
0.030608 -0.190492 
0.013441 -0.205916 
0.018261 -0.205250 
0.002965 -0.217601 
0.055677 -0.157678 
0.036530 -0.184718 
0.047679 -0.165535 
0.003815 -0.199034 
-0.000513 -0.205198 
0.024524 -0.168403 
0.012544 -0.186942 
-0.000373 -0.211138 
0.006322 -0.201641 
0.009487 -0.204275 
0.039672 -0.168865 
0.023357 -0.189997 
0.031881 -0.169395 
0.003268 -0.216023 
-0.001919 -0.225076 
-0.023187 -0.242403 
-0.013623 -0.234420 
-0.019409 -0.238375 
-0.005431 -0.227500 
-0.007345 -0.225500 
-0.025205 -0.259049 
-0.008493 -0.277084 
-0.029923 -0.230445 
-0.032127 -0.242957 
-0.027425 -0.260720 
-0.030549 -0.254933 
-0.029340 -0.249255 
-0.005275 -0.211052 
-0.007814 -0.221038 
-0.007040 -0.215778 
-0.013227 -0.215941 
-0.022398 -0.221819 
-0.024874 -0.239221 
-0.024581 -0.231571 
-0.016780 -0.230031 
0.007488 -0.268636 
-0.003229 -0.260723 
-0.001602 -0.269487 
-0.008256 -0.238181 
-0.005303 -0.250572 
0.005953 -0.248634 
-0.021642 -0.251580 
-0.014538 -0.251380 
-0.023629 -0.241329 
-0.019764 -0.178050 
-0.017991 -0.192541 
-0.011078 -0.185326 
-0.026999 -0.204856 
-0.023248 -0.199067 
-0.026700 -0.192693 
-0.000529 -0.218522 
-0.015321 -0.207732 
-0.011944 -0.223338 
-0.030302 -0.221352 
-0.030974 -0.218188 
-0.028653 -0.213664 
-0.029153 -0.232052 
-0.031372 -0.224292 
-0.031403 -0.233901 
-0.029422 -0.204570 
-0.030722 -0.214387 
-0.029438 -0.209949 
-0.019788 -0.226886 
-0.026538 -0.217360 
-0.025364 -0.229730 
-0.000000 -0.113597 
-0.004715 -0.114753 
-0.004565 -0.101249 
-0.004892 -0.139261 
-0.004829 -0.127425 
-0.000000 -0.138292 
-0.012483 -0.111117 
-0.009177 -0.118187 
-0.013146 -0.123801 
-0.004479 -0.177917 
-0.004688 -0.169605 
-0.000000 -0.177254 
-0.014104 -0.157187 
-0.009528 -0.162768 
-0.013988 -0.166691 
-0.000000 -0.159566 
-0.004826 -0.160373 
-0.004893 -0.150250 
-0.016735 -0.155164 
-0.020190 -0.152010 
-0.020515 -0.164465 
-0.016410 -0.131445 
-0.018799 -0.140923 
-0.017023 -0.129723 
-0.021178 -0.161285 
-0.020202 -0.151457 
-0.017886 -0.153288 
-0.009610 -0.142140 
-0.013990 -0.146854 
-0.013662 -0.135719 
-0.000861 -0.206428 
-0.001433 -0.206980 
-0.000000 -0.206184 
-0.007330 -0.207223 
-0.003925 -0.207233 
-0.005763 -0.208809 
-0.000000 -0.205933 
-0.001988 -0.206262 
-0.002517 -0.204320 
-0.025032 -0.210549 
-0.020656 -0.208619 
-0.023073 -0.214098 
-0.014707 -0.199315 
-0.017851 -0.203633 
-0.019393 -0.198713 
-0.013863 -0.210615 
-0.015994 -0.207614 
-0.011442 -0.207249 
-0.000000 -0.191100 
-0.003860 -0.191635 
-0.004201 -0.185273 
-0.003010 -0.201204 
-0.003460 -0.196960 
-0.000000 -0.200781 
-0.012274 -0.189933 
-0.007645 -0.193219 
-0.011284 -0.195806 
-0.008789 -0.204496 
-0.010115 -0.200675 
-0.005960 -0.202457 
-0.023491 -0.173167 
-0.021699 -0.170373 
-0.023777 -0.170661 
-0.025626 -0.181207 
-0.026938 -0.188549 
-0.008864 -0.179883 
-0.016996 -0.187476 
-0.013064 -0.183098 
-0.013640 -0.175339 
-0.018097 -0.172044 
-0.026461 -0.206192 
-0.027476 -0.195171 
-0.027296 -0.201059 
-0.023756 -0.199194 
-0.020582 -0.192893 
-0.021763 -0.178691 
-0.021383 -0.186208 
-0.024909 -0.186467 
0.004565 -0.101249 
0.004715 -0.114753 
0.013146 -0.123801 
0.009177 -0.118187 
0.012483 -0.111117 
0.004829 -0.127425 
0.004892 -0.139261 
0.020515 -0.164465 
0.020190 -0.152010 
0.016735 -0.155164 
0.017886 -0.153288 
0.020202 -0.151457 
0.021178 -0.161285 
0.017023 -0.129723 
0.018799 -0.140923 
0.016410 -0.131445 
0.004688 -0.169605 
0.004479 -0.177917 
0.004893 -0.150250 
0.004826 -0.160373 
0.013988 -0.166691 
0.009528 -0.162768 
0.014104 -0.157187 
0.013662 -0.135719 
0.013990 -0.146854 
0.009610 -0.142140 
0.001602 -0.269487 
0.003229 -0.260723 
-0.007488 -0.268636 
0.023629 -0.241329 
0.014538 -0.251380 
0.021642 -0.251580 
-0.005953 -0.248634 
0.005303 -0.250572 
0.008256 -0.238181 
0.028653 -0.213664 
0.030974 -0.218188 
0.030302 -0.221352 
0.029438 -0.209949 
0.030722 -0.214387 
0.029422 -0.204570 
0.031403 -0.233901 
0.031372 -0.224292 
0.029153 -0.232052 
0.011078 -0.185326 
0.017991 -0.192541 
0.019764 -0.178050 
0.011944 -0.223338 
0.015321 -0.207732 
0.000529 -0.218522 
0.026700 -0.192693 
0.023248 -0.199067 
0.026999 -0.204856 
0.025364 -0.229730 
0.026538 -0.217360 
0.019788 -0.226886 
0.001433 -0.206980 
0.000861 -0.206428 
0.002517 -0.204320 
0.001988 -0.206262 
0.005763 -0.208809 
0.003925 -0.207233 
0.007330 -0.207223 
0.004201 -0.185273 
0.003860 -0.191635 
0.011284 -0.195806 
0.007645 -0.193219 
0.012274 -0.189933 
0.003460 -0.196960 
0.003010 -0.201204 
0.023073 -0.214098 
0.020656 -0.208619 
0.025032 -0.210549 
0.011442 -0.207249 
0.015994 -0.207614 
0.013863 -0.210615 
0.019393 -0.198713 
0.017851 -0.203633 
0.014707 -0.199315 
0.005960 -0.202457 
0.010115 -0.200675 
0.008789 -0.204496 
0.023491 -0.173167 
0.026938 -0.188549 
0.025626 -0.181207 
0.023777 -0.170661 
0.021699 -0.170373 
0.026461 -0.206192 
0.020582 -0.192893 
0.023756 -0.199194 
0.027296 -0.201059 
0.027476 -0.195171 
0.008864 -0.179883 
0.018097 -0.172044 
0.013640 -0.175339 
0.013064 -0.183098 
0.016996 -0.187476 
0.024909 -0.186467 
0.021383 -0.186208 
0.021763 -0.178691 
0.000018 -0.277922 
0.010369 -0.269209 
0.023572 -0.265473 
0.017861 -0.267821 
0.015930 -0.274610 
0.019697 -0.260321 
0.026744 -0.251329 
0.027974 -0.250464 
0.029349 -0.254717 
0.027532 -0.255166 
0.031541 -0.248144 
0.030666 -0.252257 
0.030215 -0.246313 
0.025532 -0.266021 
0.029209 -0.258728 
0.027338 -0.262372 
0.031396 -0.228965 
0.028806 -0.223862 
0.030898 -0.242811 
0.032285 -0.235283 
0.030522 -0.236589 
0.031945 -0.236186 
0.031978 -0.242686 
0.028787 -0.257224 
0.031526 -0.249599 
0.029985 -0.250664 
-0.013703 -0.209849 
-0.006999 -0.215875 
-0.009964 -0.210104 
-0.002197 -0.222081 
-0.004409 -0.219777 
-0.008439 -0.216587 
0.003150 -0.221741 
-0.000465 -0.221523 
0.005790 -0.226853 
0.003059 -0.220437 
0.002254 -0.221997 
-0.001742 -0.216434 
0.010961 -0.231295 
0.006580 -0.226924 
0.011798 -0.230153 
-0.004479 -0.218160 
0.001122 -0.222944 
-0.000357 -0.223052 
0.023290 -0.243932 
0.021568 -0.241484 
0.025308 -0.246042 
0.011642 -0.231923 
0.016954 -0.236786 
0.014640 -0.232855 
0.020024 -0.238558 
0.018745 -0.238563 
0.015113 -0.235166 
0.003882 -0.226974 
0.009690 -0.231319 
0.007970 -0.229940 
0.001675 -0.207166 
0.000276 -0.204556 
0.007454 -0.210927 
0.004113 -0.209206 
0.000676 -0.206243 
0.002408 -0.208366 
0.003021 -0.209970 
0.025058 -0.219868 
0.020647 -0.216808 
0.014653 -0.219546 
0.017819 -0.218638 
0.019267 -0.222954 
0.016004 -0.214463 
0.011502 -0.212590 
-0.000095 -0.213035 
0.003776 -0.216282 
0.003559 -0.218469 
0.003476 -0.211897 
0.003738 -0.214042 
0.000638 -0.209299 
0.011899 -0.222609 
0.007567 -0.218416 
0.011215 -0.219488 
0.008954 -0.213494 
0.010221 -0.216395 
0.006264 -0.213279 
0.026780 -0.245965 
0.020805 -0.237115 
0.024283 -0.241531 
0.027736 -0.244110 
0.028193 -0.240835 
0.007749 -0.223466 
0.016461 -0.226801 
0.012243 -0.225570 
0.012218 -0.228162 
0.016675 -0.232680 
0.026579 -0.225696 
0.028153 -0.236469 
0.027614 -0.231323 
0.023718 -0.226822 
0.020315 -0.227203 
0.021104 -0.234548 
0.020935 -0.231153 
0.024971 -0.235799 
-0.023735 -0.197407 
-0.020463 -0.203383 
-0.033777 -0.188882 
-0.027186 -0.196415 
-0.037345 -0.183113 
-0.017463 -0.207647 
-0.014742 -0.210435 
-0.056624 -0.151907 
-0.051690 -0.162296 
-0.060753 -0.147945 
-0.033041 -0.187430 
-0.042341 -0.175561 
-0.038591 -0.178029 
-0.049995 -0.166754 
-0.046145 -0.171882 
-0.040133 -0.180724 
-0.008227 -0.212259 
-0.006577 -0.211404 
-0.012299 -0.211983 
-0.010131 -0.212519 
-0.021211 -0.198435 
-0.015739 -0.205964 
-0.024087 -0.197636 
-0.030374 -0.193076 
-0.027143 -0.195920 
-0.021009 -0.203567 
-0.031104 -0.024117 
-0.048993 -0.047310 
-0.042973 -0.036678 
-0.051869 -0.080055 
-0.052026 -0.063119 
-0.045688 -0.060520 
-0.065378 -0.072812 
-0.058823 -0.067256 
-0.063960 -0.084855 
-0.033494 -0.143196 
-0.039553 -0.128885 
-0.034868 -0.128294 
-0.049326 -0.129736 
-0.044389 -0.129389 
-0.042471 -0.144030 
-0.043892 -0.096101 
-0.044979 -0.113404 
-0.049282 -0.097006 
-0.068388 -0.126342 
-0.063924 -0.128431 
-0.060774 -0.140644 
-0.065988 -0.100710 
-0.065790 -0.115166 
-0.071037 -0.101556 
-0.051729 -0.143630 
-0.059193 -0.129471 
-0.054292 -0.129821 
-0.054867 -0.098120 
-0.055480 -0.114683 
-0.060509 -0.099416 
-0.000650 -0.201884 
-0.000310 -0.201324 
-0.001565 -0.204004 
-0.001057 -0.202795 
-0.004382 -0.191771 
-0.002754 -0.197981 
-0.005978 -0.192692 
-0.005167 -0.210139 
-0.003982 -0.208628 
-0.011517 -0.196140 
-0.007813 -0.203011 
-0.013674 -0.197213 
-0.003001 -0.207020 
-0.002204 -0.205442 
-0.023380 -0.155427 
-0.021050 -0.167633 
-0.027211 -0.156153 
-0.010212 -0.185907 
-0.015303 -0.177560 
-0.012515 -0.176641 
-0.021293 -0.179314 
-0.018226 -0.178479 
-0.015017 -0.187974 
-0.004996 -0.200282 
-0.009525 -0.194960 
-0.007685 -0.193780 
-0.052398 -0.154568 
-0.043794 -0.157069 
-0.048106 -0.156208 
-0.043664 -0.167648 
-0.034914 -0.179511 
-0.031188 -0.156775 
-0.024504 -0.179964 
-0.028138 -0.169025 
-0.035296 -0.157208 
-0.039510 -0.157349 
-0.011360 -0.205295 
-0.026444 -0.189871 
-0.018517 -0.198514 
-0.016005 -0.198053 
-0.020421 -0.189625 
-0.035734 -0.169390 
-0.027853 -0.180308 
-0.031328 -0.180211 
0.000000 0.000000 
-0.024166 -0.020273 
-0.016945 -0.018709 
-0.019954 -0.019087 
0.000000 0.000000 
-0.035326 -0.039853 
-0.040019 -0.059011 
-0.009210 -0.018748 
-0.010784 -0.018685 
0.000000 0.000000 
-0.026392 -0.057347 
-0.019628 -0.037953 
-0.022670 -0.057144 
0.000000 0.000000 
-0.012544 -0.018632 
-0.014557 -0.018616 
-0.035093 -0.112115 
-0.030363 -0.127662 
-0.040710 -0.077595 
-0.038765 -0.095368 
-0.029366 -0.094241 
-0.033924 -0.094760 
-0.031102 -0.076411 
-0.026312 -0.038256 
-0.030470 -0.057653 
-0.034980 -0.058152 
0.000000 -0.018968 
-0.000990 -0.018972 
0.000000 0.000000 
-0.002486 -0.056528 
-0.001824 -0.037881 
0.000000 -0.056509 
0.000000 0.000000 
-0.001997 -0.018965 
-0.003033 -0.018951 
-0.003458 -0.124434 
-0.003446 -0.108835 
0.000000 -0.124366 
-0.009063 -0.074891 
-0.006616 -0.092315 
-0.010017 -0.092494 
0.000000 -0.092159 
-0.003289 -0.092203 
-0.002973 -0.074704 
0.000000 0.000000 
-0.006471 -0.018857 
-0.007782 -0.018807 
-0.004114 -0.018929 
-0.005254 -0.018898 
0.000000 0.000000 
-0.013082 -0.056774 
-0.009635 -0.037909 
-0.010269 -0.056689 
-0.005005 -0.056565 
-0.007588 -0.056619 
-0.005575 -0.037897 
-0.000878 -0.196693 
-0.000000 -0.201140 
-0.005907 -0.184140 
-0.002873 -0.191072 
-0.000000 -0.190489 
-0.001422 -0.190638 
-0.001931 -0.183141 
-0.025092 -0.141877 
-0.019698 -0.154667 
-0.012755 -0.153261 
-0.016161 -0.153929 
-0.017340 -0.140528 
-0.014524 -0.165978 
-0.009850 -0.175795 
-0.000000 -0.151923 
-0.003113 -0.152015 
-0.003341 -0.138864 
-0.002392 -0.174195 
-0.002791 -0.163810 
-0.000000 -0.174078 
-0.010153 -0.139456 
-0.006257 -0.152279 
-0.009462 -0.152701 
-0.007291 -0.175078 
-0.008491 -0.164591 
-0.004813 -0.174534 
-0.014225 -0.037914 
-0.015587 -0.075231 
-0.016060 -0.056875 
-0.019242 -0.056994 
-0.022833 -0.075718 
-0.006950 -0.124625 
-0.014176 -0.125341 
-0.010512 -0.124931 
-0.010484 -0.109231 
-0.013529 -0.092735 
-0.026048 -0.127023 
-0.025075 -0.093785 
-0.026095 -0.110950 
-0.021921 -0.126408 
-0.017970 -0.125839 
-0.017187 -0.093033 
-0.017951 -0.109962 
-0.021025 -0.093384 
0.000000 0.000000 
0.000990 -0.018972 
0.003033 -0.018951 
0.001997 -0.018965 
0.000000 0.000000 
0.001824 -0.037881 
0.002486 -0.056528 
0.007782 -0.018807 
0.006471 -0.018857 
0.000000 0.000000 
0.010269 -0.056689 
0.009635 -0.037909 
0.013082 -0.056774 
0.000000 0.000000 
0.005254 -0.018898 
0.004114 -0.018929 
0.003446 -0.108835 
0.003458 -0.124434 
0.002973 -0.074704 
0.003289 -0.092203 
0.010017 -0.092494 
0.006616 -0.092315 
0.009063 -0.074891 
0.005575 -0.037897 
0.007588 -0.056619 
0.005005 -0.056565 
0.031104 -0.024117 
0.024166 -0.020273 
0.000000 0.000000 
0.040019 -0.059011 
0.035326 -0.039853 
0.045688 -0.060520 
0.000000 0.000000 
0.019954 -0.019087 
0.016945 -0.018709 
0.030363 -0.127662 
0.035093 -0.112115 
0.034868 -0.128294 
0.031102 -0.076411 
0.033924 -0.094760 
0.029366 -0.094241 
0.043892 -0.096101 
0.038765 -0.095368 
0.040710 -0.077595 
0.000000 0.000000 
0.010784 -0.018685 
0.009210 -0.018748 
0.014557 -0.018616 
0.012544 -0.018632 
0.000000 0.000000 
0.022670 -0.057144 
0.019628 -0.037953 
0.026392 -0.057347 
0.034980 -0.058152 
0.030470 -0.057653 
0.026312 -0.038256 
0.000878 -0.196693 
0.000310 -0.201324 
0.001931 -0.183141 
0.001422 -0.190638 
0.004382 -0.191771 
0.002873 -0.191072 
0.005907 -0.184140 
0.003341 -0.138864 
0.003113 -0.152015 
0.009462 -0.152701 
0.006257 -0.152279 
0.010153 -0.139456 
0.002791 -0.163810 
0.002392 -0.174195 
0.023380 -0.155427 
0.019698 -0.154667 
0.025092 -0.141877 
0.009850 -0.175795 
0.014524 -0.165978 
0.012515 -0.176641 
0.017340 -0.140528 
0.016161 -0.153929 
0.012755 -0.153261 
0.004813 -0.174534 
0.008491 -0.164591 
0.007291 -0.175078 
0.014225 -0.037914 
0.022833 -0.075718 
0.019242 -0.056994 
0.016060 -0.056875 
0.015587 -0.075231 
0.026048 -0.127023 
0.017970 -0.125839 
0.021921 -0.126408 
0.026095 -0.110950 
0.025075 -0.093785 
0.006950 -0.124625 
0.013529 -0.092735 
0.010484 -0.109231 
0.010512 -0.124931 
0.014176 -0.125341 
0.021025 -0.093384 
0.017951 -0.109962 
0.017187 -0.093033 
0.042973 -0.036678 
0.048993 -0.047310 
0.063960 -0.084855 
0.058823 -0.067256 
0.065378 -0.072812 
0.052026 -0.063119 
0.051869 -0.080055 
0.060774 -0.140644 
0.063924 -0.128431 
0.068388 -0.126342 
0.054292 -0.129821 
0.059193 -0.129471 
0.051729 -0.143630 
0.071037 -0.101556 
0.065790 -0.115166 
0.065988 -0.100710 
0.039553 -0.128885 
0.033494 -0.143196 
0.049282 -0.097006 
0.044979 -0.113404 
0.042471 -0.144030 
0.044389 -0.129389 
0.049326 -0.129736 
0.060509 -0.099416 
0.055480 -0.114683 
0.054867 -0.098120 
0.013703 -0.209849 
0.020463 -0.203383 
0.023735 -0.197407 
0.014742 -0.210435 
0.017463 -0.207647 
0.008439 -0.216587 
0.037345 -0.183113 
0.027186 -0.196415 
0.033777 -0.188882 
0.006577 -0.211404 
0.008227 -0.212259 
0.001742 -0.216434 
0.024087 -0.197636 
0.015739 -0.205964 
0.021211 -0.198435 
0.004479 -0.218160 
0.010131 -0.212519 
0.012299 -0.211983 
0.060753 -0.147945 
0.051690 -0.162296 
0.056624 -0.151907 
0.040133 -0.180724 
0.046145 -0.171882 
0.049995 -0.166754 
0.038591 -0.178029 
0.042341 -0.175561 
0.033041 -0.187430 
0.021009 -0.203567 
0.027143 -0.195920 
0.030374 -0.193076 
0.000650 -0.201884 
-0.000276 -0.204556 
0.005978 -0.192692 
0.002754 -0.197981 
-0.000676 -0.206243 
0.001057 -0.202795 
0.001565 -0.204004 
0.027211 -0.156153 
0.021050 -0.167633 
0.015017 -0.187974 
0.018226 -0.178479 
0.021293 -0.179314 
0.015303 -0.177560 
0.010212 -0.185907 
0.000095 -0.213035 
0.003982 -0.208628 
0.005167 -0.210139 
0.002204 -0.205442 
0.003001 -0.207020 
-0.000638 -0.209299 
0.013674 -0.197213 
0.007813 -0.203011 
0.011517 -0.196140 