# vtk DataFile Version 2.0
Unstructured Grid Example
ASCII
DATASET UNSTRUCTURED_GRID

POINTS 25 float
0.029326 -0.421968 0.000000 
0.970674 -0.421968 0.000000 
1.000000 1.000000 0.000000 
0.000000 1.000000 0.000000 
0.500000 -0.415175 0.000000 
0.926706 0.203109 0.000000 
0.500000 1.000000 0.000000 
0.073294 0.203109 0.000000 
0.500000 0.185055 0.000000 
0.265527 -0.422481 0.000000 
0.500000 -0.141241 0.000000 
0.271861 -0.142283 0.000000 
0.734473 -0.422481 0.000000 
0.728139 -0.142283 0.000000 
0.953768 -0.132979 0.000000 
0.712143 0.191208 0.000000 
0.913812 0.565747 0.000000 
0.713297 0.578918 0.000000 
0.750000 1.000000 0.000000 
0.500000 0.580892 0.000000 
0.250000 1.000000 0.000000 
0.286703 0.578918 0.000000 
0.086188 0.565747 0.000000 
0.287857 0.191208 0.000000 
0.046232 -0.132979 0.000000 

CELLS 32 128
3  0 9 11 
3  4 10 9 
3  8 11 10 
3  9 10 11 
3  4 12 10 
3  1 13 12 
3  8 10 13 
3  12 13 10 
3  1 14 13 
3  5 15 14 
3  8 13 15 
3  14 15 13 
3  5 16 15 
3  2 17 16 
3  8 15 17 
3  16 17 15 
3  2 18 17 
3  6 19 18 
3  8 17 19 
3  18 19 17 
3  6 20 19 
3  3 21 20 
3  8 19 21 
3  20 21 19 
3  3 22 21 
3  7 23 22 
3  8 21 23 
3  22 23 21 
3  7 24 23 
3  0 11 24 
3  8 23 11 
3  24 11 23 

CELL_TYPES 32
5
5
5
5
5
5
5
5
5
5
5
5
5
5
5
5
5
5
5
5
5
5
5
5
5
5
5
5
5
5
5
5

POINT_DATA 25

SCALARS u_h float 2
LOOKUP_TABLE default
0.029326 -0.421968 
-0.029326 -0.421968 
0.000000 0.000000 
0.000000 0.000000 
-0.000000 -0.415175 
-0.073294 -0.296891 
0.000000 0.000000 
0.073294 -0.296891 
-0.000000 -0.314945 
0.015527 -0.422481 
-0.000000 -0.391241 
0.021861 -0.392283 
-0.015527 -0.422481 
-0.021861 -0.392283 
-0.046232 -0.382979 
-0.037857 -0.308792 
-0.086188 -0.184253 
-0.036703 -0.171082 
0.000000 0.000000 
-0.000000 -0.169108 
0.000000 0.000000 
0.036703 -0.171082 
0.086188 -0.184253 
0.037857 -0.308792 
0.046232 -0.382979 

CELL_DATA 32

SCALARS epsilon float 4
LOOKUP_TABLE default
-0.056383 0.113631 0.000000 0.012342
-0.064026 0.091590 0.000000 0.013277
-0.091234 0.261168 0.000000 0.001581
-0.091029 0.113487 0.000000 0.015564
-0.064026 0.091590 0.000000 -0.013277
-0.056383 0.113631 0.000000 -0.012342
-0.091234 0.261168 0.000000 -0.001581
-0.091029 0.113487 0.000000 -0.015564
-0.097706 0.147012 0.000000 -0.020842
-0.142820 0.293959 0.000000 -0.041566
-0.159590 0.283231 0.000000 -0.026381
-0.098819 0.284019 0.000000 -0.019407
-0.148749 0.361352 0.000000 -0.011147
-0.174285 0.525591 0.000000 0.160503
-0.162607 0.418367 0.000000 0.010059
-0.216143 0.419335 0.000000 -0.013440
0.003799 0.488828 0.000000 0.061289
0.000000 0.484900 0.000000 0.000000
-0.157272 0.436313 0.000000 -0.002419
-0.151279 0.489516 0.000000 0.069528
0.000000 0.484900 0.000000 0.000000
0.003799 0.488828 0.000000 -0.061289
-0.157272 0.436313 0.000000 0.002419
-0.151279 0.489516 0.000000 -0.069528
-0.174285 0.525591 0.000000 -0.160503
-0.148749 0.361352 0.000000 0.011147
-0.162607 0.418367 0.000000 -0.010059
-0.216143 0.419335 0.000000 0.013440
-0.142820 0.293959 0.000000 0.041566
-0.097706 0.147012 0.000000 0.020842
-0.159590 0.283231 0.000000 0.026381
-0.098819 0.284019 0.000000 0.019407

SCALARS sigma float 4
LOOKUP_TABLE default
-0.462867 2.262644 0.494444 0.180333
-0.874480 1.644362 0.211506 0.233180
-0.191531 5.214719 1.379997 0.028681
-1.455950 1.883404 0.117432 0.236577
-0.874480 1.644362 0.211506 -0.233180
-0.462867 2.262644 0.494444 -0.180333
-0.191531 5.214719 1.379997 -0.028681
-1.455950 1.883404 0.117432 -0.236577
-1.411173 2.563223 0.316497 -0.238438
-1.628863 5.249869 0.994782 -0.429072
-2.153949 4.868688 0.745808 -0.284809
-0.275444 5.590152 1.460085 -0.181973
-1.180031 6.607163 1.490970 -0.026082
-1.774439 9.089699 2.009687 1.696902
-1.162480 7.589973 1.765795 0.182134
-2.955540 6.914892 1.087734 -0.316832
4.062914 10.726093 4.062914 0.714750
4.034955 10.652282 4.034955 0.000000
-0.858566 8.005698 1.963498 -0.047920
-0.450200 9.027399 2.356373 0.792056
4.034955 10.652282 4.034955 0.000000
4.062914 10.726093 4.062914 -0.714750
-0.858566 8.005698 1.963498 0.047920
-0.450200 9.027399 2.356373 -0.792056
-1.774439 9.089699 2.009687 -1.696902
-1.180031 6.607163 1.490970 0.026082
-1.162480 7.589973 1.765795 -0.182134
-2.955540 6.914892 1.087734 0.316832
-1.628863 5.249869 0.994782 0.429072
-1.411173 2.563223 0.316497 0.238438
-2.153949 4.868688 0.745808 0.284809
-0.275444 5.590152 1.460085 0.181973

