# vtk DataFile Version 2.0
Unstructured Grid Example
ASCII
DATASET UNSTRUCTURED_GRID

POINTS 9 float
0.037370 -0.428805 0.000000 
0.962630 -0.428805 0.000000 
1.000000 1.000000 0.000000 
0.000000 1.000000 0.000000 
0.500000 -0.393225 0.000000 
0.933606 0.211556 0.000000 
0.500000 1.000000 0.000000 
0.066394 0.211556 0.000000 
0.500000 0.195113 0.000000 

CELLS 8 32
3  0 4 8 
3  4 1 8 
3  1 5 8 
3  5 2 8 
3  2 6 8 
3  6 3 8 
3  3 7 8 
3  7 0 8 

CELL_TYPES 8
5
5
5
5
5
5
5
5

POINT_DATA 9

SCALARS u_h float 2
LOOKUP_TABLE default
0.037370 -0.428805 
-0.037370 -0.428805 
0.000000 0.000000 
0.000000 0.000000 
-0.000000 -0.393225 
-0.066394 -0.288444 
0.000000 0.000000 
0.066394 -0.288444 
-0.000000 -0.304887 

CELL_DATA 8

SCALARS epsilon float 4
LOOKUP_TABLE default
-0.077514 0.163557 0.000000 0.030041
-0.077514 0.163557 0.000000 -0.030041
-0.138359 0.245283 0.000000 -0.019296
-0.139775 0.430278 0.000000 0.076598
0.000000 0.450537 0.000000 0.000000
0.000000 0.450537 0.000000 0.000000
-0.139775 0.430278 0.000000 -0.076598
-0.138359 0.245283 0.000000 0.019296

SCALARS sigma float 4
LOOKUP_TABLE default
-0.631008 3.156152 0.693721 0.535960
-0.631008 3.156152 0.693721 -0.535960
-1.784870 4.310553 0.693869 -0.185474
-0.501833 8.036392 2.069934 0.996617
3.787946 10.000176 3.787946 0.000000
3.787946 10.000176 3.787946 0.000000
-0.501833 8.036392 2.069934 -0.996617
-1.784870 4.310553 0.693869 0.185474

