# vtk DataFile Version 2.0
Unstructured Grid Example
ASCII
DATASET UNSTRUCTURED_GRID

POINTS 4225 float
0.006817 -0.404738 0.000000 
0.993183 -0.404738 0.000000 
1.000000 1.000000 0.000000 
0.000000 1.000000 0.000000 
0.500000 -0.436578 0.000000 
0.917523 0.196551 0.000000 
0.500000 1.000000 0.000000 
0.082477 0.196551 0.000000 
0.500000 0.181914 0.000000 
0.255615 -0.430091 0.000000 
0.500000 -0.156426 0.000000 
0.274163 -0.151440 0.000000 
0.744385 -0.430091 0.000000 
0.725837 -0.151440 0.000000 
0.954851 -0.127686 0.000000 
0.707179 0.182997 0.000000 
0.902353 0.561102 0.000000 
0.706446 0.572769 0.000000 
0.750000 1.000000 0.000000 
0.500000 0.574499 0.000000 
0.250000 1.000000 0.000000 
0.293554 0.572769 0.000000 
0.097647 0.561102 0.000000 
0.292821 0.182997 0.000000 
0.045149 -0.127686 0.000000 
0.131553 -0.420225 0.000000 
0.264171 -0.297646 0.000000 
0.145159 -0.288284 0.000000 
0.500000 -0.303623 0.000000 
0.382337 -0.302281 0.000000 
0.378297 -0.435167 0.000000 
0.392345 0.006139 0.000000 
0.387323 -0.155327 0.000000 
0.500000 0.005457 0.000000 
0.621703 -0.435167 0.000000 
0.617663 -0.302281 0.000000 
0.854841 -0.288284 0.000000 
0.735829 -0.297646 0.000000 
0.868447 -0.420225 0.000000 
0.612677 -0.155327 0.000000 
0.607655 0.006139 0.000000 
0.974580 -0.272585 0.000000 
0.839897 -0.143077 0.000000 
0.811498 0.186312 0.000000 
0.824827 0.015164 0.000000 
0.935193 0.028966 0.000000 
0.715747 0.008732 0.000000 
0.603542 0.182157 0.000000 
0.904728 0.373929 0.000000 
0.803045 0.370524 0.000000 
0.826935 0.780965 0.000000 
0.804999 0.568508 0.000000 
0.920881 0.760082 0.000000 
0.702760 0.371273 0.000000 
0.601790 0.372104 0.000000 
0.875000 1.000000 0.000000 
0.722524 0.784494 0.000000 
0.500000 0.784922 0.000000 
0.612292 0.784899 0.000000 
0.625000 1.000000 0.000000 
0.604249 0.574174 0.000000 
0.500000 0.372391 0.000000 
0.375000 1.000000 0.000000 
0.387708 0.784899 0.000000 
0.173065 0.780965 0.000000 
0.277476 0.784494 0.000000 
0.125000 1.000000 0.000000 
0.395751 0.574174 0.000000 
0.398210 0.372104 0.000000 
0.079119 0.760082 0.000000 
0.195001 0.568508 0.000000 
0.188502 0.186312 0.000000 
0.196955 0.370524 0.000000 
0.095272 0.373929 0.000000 
0.297240 0.371273 0.000000 
0.396458 0.182157 0.000000 
0.064807 0.028966 0.000000 
0.175173 0.015164 0.000000 
0.160103 -0.143077 0.000000 
0.025420 -0.272585 0.000000 
0.284253 0.008732 0.000000 
0.069167 -0.413122 0.000000 
0.138139 -0.355936 0.000000 
0.077075 -0.348891 0.000000 
0.259615 -0.365578 0.000000 
0.198999 -0.361452 0.000000 
0.193746 -0.425844 0.000000 
0.210918 -0.222501 0.000000 
0.204779 -0.293663 0.000000 
0.269074 -0.226276 0.000000 
0.500000 -0.371839 0.000000 
0.440102 -0.371514 0.000000 
0.439223 -0.436303 0.000000 
0.442416 -0.231543 0.000000 
0.441199 -0.303301 0.000000 
0.500000 -0.231843 0.000000 
0.317121 -0.433141 0.000000 
0.380125 -0.370439 0.000000 
0.319982 -0.368510 0.000000 
0.447306 0.092024 0.000000 
0.446196 0.005623 0.000000 
0.500000 0.091910 0.000000 
0.330833 -0.153814 0.000000 
0.389882 -0.076421 0.000000 
0.334675 -0.075151 0.000000 
0.500000 -0.077330 0.000000 
0.444969 -0.077111 0.000000 
0.443691 -0.156161 0.000000 
0.323345 -0.300450 0.000000 
0.384774 -0.230599 0.000000 
0.327012 -0.228901 0.000000 
0.560777 -0.436303 0.000000 
0.559898 -0.371514 0.000000 
0.680018 -0.368510 0.000000 
0.619875 -0.370439 0.000000 
0.682879 -0.433141 0.000000 
0.558801 -0.303301 0.000000 
0.557584 -0.231543 0.000000 
0.922925 -0.348891 0.000000 
0.861861 -0.355936 0.000000 
0.930833 -0.413122 0.000000 
0.730926 -0.226276 0.000000 
0.795221 -0.293663 0.000000 
0.789082 -0.222501 0.000000 
0.806254 -0.425844 0.000000 
0.801001 -0.361452 0.000000 
0.740385 -0.365578 0.000000 
0.553804 0.005623 0.000000 
0.552694 0.092024 0.000000 
0.556309 -0.156161 0.000000 
0.555031 -0.077111 0.000000 
0.665325 -0.075151 0.000000 
0.610118 -0.076421 0.000000 
0.669167 -0.153814 0.000000 
0.676655 -0.300450 0.000000 
0.672988 -0.228901 0.000000 
0.615226 -0.230599 0.000000 
0.984091 -0.340315 0.000000 
0.914662 -0.281312 0.000000 
0.897296 -0.136447 0.000000 
0.906077 -0.210469 0.000000 
0.964794 -0.201663 0.000000 
0.847474 -0.217322 0.000000 
0.782738 -0.147961 0.000000 
0.864242 0.190131 0.000000 
0.871675 0.104027 0.000000 
0.925945 0.111425 0.000000 
0.764306 0.096010 0.000000 
0.817793 0.099126 0.000000 
0.759191 0.184150 0.000000 
0.944915 -0.050772 0.000000 
0.879861 0.020861 0.000000 
0.888488 -0.059315 0.000000 
0.605411 0.092348 0.000000 
0.551770 0.182037 0.000000 
0.720718 -0.073111 0.000000 
0.661612 0.007112 0.000000 
0.655328 0.182423 0.000000 
0.658205 0.092977 0.000000 
0.711141 0.094101 0.000000 
0.832279 -0.065575 0.000000 
0.770131 0.011286 0.000000 
0.776356 -0.070034 0.000000 
0.910212 0.284002 0.000000 
0.857986 0.279169 0.000000 
0.851618 0.466308 0.000000 
0.853523 0.371186 0.000000 
0.901768 0.466269 0.000000 
0.806388 0.276756 0.000000 
0.755215 0.275730 0.000000 
0.900787 0.886770 0.000000 
0.874853 0.774298 0.000000 
0.945503 0.867811 0.000000 
0.756196 0.571151 0.000000 
0.812691 0.672996 0.000000 
0.763580 0.676149 0.000000 
0.907955 0.658747 0.000000 
0.860285 0.667190 0.000000 
0.853349 0.564806 0.000000 
0.602261 0.275467 0.000000 
0.551152 0.275534 0.000000 
0.704238 0.275407 0.000000 
0.653284 0.275389 0.000000 
0.653091 0.471297 0.000000 
0.652407 0.371751 0.000000 
0.703293 0.470476 0.000000 
0.802239 0.467724 0.000000 
0.752951 0.469266 0.000000 
0.752906 0.370769 0.000000 
0.937500 1.000000 0.000000 
0.848637 0.890969 0.000000 
0.735317 0.892203 0.000000 
0.792777 0.891983 0.000000 
0.812500 1.000000 0.000000 
0.775840 0.783545 0.000000 
0.712771 0.677692 0.000000 
0.500000 0.892064 0.000000 
0.559184 0.892076 0.000000 
0.562500 1.000000 0.000000 
0.553915 0.678865 0.000000 
0.556261 0.784912 0.000000 
0.500000 0.678916 0.000000 
0.687500 1.000000 0.000000 
0.618239 0.892128 0.000000 
0.677019 0.892193 0.000000 
0.550954 0.372313 0.000000 
0.500000 0.275556 0.000000 
0.655731 0.573684 0.000000 
0.602376 0.471800 0.000000 
0.500000 0.472169 0.000000 
0.551285 0.472071 0.000000 
0.552252 0.574414 0.000000 
0.667831 0.784814 0.000000 
0.607556 0.678730 0.000000 
0.660626 0.678410 0.000000 
0.437500 1.000000 0.000000 
0.440816 0.892076 0.000000 
0.322981 0.892193 0.000000 
0.381761 0.892128 0.000000 
0.312500 1.000000 0.000000 
0.443739 0.784912 0.000000 
0.446085 0.678865 0.000000 
0.099213 0.886770 0.000000 
0.151363 0.890969 0.000000 
0.062500 1.000000 0.000000 
0.287229 0.677692 0.000000 
0.224160 0.783545 0.000000 
0.236420 0.676149 0.000000 
0.187500 1.000000 0.000000 
0.207223 0.891983 0.000000 
0.264683 0.892203 0.000000 
0.449046 0.372313 0.000000 
0.448848 0.275534 0.000000 
0.447748 0.574414 0.000000 
0.448715 0.472071 0.000000 
0.346909 0.471297 0.000000 
0.397624 0.471800 0.000000 
0.344269 0.573684 0.000000 
0.332169 0.784814 0.000000 
0.339374 0.678410 0.000000 
0.392444 0.678730 0.000000 
0.054497 0.867811 0.000000 
0.125147 0.774298 0.000000 
0.146651 0.564806 0.000000 
0.139715 0.667190 0.000000 
0.092045 0.658747 0.000000 
0.187309 0.672996 0.000000 
0.243804 0.571151 0.000000 
0.135758 0.190131 0.000000 
0.142014 0.279169 0.000000 
0.089788 0.284002 0.000000 
0.244785 0.275730 0.000000 
0.193612 0.276756 0.000000 
0.240809 0.184150 0.000000 
0.098232 0.466269 0.000000 
0.146477 0.371186 0.000000 
0.148382 0.466308 0.000000 
0.397739 0.275467 0.000000 
0.448230 0.182037 0.000000 
0.296707 0.470476 0.000000 
0.347593 0.371751 0.000000 
0.344672 0.182423 0.000000 
0.346716 0.275389 0.000000 
0.295762 0.275407 0.000000 
0.197761 0.467724 0.000000 
0.247094 0.370769 0.000000 
0.247049 0.469266 0.000000 
0.074055 0.111425 0.000000 
0.128325 0.104027 0.000000 
0.111512 -0.059315 0.000000 
0.120139 0.020861 0.000000 
0.055085 -0.050772 0.000000 
0.182207 0.099126 0.000000 
0.235694 0.096010 0.000000 
0.085338 -0.281312 0.000000 
0.015909 -0.340315 0.000000 
0.217262 -0.147961 0.000000 
0.152526 -0.217322 0.000000 
0.035206 -0.201663 0.000000 
0.093923 -0.210469 0.000000 
0.102704 -0.136447 0.000000 
0.394589 0.092348 0.000000 
0.288859 0.094101 0.000000 
0.341795 0.092977 0.000000 
0.338388 0.007112 0.000000 
0.279282 -0.073111 0.000000 
0.167721 -0.065575 0.000000 
0.223644 -0.070034 0.000000 
0.229869 0.011286 0.000000 
0.037974 -0.409038 0.000000 
0.073085 -0.381428 0.000000 
0.042185 -0.377339 0.000000 
0.134789 -0.388507 0.000000 
0.103956 -0.385158 0.000000 
0.100372 -0.416861 0.000000 
0.111401 -0.319222 0.000000 
0.107629 -0.352608 0.000000 
0.141599 -0.322526 0.000000 
0.257529 -0.398261 0.000000 
0.226947 -0.396330 0.000000 
0.224725 -0.428128 0.000000 
0.231866 -0.330171 0.000000 
0.229339 -0.363677 0.000000 
0.261838 -0.332040 0.000000 
0.162685 -0.423216 0.000000 
0.196293 -0.394076 0.000000 
0.165571 -0.391475 0.000000 
0.242869 -0.187631 0.000000 
0.240025 -0.224547 0.000000 
0.271605 -0.189293 0.000000 
0.174997 -0.291162 0.000000 
0.207813 -0.258504 0.000000 
0.178338 -0.256049 0.000000 
0.266589 -0.262392 0.000000 
0.237230 -0.260608 0.000000 
0.234503 -0.295816 0.000000 
0.168597 -0.358879 0.000000 
0.201834 -0.327980 0.000000 
0.171745 -0.325439 0.000000 
0.500000 -0.404640 0.000000 
0.469817 -0.404578 0.000000 
0.469624 -0.436559 0.000000 
0.470319 -0.338092 0.000000 
0.470054 -0.371764 0.000000 
0.500000 -0.338171 0.000000 
0.408785 -0.435840 0.000000 
0.439627 -0.404326 0.000000 
0.409409 -0.403878 0.000000 
0.471528 -0.194522 0.000000 
0.471212 -0.231769 0.000000 
0.500000 -0.194592 0.000000 
0.411780 -0.302884 0.000000 
0.441797 -0.267871 0.000000 
0.412677 -0.267468 0.000000 
0.500000 -0.268184 0.000000 
0.470902 -0.268107 0.000000 
0.470603 -0.303545 0.000000 
0.286413 -0.431754 0.000000 
0.318473 -0.401250 0.000000 
0.288037 -0.399893 0.000000 
0.379151 -0.403224 0.000000 
0.348842 -0.402354 0.000000 
0.347746 -0.434272 0.000000 
0.351426 -0.335967 0.000000 
0.350079 -0.369589 0.000000 
0.381194 -0.336795 0.000000 
0.440631 -0.337844 0.000000 
[...]
POINT_DATA 4225

SCALARS u_h float 2
LOOKUP_TABLE default
0.006817 -0.404738 
-0.006817 -0.404738 
0.000000 0.000000 
0.000000 0.000000 
0.000000 -0.436578 
-0.082477 -0.303449 
0.000000 0.000000 
0.082477 -0.303449 
0.000000 -0.318086 
0.005615 -0.430091 
0.000000 -0.406426 
0.024163 -0.401440 
-0.005615 -0.430091 
-0.024163 -0.401440 
-0.045149 -0.377686 
-0.042821 -0.317003 
-0.097647 -0.188898 
-0.043554 -0.177231 
0.000000 0.000000 
0.000000 -0.175501 
0.000000 0.000000 
0.043554 -0.177231 
0.097647 -0.188898 
0.042821 -0.317003 
0.045149 -0.377686 
0.006553 -0.420225 
0.014171 -0.422646 
0.020159 -0.413284 
0.000000 -0.428623 
0.007337 -0.427281 
0.003297 -0.435167 
0.017345 -0.368861 
0.012323 -0.405327 
0.000000 -0.369543 
-0.003297 -0.435167 
-0.007337 -0.427281 
-0.020159 -0.413284 
-0.014171 -0.422646 
-0.006553 -0.420225 
-0.012323 -0.405327 
-0.017345 -0.368861 
-0.025420 -0.397585 
-0.035103 -0.393077 
-0.063502 -0.313688 
-0.050173 -0.359836 
-0.064807 -0.346034 
-0.034253 -0.366268 
-0.021458 -0.317843 
-0.095272 -0.251071 
-0.071955 -0.254476 
-0.048065 -0.094035 
-0.070001 -0.181492 
-0.079119 -0.114918 
-0.047240 -0.253727 
-0.023210 -0.252896 
0.000000 0.000000 
-0.027476 -0.090506 
0.000000 -0.090078 
-0.012708 -0.090101 
0.000000 0.000000 
-0.020751 -0.175826 
0.000000 -0.252609 
0.000000 0.000000 
0.012708 -0.090101 
0.048065 -0.094035 
0.027476 -0.090506 
0.000000 0.000000 
0.020751 -0.175826 
0.023210 -0.252896 
0.079119 -0.114918 
0.070001 -0.181492 
0.063502 -0.313688 
0.071955 -0.254476 
0.095272 -0.251071 
0.047240 -0.253727 
0.021458 -0.317843 
0.064807 -0.346034 
0.050173 -0.359836 
0.035103 -0.393077 
0.025420 -0.397585 
0.034253 -0.366268 
0.006667 -0.413122 
0.013139 -0.418436 
0.014575 -0.411391 
0.009615 -0.428078 
0.011499 -0.423952 
0.006246 -0.425844 
0.023418 -0.410001 
0.017279 -0.418663 
0.019074 -0.413776 
0.000000 -0.434339 
0.002602 -0.434014 
0.001723 -0.436303 
0.004916 -0.419043 
0.003699 -0.428301 
0.000000 -0.419343 
0.004621 -0.433141 
0.005125 -0.432939 
0.007482 -0.431010 
0.009806 -0.345476 
0.008696 -0.369377 
0.000000 -0.345590 
0.018333 -0.403814 
0.014882 -0.388921 
0.022175 -0.387651 
0.000000 -0.389830 
0.007469 -0.389611 
0.006191 -0.406161 
0.010845 -0.425450 
0.009774 -0.418099 
0.014512 -0.416401 
-0.001723 -0.436303 
-0.002602 -0.434014 
-0.007482 -0.431010 
-0.005125 -0.432939 
-0.004621 -0.433141 
-0.003699 -0.428301 
-0.004916 -0.419043 
-0.014575 -0.411391 
-0.013139 -0.418436 
-0.006667 -0.413122 
-0.019074 -0.413776 
-0.017279 -0.418663 
-0.023418 -0.410001 
-0.006246 -0.425844 
-0.011499 -0.423952 
-0.009615 -0.428078 
-0.008696 -0.369377 
-0.009806 -0.345476 
-0.006191 -0.406161 
-0.007469 -0.389611 
-0.022175 -0.387651 
-0.014882 -0.388921 
-0.018333 -0.403814 
-0.010845 -0.425450 
-0.014512 -0.416401 
-0.009774 -0.418099 
-0.015909 -0.402815 
-0.022838 -0.406312 
-0.040204 -0.386447 
-0.031423 -0.397969 
-0.035206 -0.389163 
-0.027526 -0.404822 
-0.029762 -0.397961 
-0.073258 -0.309869 
-0.065825 -0.333473 
-0.074055 -0.326075 
-0.048194 -0.341490 
-0.057207 -0.338374 
-0.053309 -0.315850 
-0.055085 -0.363272 
-0.057639 -0.354139 
-0.049012 -0.371815 
-0.019589 -0.345152 
-0.010730 -0.317963 
-0.029282 -0.385611 
-0.025888 -0.367888 
-0.032172 -0.317577 
-0.029295 -0.344523 
-0.038859 -0.343399 
-0.042721 -0.378075 
-0.042369 -0.363714 
-0.036144 -0.382534 
-0.089788 -0.278498 
-0.079514 -0.283331 
-0.085882 -0.221192 
-0.083977 -0.253814 
-0.098232 -0.221231 
-0.068612 -0.285744 
-0.057285 -0.286770 
-0.036713 -0.050730 
-0.062647 -0.100702 
-0.054497 -0.069689 
-0.056304 -0.178849 
-0.062309 -0.139504 
-0.048920 -0.136351 
-0.092045 -0.153753 
-0.077215 -0.145310 
-0.084151 -0.185194 
-0.022739 -0.287033 
-0.011348 -0.286966 
-0.045762 -0.287093 
-0.034216 -0.287111 
-0.034409 -0.216203 
-0.035093 -0.253249 
-0.046707 -0.217024 
-0.072761 -0.219776 
-0.059549 -0.218234 
-0.059594 -0.254231 
0.000000 0.000000 
-0.026363 -0.046531 
-0.014683 -0.045297 
-0.019723 -0.045517 
0.000000 0.000000 
-0.036660 -0.091455 
-0.037229 -0.134808 
0.000000 -0.045436 
-0.003316 -0.045424 
0.000000 0.000000 
-0.008585 -0.133635 
-0.006239 -0.090088 
0.000000 -0.133584 
0.000000 0.000000 
-0.006761 -0.045372 
-0.010481 -0.045307 
-0.011546 -0.252687 
0.000000 -0.286944 
-0.031769 -0.176316 
-0.022624 -0.215700 
0.000000 -0.215331 
-0.011215 -0.215429 
-0.010248 -0.175586 
-0.019669 -0.090186 
-0.017444 -0.133770 
-0.026874 -0.134090 
0.000000 0.000000 
0.003316 -0.045424 
0.010481 -0.045307 
0.006761 -0.045372 
0.000000 0.000000 
0.006239 -0.090088 
0.008585 -0.133635 
0.036713 -0.050730 
0.026363 -0.046531 
0.000000 0.000000 
0.037229 -0.134808 
0.036660 -0.091455 
0.048920 -0.136351 
0.000000 0.000000 
0.019723 -0.045517 
0.014683 -0.045297 
0.011546 -0.252687 
0.011348 -0.286966 
0.010248 -0.175586 
0.011215 -0.215429 
0.034409 -0.216203 
0.022624 -0.215700 
0.031769 -0.176316 
0.019669 -0.090186 
0.026874 -0.134090 
0.017444 -0.133770 
0.054497 -0.069689 
0.062647 -0.100702 
0.084151 -0.185194 
0.077215 -0.145310 
0.092045 -0.153753 
0.062309 -0.139504 
0.056304 -0.178849 
0.073258 -0.309869 
0.079514 -0.283331 
0.089788 -0.278498 
0.057285 -0.286770 
0.068612 -0.285744 
0.053309 -0.315850 
0.098232 -0.221231 
0.083977 -0.253814 
0.085882 -0.221192 
0.022739 -0.287033 
0.010730 -0.317963 
0.046707 -0.217024 
0.035093 -0.253249 
0.032172 -0.317577 
0.034216 -0.287111 
0.045762 -0.287093 
0.072761 -0.219776 
0.059594 -0.254231 
0.059549 -0.218234 
0.074055 -0.326075 
0.065825 -0.333473 
0.049012 -0.371815 
0.057639 -0.354139 
0.055085 -0.363272 
0.057207 -0.338374 
0.048194 -0.341490 
0.022838 -0.406312 
0.015909 -0.402815 
0.029762 -0.397961 
0.027526 -0.404822 
0.035206 -0.389163 
0.031423 -0.397969 
0.040204 -0.386447 
0.019589 -0.345152 
0.038859 -0.343399 
0.029295 -0.344523 
0.025888 -0.367888 
0.029282 -0.385611 
0.042721 -0.378075 
0.036144 -0.382534 
0.042369 -0.363714 
0.006724 -0.409038 
0.010585 -0.412678 
0.010935 -0.408589 
0.009789 -0.419757 
0.010206 -0.416408 
0.006622 -0.416861 
0.017651 -0.412972 
0.013879 -0.415108 
0.016599 -0.416276 
0.007529 -0.429511 
0.008197 -0.427580 
0.005975 -0.428128 
0.013116 -0.423921 
0.010589 -0.426177 
0.011838 -0.425790 
0.006435 -0.423216 
0.008793 -0.425326 
0.009321 -0.422725 
0.024119 -0.406381 
0.021275 -0.412047 
0.021605 -0.408043 
0.018747 -0.416162 
0.020313 -0.414754 
0.022088 -0.412299 
0.016589 -0.418642 
0.018480 -0.416858 
0.015753 -0.420816 
0.012347 -0.421379 
0.014334 -0.421730 
0.015495 -0.419189 
0.000000 -0.435890 
0.001067 -0.435828 
0.000874 -0.436559 
0.001569 -0.431842 
0.001304 -0.434264 
0.000000 -0.431921 
0.002535 -0.435840 
0.002127 -0.435576 
0.003159 -0.435128 
0.002778 -0.413272 
0.002462 -0.419269 
0.000000 -0.413342 
0.005530 -0.427884 
0.004297 -0.424121 
0.006427 -0.423718 
0.000000 -0.424434 
0.002152 -0.424357 
0.001853 -0.428545 
0.005163 -0.431754 
0.005973 -0.432500 
0.006787 -0.431143 
0.004151 -0.434474 
0.005092 -0.433604 
0.003996 -0.434272 
0.007676 -0.429717 
0.006329 -0.432089 
0.006194 -0.430545 
0.003131 -0.431594 
0.004676 -0.431166 
0.003880 -0.433576 
0.005144 -0.332228 
0.004902 -0.345557 
0.000000 -0.332266 
0.013030 -0.369167 
0.009270 -0.357882 
0.013895 -0.357711 
0.000000 -0.358021 
0.004636 -0.357984 
0.004350 -0.369500 
0.021274 -0.402748 
0.020260 -0.396181 
0.023522 -0.395189 
0.013607 -0.397580 
0.016953 -0.396970 
0.015347 -0.404665 
0.020114 -0.378859 
0.018547 -0.388368 
0.016133 -0.379348 
0.000000 -0.398590 
0.003420 -0.398529 
0.003099 -0.406360 
0.004049 -0.380099 
0.003738 -0.389775 
0.000000 -0.380147 
0.009268 -0.405820 
0.006833 -0.398346 
0.010231 -0.398034 
0.012123 -0.379708 
0.011186 -0.389330 
0.008093 -0.379954 
0.008579 -0.429681 
0.009111 -0.426476 
0.009115 -0.428663 
0.010504 -0.427362 
0.012533 -0.424182 
0.005550 -0.413058 
0.011041 -0.412165 
0.008306 -0.412693 
0.007356 -0.418657 
0.008535 -0.423135 
0.019034 -0.409423 
0.014645 -0.420135 
0.016818 -0.415217 
0.016412 -0.410552 
0.013745 -0.411458 
0.010612 -0.422358 
0.012162 -0.417354 
0.012650 -0.421365 
-0.000874 -0.436559 
-0.001067 -0.435828 
-0.003159 -0.435128 
-0.002127 -0.435576 
-0.002535 -0.435840 
-0.001304 -0.434264 
-0.001569 -0.431842 
-0.006787 -0.431143 
-0.005973 -0.432500 
-0.005163 -0.431754 
-0.006194 -0.430545 
-0.006329 -0.432089 
-0.007676 -0.429717 
-0.003996 -0.434272 
-0.005092 -0.433604 
-0.004151 -0.434474 
-0.002462 -0.419269 
-0.002778 -0.413272 
-0.001853 -0.428545 
-0.002152 -0.424357 
-0.006427 -0.423718 
-0.004297 -0.424121 
-0.005530 -0.427884 
-0.003880 -0.433576 
-0.004676 -0.431166 
-0.003131 -0.431594 
-0.010935 -0.408589 
-0.010585 -0.412678 
-0.006724 -0.409038 
-0.016599 -0.416276 
-0.013879 -0.415108 
-0.017651 -0.412972 
-0.006622 -0.416861 
-0.010206 -0.416408 
-0.009789 -0.419757 
-0.021605 -0.408043 
-0.021275 -0.412047 
-0.024119 -0.406381 
-0.015753 -0.420816 
-0.018480 -0.416858 
-0.016589 -0.418642 
-0.022088 -0.412299 
-0.020313 -0.414754 
-0.018747 -0.416162 
-0.005975 -0.428128 
-0.008197 -0.427580 
-0.007529 -0.429511 
-0.009321 -0.422725 
-0.008793 -0.425326 
-0.006435 -0.423216 
-0.011838 -0.425790 
-0.010589 -0.426177 
-0.013116 -0.423921 
-0.015495 -0.419189 
-0.014334 -0.421730 
-0.012347 -0.421379 
-0.004902 -0.345557 
-0.005144 -0.332228 
-0.004350 -0.369500 
-0.004636 -0.357984 
-0.013895 -0.357711 
-0.009270 -0.357882 
-0.013030 -0.369167 
-0.003099 -0.406360 
-0.003420 -0.398529 
-0.010231 -0.398034 
-0.006833 -0.398346 
-0.009268 -0.405820 
-0.003738 -0.389775 
-0.004049 -0.380099 
-0.023522 -0.395189 
-0.020260 -0.396181 
-0.021274 -0.402748 
-0.016133 -0.379348 
-0.018547 -0.388368 
-0.020114 -0.378859 
-0.015347 -0.404665 
-0.016953 -0.396970 
-0.013607 -0.397580 
-0.008093 -0.379954 
-0.011186 -0.389330 
-0.012123 -0.379708 
-0.008579 -0.429681 
-0.012533 -0.424182 
-0.010504 -0.427362 
-0.009115 -0.428663 
-0.009111 -0.426476 
-0.019034 -0.409423 
-0.013745 -0.411458 
-0.016412 -0.410552 
-0.016818 -0.415217 
-0.014645 -0.420135 
-0.005550 -0.413058 
-0.008535 -0.423135 
-0.007356 -0.418657 
-0.008306 -0.412693 
-0.011041 -0.412165 
-0.012650 -0.421365 
-0.012162 -0.417354 
-0.010612 -0.422358 
-0.011283 -0.404196 
-0.015241 -0.407291 
-0.024131 -0.402178 
-0.019643 -0.405147 
-0.020625 -0.400608 
-0.018660 -0.409265 
-0.021519 -0.410008 
-0.042688 -0.382358 
-0.037991 -0.388477 
-0.040167 -0.383799 
-0.033572 -0.396214 
-0.035799 -0.392601 
-0.037680 -0.390003 
-0.030285 -0.393764 
-0.033320 -0.393829 
-0.028694 -0.398400 
-0.026574 -0.404403 
-0.026994 -0.399856 
-0.023807 -0.409465 
-0.025501 -0.407604 
-0.032465 -0.395715 
-0.028966 -0.402075 
-0.031298 -0.399358 
-0.027097 -0.402543 
-0.029497 -0.401622 
-0.025473 -0.406222 
-0.077938 -0.307065 
-0.074077 -0.318939 
-0.078398 -0.315098 
-0.065121 -0.324499 
-0.069656 -0.322036 
-0.068442 -0.312036 
-0.069510 -0.336389 
-0.069983 -0.330133 
-0.065695 -0.340633 
-0.045934 -0.329979 
-0.050863 -0.329099 
-0.048093 -0.316521 
-0.053760 -0.349508 
-0.052746 -0.340116 
-0.049599 -0.351458 
-0.058452 -0.314930 
-0.055713 -0.327941 
-0.060470 -0.326435 
-0.050130 -0.370839 
-0.052069 -0.367861 
-0.047389 -0.375482 
-0.061254 -0.350427 
-0.056701 -0.359506 
-0.059988 -0.355000 
-0.049960 -0.366615 
-0.053363 -0.363354 
-0.053948 -0.357250 
-0.061567 -0.336189 
-0.057829 -0.347107 
-0.061805 -0.344176 
-0.010296 -0.332165 
-0.005366 -0.318004 
-0.018504 -0.357461 
-0.014704 -0.345344 
-0.016094 -0.317914 
-0.015443 -0.332074 
-0.020582 -0.331943 
-0.026729 -0.393963 
-0.025756 -0.386742 
-0.030097 -0.367175 
-0.027955 -0.377404 
-0.031799 -0.376380 
-0.024057 -0.378220 
-0.021634 -0.368441 
-0.037509 -0.317342 
-0.035897 -0.331133 
-0.040940 -0.330641 
-0.025708 -0.331756 
-0.030816 -0.331494 
-0.026819 -0.317736 
-0.036617 -0.355275 
-0.034099 -0.344038 
-0.032155 -0.356052 
-0.023089 -0.357116 
-0.027642 -0.356655 
-0.024455 -0.344885 
-0.044617 -0.379515 
-0.046482 -0.369359 
-0.045900 -0.375199 
-0.041797 -0.382997 
-0.038919 -0.385982 
-0.043561 -0.342566 
-0.038347 -0.365129 
-0.041019 -0.354282 
-0.045349 -0.353028 
-0.046313 -0.361969 
-0.029877 -0.392470 
-0.035974 -0.388524 
-0.032960 -0.390671 
-0.032747 -0.384222 
-0.035579 -0.375109 
-0.042926 -0.371650 
-0.039290 -0.373549 
-0.039469 -0.380502 
-0.086335 -0.291294 
-0.081528 -0.294519 
-0.087501 -0.267390 
-0.084738 -0.281294 
-0.092794 -0.265087 
-0.076570 -0.296969 
-0.071469 -0.298794 
-0.092161 -0.204744 
-0.092196 -0.221503 
-0.098461 -0.205389 
-0.078034 -0.254318 
-0.085308 -0.237904 
-0.079083 -0.237862 
-0.097123 -0.236454 
-0.091340 -0.237511 
-0.089735 -0.252799 
-0.055469 -0.301742 
-0.049977 -0.302191 
-0.066238 -0.300127 
-0.060896 -0.301079 
-0.064647 -0.270828 
-0.062987 -0.286380 
-0.070547 -0.270531 
-0.082011 -0.268950 
-0.076348 -0.269946 
-0.074130 -0.284767 
-0.024158 -0.028302 
-0.044766 -0.056978 
-0.034645 -0.041571 
-0.054932 -0.096623 
-0.051368 -0.076344 
-0.044115 -0.072502 
-0.068707 -0.093447 
-0.059864 -0.083022 
-0.070947 -0.106771 
-0.049802 -0.177931 
-0.053186 -0.157958 
-0.046838 -0.157003 
-0.066870 -0.160962 
-0.059870 -0.159252 
-0.063050 -0.180027 
-0.049471 -0.115338 
-0.055391 -0.137661 
-0.056104 -0.117158 
-0.095590 -0.171713 
-0.088700 -0.168747 
-0.091065 -0.187183 
-0.079040 -0.128747 
-0.084804 -0.149323 
-0.086696 -0.134892 
-0.077076 -0.183238 
-0.081459 -0.165782 
-0.074113 -0.163142 
-0.063342 -0.119844 
-0.069630 -0.142022 
-0.071086 -0.123661 
-0.011086 -0.302889 
-0.005547 -0.302903 
-0.022185 -0.302867 
-0.016631 -0.302881 
-0.017283 -0.270281 
-0.017034 -0.286994 
-0.023091 -0.270367 
-0.044443 -0.302485 
-0.038885 -0.302669 
-0.040753 -0.270720 
-0.039984 -0.287124 
-0.046716 -0.270837 
-0.033317 -0.302778 
-0.027748 -0.302837 
-0.039335 -0.196980 
-0.040488 -0.216568 
-0.045496 -0.197491 
-0.029119 -0.253055 
-0.034971 -0.235106 
-0.028973 -0.234856 
-0.047262 -0.235781 
-0.041067 -0.235414 
-0.041134 -0.253476 
-0.028466 -0.287076 
-0.034824 -0.270594 
-0.028937 -0.270473 
-0.085555 -0.203640 
-0.071904 -0.201092 
-0.078762 -0.202360 
-0.079373 -0.220554 
-0.072732 -0.237563 
-0.051847 -0.198142 
-0.053551 -0.236202 
-0.053065 -0.217578 
-0.058384 -0.198955 
-0.065086 -0.199941 
-0.051535 -0.286989 
-0.065792 -0.254416 
-0.058687 -0.270934 
-0.052701 -0.270920 
-0.053400 -0.253987 
-0.066130 -0.218978 
-0.059915 -0.236663 
-0.066324 -0.237135 
0.000000 0.000000 
-0.018819 -0.024754 
-0.013371 -0.022980 
-0.015646 -0.023508 
0.000000 0.000000 
-0.030831 -0.047888 
-0.038103 -0.070366 
-0.007486 -0.022628 
-0.008692 -0.022620 
0.000000 0.000000 
-0.024861 -0.068147 
-0.017066 -0.045358 
-0.021403 -0.067954 
0.000000 0.000000 
-0.010033 -0.022648 
-0.011562 -0.022745 
-0.042881 -0.135437 
-0.040815 -0.156308 
-0.042019 -0.092435 
-0.043421 -0.114132 
-0.032775 -0.112833 
-0.037883 -0.113344 
-0.031852 -0.090861 
-0.022763 -0.045854 
-0.028700 -0.068512 
-0.033051 -0.069177 
0.000000 -0.022801 
-0.000843 -0.022801 
0.000000 0.000000 
-0.002409 -0.067877 
-0.001650 -0.045436 
0.000000 -0.067874 
0.000000 0.000000 
-0.001694 -0.022791 
-0.002561 -0.022773 
-0.004736 -0.154795 
-0.004276 -0.133602 
0.000000 -0.154772 
-0.009430 -0.090091 
-0.007493 -0.112029 
-0.011320 -0.112056 
0.000000 -0.112000 
-0.003731 -0.112012 
-0.003106 -0.090085 
0.000000 0.000000 
-0.005350 -0.022685 
-0.006380 -0.022653 
-0.003453 -0.022748 
-0.004379 -0.022718 
0.000000 0.000000 
-0.012510 -0.067825 
-0.008576 -0.045338 
-0.009864 -0.067838 
-0.004840 -0.067870 
-0.007317 -0.067855 
-0.005015 -0.045401 
-0.005674 -0.286950 
0.000000 -0.302919 
-0.017356 -0.252774 
-0.011506 -0.270220 
0.000000 -0.270165 
-0.005749 -0.270182 
-0.005766 -0.252633 
-0.037551 -0.176705 
-0.033356 -0.196587 
-0.021860 -0.196069 
-0.027538 -0.196290 
-0.026179 -0.176031 
-0.028459 -0.215918 
-0.023064 -0.234659 
0.000000 -0.195707 
-0.005394 -0.195736 
-0.005108 -0.175527 
-0.005717 -0.234344 
-0.005595 -0.215361 
0.000000 -0.234316 
-0.015452 -0.175683 
-0.010816 -0.195802 
-0.016296 -0.195911 
-0.017230 -0.234512 
-0.016883 -0.215540 
-0.011454 -0.234408 
-0.012504 -0.045288 
-0.016108 -0.090127 
-0.015286 -0.067828 
-0.018234 -0.067862 
-0.023439 -0.090300 
-0.009505 -0.154842 
-0.019281 -0.155036 
-0.014342 -0.154919 
-0.012963 -0.133687 
-0.015246 -0.112101 
-0.035086 -0.155810 
-0.028020 -0.112508 
-0.031911 -0.134379 
-0.029614 -0.155457 
-0.024359 -0.155209 
-0.019308 -0.112177 
-0.022067 -0.133897 
-0.023550 -0.112303 
0.000000 0.000000 
0.000843 -0.022801 
0.002561 -0.022773 
0.001694 -0.022791 
0.000000 0.000000 
0.001650 -0.045436 
0.002409 -0.067877 
0.006380 -0.022653 
0.005350 -0.022685 
0.000000 0.000000 
0.009864 -0.067838 
0.008576 -0.045338 
0.012510 -0.067825 
0.000000 0.000000 
0.004379 -0.022718 
0.003453 -0.022748 
0.004276 -0.133602 
0.004736 -0.154795 
0.003106 -0.090085 
0.003731 -0.112012 
0.011320 -0.112056 
0.007493 -0.112029 
0.009430 -0.090091 
0.005015 -0.045401 
0.007317 -0.067855 
0.004840 -0.067870 
0.024158 -0.028302 
0.018819 -0.024754 
0.000000 0.000000 
0.038103 -0.070366 
0.030831 -0.047888 
0.044115 -0.072502 
0.000000 0.000000 
0.015646 -0.023508 
0.013371 -0.022980 
0.040815 -0.156308 
0.042881 -0.135437 
0.046838 -0.157003 
0.031852 -0.090861 
0.037883 -0.113344 
0.032775 -0.112833 
0.049471 -0.115338 
0.043421 -0.114132 
0.042019 -0.092435 
0.000000 0.000000 
0.008692 -0.022620 
0.007486 -0.022628 
0.011562 -0.022745 
0.010033 -0.022648 
0.000000 0.000000 
0.021403 -0.067954 
0.017066 -0.045358 
0.024861 -0.068147 
0.033051 -0.069177 
0.028700 -0.068512 
0.022763 -0.045854 
0.005674 -0.286950 
0.005547 -0.302903 
0.005766 -0.252633 
0.005749 -0.270182 
0.017283 -0.270281 
0.011506 -0.270220 
0.017356 -0.252774 
0.005108 -0.175527 
0.005394 -0.195736 
0.016296 -0.195911 
0.010816 -0.195802 
0.015452 -0.175683 
0.005595 -0.215361 
0.005717 -0.234344 
0.039335 -0.196980 
0.033356 -0.196587 
0.037551 -0.176705 
0.023064 -0.234659 
0.028459 -0.215918 
0.028973 -0.234856 
0.026179 -0.176031 
0.027538 -0.196290 
0.021860 -0.196069 
0.011454 -0.234408 
0.016883 -0.215540 
0.017230 -0.234512 
0.012504 -0.045288 
0.023439 -0.090300 
0.018234 -0.067862 
0.015286 -0.067828 
0.016108 -0.090127 
0.035086 -0.155810 
0.024359 -0.155209 
0.029614 -0.155457 
0.031911 -0.134379 
0.028020 -0.112508 
0.009505 -0.154842 
0.015246 -0.112101 
0.012963 -0.133687 
0.014342 -0.154919 
0.019281 -0.155036 
0.023550 -0.112303 
0.022067 -0.133897 
0.019308 -0.112177 
0.034645 -0.041571 
0.044766 -0.056978 
0.070947 -0.106771 
0.059864 -0.083022 
0.068707 -0.093447 
0.051368 -0.076344 
0.054932 -0.096623 
0.091065 -0.187183 
0.088700 -0.168747 
0.095590 -0.171713 
0.074113 -0.163142 
0.081459 -0.165782 
0.077076 -0.183238 
0.086696 -0.134892 
0.084804 -0.149323 
0.079040 -0.128747 
0.053186 -0.157958 
0.049802 -0.177931 
0.056104 -0.117158 
0.055391 -0.137661 
0.063050 -0.180027 
0.059870 -0.159252 
0.066870 -0.160962 
0.071086 -0.123661 
0.069630 -0.142022 
0.063342 -0.119844 
0.077938 -0.307065 
0.081528 -0.294519 
0.086335 -0.291294 
0.071469 -0.298794 
0.076570 -0.296969 
0.068442 -0.312036 
0.092794 -0.265087 
0.084738 -0.281294 
0.087501 -0.267390 
0.049977 -0.302191 
0.055469 -0.301742 
0.048093 -0.316521 
0.070547 -0.270531 
0.062987 -0.286380 
0.064647 -0.270828 
0.058452 -0.314930 
0.060896 -0.301079 
0.066238 -0.300127 
0.098461 -0.205389 
0.092196 -0.221503 
0.092161 -0.204744 
0.089735 -0.252799 
0.091340 -0.237511 
0.097123 -0.236454 
0.079083 -0.237862 
0.085308 -0.237904 
0.078034 -0.254318 
0.074130 -0.284767 
0.076348 -0.269946 
0.082011 -0.268950 
0.011086 -0.302889 
0.005366 -0.318004 
0.023091 -0.270367 
0.017034 -0.286994 
0.016094 -0.317914 
0.016631 -0.302881 
0.022185 -0.302867 
0.045496 -0.197491 
0.040488 -0.216568 
0.041134 -0.253476 
0.041067 -0.235414 
0.047262 -0.235781 
0.034971 -0.235106 
0.029119 -0.253055 
0.037509 -0.317342 
0.038885 -0.302669 
0.044443 -0.302485 
0.027748 -0.302837 
0.033317 -0.302778 
0.026819 -0.317736 