# vtk DataFile Version 2.0
Unstructured Grid Example
ASCII
DATASET UNSTRUCTURED_GRID

POINTS 16641 float
0.006519 -0.404525 0.000000 
0.993481 -0.404525 0.000000 
1.000000 1.000000 0.000000 
0.000000 1.000000 0.000000 
0.500000 -0.436810 0.000000 
0.917432 0.196418 0.000000 
0.500000 1.000000 0.000000 
0.082568 0.196418 0.000000 
0.500000 0.181894 0.000000 
0.255548 -0.430194 0.000000 
0.500000 -0.156564 0.000000 
0.274180 -0.151549 0.000000 
0.744452 -0.430194 0.000000 
0.725820 -0.151549 0.000000 
0.954847 -0.127699 0.000000 
0.707144 0.182900 0.000000 
0.902223 0.561072 0.000000 
0.706360 0.572688 0.000000 
0.750000 1.000000 0.000000 
0.500000 0.574425 0.000000 
0.250000 1.000000 0.000000 
0.293640 0.572688 0.000000 
0.097777 0.561072 0.000000 
0.292856 0.182900 0.000000 
0.045153 -0.127699 0.000000 
0.131423 -0.420275 0.000000 
0.264148 -0.297757 0.000000 
0.145127 -0.288342 0.000000 
0.500000 -0.303790 0.000000 
0.382330 -0.302423 0.000000 
0.378263 -0.435304 0.000000 
0.392368 0.006027 0.000000 
0.387335 -0.155458 0.000000 
0.500000 0.005355 0.000000 
0.621737 -0.435304 0.000000 
0.617670 -0.302423 0.000000 
0.854873 -0.288342 0.000000 
0.735852 -0.297757 0.000000 
0.868577 -0.420275 0.000000 
0.612665 -0.155458 0.000000 
0.607632 0.006027 0.000000 
0.974623 -0.272543 0.000000 
0.839881 -0.143145 0.000000 
0.811447 0.186223 0.000000 
0.824784 0.015081 0.000000 
0.935160 0.028916 0.000000 
0.715711 0.008627 0.000000 
0.603525 0.182061 0.000000 
0.904655 0.373880 0.000000 
0.802981 0.370432 0.000000 
0.826730 0.780866 0.000000 
0.804880 0.568406 0.000000 
0.920610 0.760000 0.000000 
0.702707 0.371181 0.000000 
0.601764 0.372020 0.000000 
0.875000 1.000000 0.000000 
0.722435 0.784450 0.000000 
0.500000 0.784883 0.000000 
0.612257 0.784871 0.000000 
0.625000 1.000000 0.000000 
0.604208 0.574111 0.000000 
0.500000 0.372305 0.000000 
0.375000 1.000000 0.000000 
0.387743 0.784871 0.000000 
0.173270 0.780866 0.000000 
0.277565 0.784450 0.000000 
0.125000 1.000000 0.000000 
0.395792 0.574111 0.000000 
0.398236 0.372020 0.000000 
0.079390 0.760000 0.000000 
0.195120 0.568406 0.000000 
0.188553 0.186223 0.000000 
0.197019 0.370432 0.000000 
0.095345 0.373880 0.000000 
0.297293 0.371181 0.000000 
0.396475 0.182061 0.000000 
0.064840 0.028916 0.000000 
0.175216 0.015081 0.000000 
0.160119 -0.143145 0.000000 
0.025377 -0.272543 0.000000 
0.284289 0.008627 0.000000 
0.068975 -0.413113 0.000000 
0.138061 -0.355994 0.000000 
0.076989 -0.348893 0.000000 
0.259568 -0.365687 0.000000 
0.198936 -0.361541 0.000000 
0.193653 -0.425925 0.000000 
0.210916 -0.222591 0.000000 
0.204750 -0.293753 0.000000 
0.269074 -0.226386 0.000000 
0.500000 -0.372025 0.000000 
0.440096 -0.371676 0.000000 
0.439201 -0.436463 0.000000 
0.442420 -0.231691 0.000000 
0.441198 -0.303459 0.000000 
0.500000 -0.231996 0.000000 
0.317073 -0.433261 0.000000 
0.380106 -0.370580 0.000000 
0.319949 -0.368635 0.000000 
0.447321 0.091930 0.000000 
0.446209 0.005515 0.000000 
0.500000 0.091832 0.000000 
0.330849 -0.153936 0.000000 
0.389901 -0.076543 0.000000 
0.334699 -0.075267 0.000000 
0.500000 -0.077452 0.000000 
0.444980 -0.077234 0.000000 
0.443698 -0.156297 0.000000 
0.323330 -0.300578 0.000000 
0.384778 -0.230737 0.000000 
0.327014 -0.229027 0.000000 
0.560799 -0.436463 0.000000 
0.559904 -0.371676 0.000000 
0.680051 -0.368635 0.000000 
0.619894 -0.370580 0.000000 
0.682927 -0.433261 0.000000 
0.558802 -0.303459 0.000000 
0.557580 -0.231691 0.000000 
0.923011 -0.348893 0.000000 
0.861939 -0.355994 0.000000 
0.931025 -0.413113 0.000000 
0.730926 -0.226386 0.000000 
0.795250 -0.293753 0.000000 
0.789084 -0.222591 0.000000 
0.806347 -0.425925 0.000000 
0.801064 -0.361541 0.000000 
0.740432 -0.365687 0.000000 
0.553791 0.005515 0.000000 
0.552679 0.091930 0.000000 
0.556302 -0.156297 0.000000 
0.555020 -0.077234 0.000000 
0.665301 -0.075267 0.000000 
0.610099 -0.076543 0.000000 
0.669151 -0.153936 0.000000 
0.676670 -0.300578 0.000000 
0.672986 -0.229027 0.000000 
0.615222 -0.230737 0.000000 
0.984189 -0.340216 0.000000 
0.914695 -0.281322 0.000000 
0.897284 -0.136486 0.000000 
0.906083 -0.210494 0.000000 
0.964809 -0.201654 0.000000 
0.847477 -0.217383 0.000000 
0.782721 -0.148052 0.000000 
0.864181 0.190045 0.000000 
0.871619 0.103945 0.000000 
0.925894 0.111353 0.000000 
0.764260 0.095914 0.000000 
0.817742 0.099038 0.000000 
0.759148 0.184056 0.000000 
0.944897 -0.050804 0.000000 
0.879821 0.020792 0.000000 
0.888461 -0.059369 0.000000 
0.605388 0.092244 0.000000 
0.551763 0.181951 0.000000 
0.720689 -0.073218 0.000000 
0.661582 0.007001 0.000000 
0.655302 0.182325 0.000000 
0.658174 0.092873 0.000000 
0.711103 0.094000 0.000000 
0.832248 -0.065650 0.000000 
0.770090 0.011191 0.000000 
0.776324 -0.070127 0.000000 
0.910150 0.283927 0.000000 
0.857932 0.279086 0.000000 
0.851529 0.466225 0.000000 
0.853458 0.371105 0.000000 
0.901672 0.466233 0.000000 
0.806336 0.276667 0.000000 
0.755166 0.275637 0.000000 
0.900440 0.886638 0.000000 
0.874592 0.774159 0.000000 
0.945060 0.867472 0.000000 
0.756090 0.571057 0.000000 
0.812529 0.672890 0.000000 
0.763448 0.676062 0.000000 
0.907773 0.658709 0.000000 
0.860107 0.667078 0.000000 
0.853224 0.564714 0.000000 
0.602242 0.275377 0.000000 
0.551146 0.275452 0.000000 
0.704196 0.275312 0.000000 
0.653252 0.275296 0.000000 
0.653039 0.471216 0.000000 
0.652366 0.371663 0.000000 
0.703225 0.470388 0.000000 
0.802153 0.467628 0.000000 
0.752871 0.469171 0.000000 
0.752845 0.370675 0.000000 
0.937500 1.000000 0.000000 
0.848465 0.890920 0.000000 
0.735262 0.892187 0.000000 
0.792684 0.891958 0.000000 
0.812500 1.000000 0.000000 
0.775701 0.783480 0.000000 
0.712674 0.677624 0.000000 
0.500000 0.892046 0.000000 
0.559174 0.892064 0.000000 
0.562500 1.000000 0.000000 
0.553894 0.678818 0.000000 
0.556244 0.784882 0.000000 
0.500000 0.678857 0.000000 
0.687500 1.000000 0.000000 
0.618219 0.892117 0.000000 
0.676986 0.892180 0.000000 
0.550943 0.372233 0.000000 
0.500000 0.275481 0.000000 
0.655668 0.573614 0.000000 
0.602342 0.471725 0.000000 
0.500000 0.472084 0.000000 
0.551269 0.471997 0.000000 
0.552232 0.574350 0.000000 
0.667773 0.784781 0.000000 
0.607515 0.678683 0.000000 
0.660559 0.678356 0.000000 
0.437500 1.000000 0.000000 
0.440826 0.892064 0.000000 
0.323014 0.892180 0.000000 
0.381781 0.892117 0.000000 
0.312500 1.000000 0.000000 
0.443756 0.784882 0.000000 
0.446106 0.678818 0.000000 
0.099560 0.886638 0.000000 
0.151535 0.890920 0.000000 
0.062500 1.000000 0.000000 
0.287326 0.677624 0.000000 
0.224299 0.783480 0.000000 
0.236552 0.676062 0.000000 
0.187500 1.000000 0.000000 
0.207316 0.891958 0.000000 
0.264738 0.892187 0.000000 
0.449057 0.372233 0.000000 
0.448854 0.275452 0.000000 
0.447768 0.574350 0.000000 
0.448731 0.471997 0.000000 
0.346961 0.471216 0.000000 
0.397658 0.471725 0.000000 
0.344332 0.573614 0.000000 
0.332227 0.784781 0.000000 
0.339441 0.678356 0.000000 
0.392485 0.678683 0.000000 
0.054940 0.867472 0.000000 
0.125408 0.774159 0.000000 
0.146776 0.564714 0.000000 
0.139893 0.667078 0.000000 
0.092227 0.658709 0.000000 
0.187471 0.672890 0.000000 
0.243910 0.571057 0.000000 
0.135819 0.190045 0.000000 
0.142068 0.279086 0.000000 
0.089850 0.283927 0.000000 
0.244834 0.275637 0.000000 
0.193664 0.276667 0.000000 
0.240852 0.184056 0.000000 
0.098328 0.466233 0.000000 
0.146542 0.371105 0.000000 
0.148471 0.466225 0.000000 
0.397758 0.275377 0.000000 
0.448237 0.181951 0.000000 
0.296775 0.470388 0.000000 
0.347634 0.371663 0.000000 
0.344698 0.182325 0.000000 
0.346748 0.275296 0.000000 
0.295804 0.275312 0.000000 
0.197847 0.467628 0.000000 
0.247155 0.370675 0.000000 
0.247129 0.469171 0.000000 
0.074106 0.111353 0.000000 
0.128381 0.103945 0.000000 
0.111539 -0.059369 0.000000 
0.120179 0.020792 0.000000 
0.055103 -0.050804 0.000000 
0.182258 0.099038 0.000000 
0.235740 0.095914 0.000000 
0.085305 -0.281322 0.000000 
0.015811 -0.340216 0.000000 
0.217279 -0.148052 0.000000 
0.152523 -0.217383 0.000000 
0.035191 -0.201654 0.000000 
0.093917 -0.210494 0.000000 
0.102716 -0.136486 0.000000 
0.394612 0.092244 0.000000 
0.288897 0.094000 0.000000 
0.341826 0.092873 0.000000 
0.338418 0.007001 0.000000 
0.279311 -0.073218 0.000000 
0.167752 -0.065650 0.000000 
0.223676 -0.070127 0.000000 
0.229910 0.011191 0.000000 
0.037731 -0.408967 0.000000 
0.072952 -0.381428 0.000000 
0.042042 -0.377284 0.000000 
0.134683 -0.388563 0.000000 
0.103837 -0.385192 0.000000 
0.100215 -0.416886 0.000000 
0.111347 -0.319257 0.000000 
0.107546 -0.352643 0.000000 
0.141546 -0.322584 0.000000 
0.257470 -0.398368 0.000000 
0.226879 -0.396427 0.000000 
0.224646 -0.428221 0.000000 
0.231826 -0.330273 0.000000 
0.229284 -0.363776 0.000000 
0.261804 -0.332151 0.000000 
0.162575 -0.423283 0.000000 
0.196214 -0.394162 0.000000 
0.165479 -0.391548 0.000000 
0.242878 -0.187732 0.000000 
0.240024 -0.224649 0.000000 
0.271614 -0.189403 0.000000 
0.174966 -0.291237 0.000000 
0.207799 -0.258594 0.000000 
0.178323 -0.256125 0.000000 
0.266579 -0.262503 0.000000 
0.237217 -0.260710 0.000000 
0.234478 -0.295917 0.000000 
0.168527 -0.358954 0.000000 
0.201789 -0.328070 0.000000 
0.171695 -0.325515 0.000000 
0.500000 -0.404842 0.000000 
0.469814 -0.404758 0.000000 
0.469611 -0.436741 0.000000 
0.470318 -0.338262 0.000000 
0.470053 -0.371940 0.000000 
0.500000 -0.338346 0.000000 
0.408756 -0.435987 0.000000 
0.439615 -0.404489 0.000000 
0.409390 -0.404027 0.000000 
0.471531 -0.194667 0.000000 
0.471214 -0.231920 0.000000 
0.500000 -0.194738 0.000000 
0.411777 -0.303034 0.000000 
0.441799 -0.268024 0.000000 
0.412678 -0.267615 0.000000 
0.500000 -0.268343 0.000000 
0.470903 -0.268264 0.000000 
0.470603 -0.303708 0.000000 
0.286356 -0.431866 0.000000 
0.318431 -0.401373 0.000000 
0.287987 -0.400008 0.000000 
0.379124 -0.403364 0.000000 
0.348808 -0.402484 0.000000 
0.347706 -0.434401 0.000000 
0.351408 -0.336101 0.000000 
0.350052 -0.369722 0.000000 
0.381181 -0.336938 0.000000 
0.440628 -0.338005 0.000000 
[...]
POINT_DATA 16641

SCALARS u_h float 2
LOOKUP_TABLE default
0.006519 -0.404525 
-0.006519 -0.404525 
0.000000 0.000000 
0.000000 0.000000 
0.000000 -0.436810 
-0.082568 -0.303582 
0.000000 0.000000 
0.082568 -0.303582 
0.000000 -0.318106 
0.005548 -0.430194 
0.000000 -0.406564 
0.024180 -0.401549 
-0.005548 -0.430194 
-0.024180 -0.401549 
-0.045153 -0.377699 
-0.042856 -0.317100 
-0.097777 -0.188928 
-0.043640 -0.177312 
0.000000 0.000000 
0.000000 -0.175575 
0.000000 0.000000 
0.043640 -0.177312 
0.097777 -0.188928 
0.042856 -0.317100 
0.045153 -0.377699 
0.006423 -0.420275 
0.014148 -0.422757 
0.020127 -0.413342 
0.000000 -0.428790 
0.007330 -0.427423 
0.003263 -0.435304 
0.017368 -0.368973 
0.012335 -0.405458 
0.000000 -0.369645 
-0.003263 -0.435304 
-0.007330 -0.427423 
-0.020127 -0.413342 
-0.014148 -0.422757 
-0.006423 -0.420275 
-0.012335 -0.405458 
-0.017368 -0.368973 
-0.025377 -0.397543 
-0.035119 -0.393145 
-0.063553 -0.313777 
-0.050216 -0.359919 
-0.064840 -0.346084 
-0.034289 -0.366373 
-0.021475 -0.317939 
-0.095345 -0.251120 
-0.072019 -0.254568 
-0.048270 -0.094134 
-0.070120 -0.181594 
-0.079390 -0.115000 
-0.047293 -0.253819 
-0.023236 -0.252980 
0.000000 0.000000 
-0.027565 -0.090550 
0.000000 -0.090117 
-0.012743 -0.090129 
0.000000 0.000000 
-0.020792 -0.175889 
0.000000 -0.252695 
0.000000 0.000000 
0.012743 -0.090129 
0.048270 -0.094134 
0.027565 -0.090550 
0.000000 0.000000 
0.020792 -0.175889 
0.023236 -0.252980 
0.079390 -0.115000 
0.070120 -0.181594 
0.063553 -0.313777 
0.072019 -0.254568 
0.095345 -0.251120 
0.047293 -0.253819 
0.021475 -0.317939 
0.064840 -0.346084 
0.050216 -0.359919 
0.035119 -0.393145 
0.025377 -0.397543 
0.034289 -0.366373 
0.006475 -0.413113 
0.013061 -0.418494 
0.014489 -0.411393 
0.009568 -0.428187 
0.011436 -0.424041 
0.006153 -0.425925 
0.023416 -0.410091 
0.017250 -0.418753 
0.019074 -0.413886 
0.000000 -0.434525 
0.002596 -0.434176 
0.001701 -0.436463 
0.004920 -0.419191 
0.003698 -0.428459 
0.000000 -0.419496 
0.004573 -0.433261 
0.005106 -0.433080 
0.007449 -0.431135 
0.009821 -0.345570 
0.008709 -0.369485 
0.000000 -0.345668 
0.018349 -0.403936 
0.014901 -0.389043 
0.022199 -0.387767 
0.000000 -0.389952 
0.007480 -0.389734 
0.006198 -0.406297 
0.010830 -0.425578 
0.009778 -0.418237 
0.014514 -0.416527 
-0.001701 -0.436463 
-0.002596 -0.434176 
-0.007449 -0.431135 
-0.005106 -0.433080 
-0.004573 -0.433261 
-0.003698 -0.428459 
-0.004920 -0.419191 
-0.014489 -0.411393 
-0.013061 -0.418494 
-0.006475 -0.413113 
-0.019074 -0.413886 
-0.017250 -0.418753 
-0.023416 -0.410091 
-0.006153 -0.425925 
-0.011436 -0.424041 
-0.009568 -0.428187 
-0.008709 -0.369485 
-0.009821 -0.345570 
-0.006198 -0.406297 
-0.007480 -0.389734 
-0.022199 -0.387767 
-0.014901 -0.389043 
-0.018349 -0.403936 
-0.010830 -0.425578 
-0.014514 -0.416527 
-0.009778 -0.418237 
-0.015811 -0.402716 
-0.022805 -0.406322 
-0.040216 -0.386486 
-0.031417 -0.397994 
-0.035191 -0.389154 
-0.027523 -0.404883 
-0.029779 -0.398052 
-0.073319 -0.309955 
-0.065881 -0.333555 
-0.074106 -0.326147 
-0.048240 -0.341586 
-0.057258 -0.338462 
-0.053352 -0.315944 
-0.055103 -0.363304 
-0.057679 -0.354208 
-0.049039 -0.371869 
-0.019612 -0.345256 
-0.010737 -0.318049 
-0.029311 -0.385718 
-0.025918 -0.367999 
-0.032198 -0.317675 
-0.029326 -0.344627 
-0.038897 -0.343500 
-0.042752 -0.378150 
-0.042410 -0.363809 
-0.036176 -0.382627 
-0.089850 -0.278573 
-0.079568 -0.283414 
-0.085971 -0.221275 
-0.084042 -0.253895 
-0.098328 -0.221267 
-0.068664 -0.285833 
-0.057334 -0.286863 
-0.037060 -0.050862 
-0.062908 -0.100841 
-0.054940 -0.070028 
-0.056410 -0.178943 
-0.062471 -0.139610 
-0.049052 -0.136438 
-0.092227 -0.153791 
-0.077393 -0.145422 
-0.084276 -0.185286 
-0.022758 -0.287123 
-0.011354 -0.287048 
-0.045804 -0.287188 
-0.034248 -0.287204 
-0.034461 -0.216284 
-0.035134 -0.253337 
-0.046775 -0.217112 
-0.072847 -0.219872 
-0.059629 -0.218329 
-0.059655 -0.254325 
0.000000 0.000000 
-0.026535 -0.046580 
-0.014738 -0.045313 
-0.019816 -0.045542 
0.000000 0.000000 
-0.036799 -0.091520 
-0.037326 -0.134876 
0.000000 -0.045454 
-0.003326 -0.045436 
0.000000 0.000000 
-0.008606 -0.133682 
-0.006256 -0.090118 
0.000000 -0.133643 
0.000000 0.000000 
-0.006781 -0.045383 
-0.010514 -0.045320 
-0.011557 -0.252767 
0.000000 -0.287019 
-0.031832 -0.176386 
-0.022658 -0.215775 
0.000000 -0.215416 
-0.011231 -0.215503 
-0.010268 -0.175650 
-0.019727 -0.090219 
-0.017485 -0.133817 
-0.026941 -0.134144 
0.000000 0.000000 
0.003326 -0.045436 
0.010514 -0.045320 
0.006781 -0.045383 
0.000000 0.000000 
0.006256 -0.090118 
0.008606 -0.133682 
0.037060 -0.050862 
0.026535 -0.046580 
0.000000 0.000000 
0.037326 -0.134876 
0.036799 -0.091520 
0.049052 -0.136438 
0.000000 0.000000 
0.019816 -0.045542 
0.014738 -0.045313 
0.011557 -0.252767 
0.011354 -0.287048 
0.010268 -0.175650 
0.011231 -0.215503 
0.034461 -0.216284 
0.022658 -0.215775 
0.031832 -0.176386 
0.019727 -0.090219 
0.026941 -0.134144 
0.017485 -0.133817 
0.054940 -0.070028 
0.062908 -0.100841 
0.084276 -0.185286 
0.077393 -0.145422 
0.092227 -0.153791 
0.062471 -0.139610 
0.056410 -0.178943 
0.073319 -0.309955 
0.079568 -0.283414 
0.089850 -0.278573 
0.057334 -0.286863 
0.068664 -0.285833 
0.053352 -0.315944 
0.098328 -0.221267 
0.084042 -0.253895 
0.085971 -0.221275 
0.022758 -0.287123 
0.010737 -0.318049 
0.046775 -0.217112 
0.035134 -0.253337 
0.032198 -0.317675 
0.034248 -0.287204 
0.045804 -0.287188 
0.072847 -0.219872 
0.059655 -0.254325 
0.059629 -0.218329 
0.074106 -0.326147 
0.065881 -0.333555 
0.049039 -0.371869 
0.057679 -0.354208 
0.055103 -0.363304 
0.057258 -0.338462 
0.048240 -0.341586 
0.022805 -0.406322 
0.015811 -0.402716 
0.029779 -0.398052 
0.027523 -0.404883 
0.035191 -0.389154 
0.031417 -0.397994 
0.040216 -0.386486 
0.019612 -0.345256 
0.038897 -0.343500 
0.029326 -0.344627 
0.025918 -0.367999 
0.029311 -0.385718 
0.042752 -0.378150 
0.036176 -0.382627 
0.042410 -0.363809 
0.006481 -0.408967 
0.010452 -0.412678 
0.010792 -0.408534 
0.009683 -0.419813 
0.010087 -0.416442 
0.006465 -0.416886 
0.017597 -0.413007 
0.013796 -0.415143 
0.016546 -0.416334 
0.007470 -0.429618 
0.008129 -0.427677 
0.005896 -0.428221 
0.013076 -0.424023 
0.010534 -0.426276 
0.011804 -0.425901 
0.006325 -0.423283 
0.008714 -0.425412 
0.009229 -0.422798 
0.024128 -0.406482 
0.021274 -0.412149 
0.021614 -0.408153 
0.018716 -0.416237 
0.020299 -0.414844 
0.022073 -0.412375 
0.016579 -0.418753 
0.018467 -0.416960 
0.015728 -0.420917 
0.012277 -0.421454 
0.014289 -0.421820 
0.015445 -0.419265 
0.000000 -0.436092 
0.001064 -0.436008 
0.000861 -0.436741 
0.001568 -0.432012 
0.001303 -0.434440 
0.000000 -0.432096 
0.002506 -0.435987 
0.002115 -0.435739 
0.003140 -0.435277 
0.002781 -0.413417 
0.002464 -0.419420 
0.000000 -0.413488 
0.005527 -0.428034 
0.004299 -0.424274 
0.006428 -0.423865 
0.000000 -0.424593 
0.002153 -0.424514 
0.001853 -0.428708 
0.005106 -0.431866 
0.005931 -0.432623 
0.006737 -0.431258 
0.004124 -0.434614 
0.005058 -0.433734 
0.003956 -0.434401 
0.007658 -0.429851 
0.006302 -0.432222 
0.006181 -0.430688 
0.003128 -0.431755 
0.004669 -0.431317 
0.003867 -0.433727 
0.005154 -0.332304 
0.004912 -0.345643 
0.000000 -0.332324 
0.013049 -0.369278 
0.009285 -0.357983 
0.013914 -0.357816 
0.000000 -0.358112 
0.004645 -0.358080 
0.004358 -0.369606 
0.021291 -0.402864 
0.020281 -0.396300 
0.023544 -0.395303 
0.013623 -0.397707 
0.016971 -0.397093 
0.015361 -0.404792 
0.020139 -0.378975 
0.018569 -0.388488 
0.016154 -0.379465 
0.000000 -0.398720 
0.003425 -0.398659 
0.003103 -0.406498 
0.004056 -0.380213 
0.003744 -0.389898 
0.000000 -0.380260 
0.009278 -0.405954 
0.006842 -0.398476 
0.010244 -0.398162 
0.012140 -0.379824 
0.011202 -0.389453 
0.008105 -0.380070 
0.008539 -0.429798 
0.009100 -0.426611 
0.009091 -0.428790 
0.010474 -0.427481 
0.012515 -0.424301 
0.005555 -0.413201 
0.011049 -0.412300 
0.008314 -0.412832 
0.007361 -0.418800 
0.008534 -0.423276 
0.019043 -0.409541 
0.014636 -0.420255 
0.016819 -0.415336 
0.016421 -0.410677 
0.013754 -0.411588 
0.010608 -0.422492 
0.012165 -0.417486 
0.012645 -0.421492 
-0.000861 -0.436741 
-0.001064 -0.436008 
-0.003140 -0.435277 
-0.002115 -0.435739 
-0.002506 -0.435987 
-0.001303 -0.434440 
-0.001568 -0.432012 
-0.006737 -0.431258 
-0.005931 -0.432623 
-0.005106 -0.431866 
-0.006181 -0.430688 
-0.006302 -0.432222 
-0.007658 -0.429851 
-0.003956 -0.434401 
-0.005058 -0.433734 
-0.004124 -0.434614 
-0.002464 -0.419420 
-0.002781 -0.413417 
-0.001853 -0.428708 
-0.002153 -0.424514 
-0.006428 -0.423865 
-0.004299 -0.424274 
-0.005527 -0.428034 
-0.003867 -0.433727 
-0.004669 -0.431317 
-0.003128 -0.431755 
-0.010792 -0.408534 
-0.010452 -0.412678 
-0.006481 -0.408967 
-0.016546 -0.416334 
-0.013796 -0.415143 
-0.017597 -0.413007 
-0.006465 -0.416886 
-0.010087 -0.416442 
-0.009683 -0.419813 
-0.021614 -0.408153 
-0.021274 -0.412149 
-0.024128 -0.406482 
-0.015728 -0.420917 
-0.018467 -0.416960 
-0.016579 -0.418753 
-0.022073 -0.412375 
-0.020299 -0.414844 
-0.018716 -0.416237 
-0.005896 -0.428221 
-0.008129 -0.427677 
-0.007470 -0.429618 
-0.009229 -0.422798 
-0.008714 -0.425412 
-0.006325 -0.423283 
-0.011804 -0.425901 
-0.010534 -0.426276 
-0.013076 -0.424023 
-0.015445 -0.419265 
-0.014289 -0.421820 
-0.012277 -0.421454 
-0.004912 -0.345643 
-0.005154 -0.332304 
-0.004358 -0.369606 
-0.004645 -0.358080 
-0.013914 -0.357816 
-0.009285 -0.357983 
-0.013049 -0.369278 
-0.003103 -0.406498 
-0.003425 -0.398659 
-0.010244 -0.398162 
-0.006842 -0.398476 
-0.009278 -0.405954 
-0.003744 -0.389898 
-0.004056 -0.380213 
-0.023544 -0.395303 
-0.020281 -0.396300 
-0.021291 -0.402864 
-0.016154 -0.379465 
-0.018569 -0.388488 
-0.020139 -0.378975 
-0.015361 -0.404792 
-0.016971 -0.397093 
-0.013623 -0.397707 
-0.008105 -0.380070 
-0.011202 -0.389453 
-0.012140 -0.379824 
-0.008539 -0.429798 
-0.012515 -0.424301 
-0.010474 -0.427481 
-0.009091 -0.428790 
-0.009100 -0.426611 
-0.019043 -0.409541 
-0.013754 -0.411588 
-0.016421 -0.410677 
-0.016819 -0.415336 
-0.014636 -0.420255 
-0.005555 -0.413201 
-0.008534 -0.423276 
-0.007361 -0.418800 
-0.008314 -0.412832 
-0.011049 -0.412300 
-0.012645 -0.421492 
-0.012165 -0.417486 
-0.010608 -0.422492 
-0.011125 -0.404045 
-0.015153 -0.407246 
-0.024094 -0.402160 
-0.019586 -0.405115 
-0.020560 -0.400542 
-0.018606 -0.409270 
-0.021487 -0.410044 
-0.042696 -0.382383 
-0.037991 -0.388493 
-0.040162 -0.383802 
-0.033579 -0.396262 
-0.035803 -0.392633 
-0.037695 -0.390057 
-0.030258 -0.393740 
-0.033310 -0.393835 
-0.028673 -0.398395 
-0.026583 -0.404494 
-0.027011 -0.399957 
-0.023791 -0.409524 
-0.025499 -0.407680 
-0.032482 -0.395795 
-0.028975 -0.402153 
-0.031306 -0.399422 
-0.027079 -0.402560 
-0.029493 -0.401665 
-0.025457 -0.406261 
-0.078011 -0.307157 
-0.074144 -0.319028 
-0.078463 -0.315191 
-0.065178 -0.324585 
-0.069718 -0.322122 
-0.068498 -0.312122 
-0.069550 -0.336448 
-0.070039 -0.330213 
-0.065740 -0.340702 
-0.045975 -0.330076 
-0.050908 -0.329193 
-0.048132 -0.316617 
-0.053808 -0.349593 
-0.052795 -0.340207 
-0.049645 -0.351548 
-0.058498 -0.315021 
-0.055762 -0.328033 
-0.060523 -0.326524 
-0.050141 -0.370862 
-0.052092 -0.367904 
-0.047405 -0.375516 
-0.061291 -0.350487 
-0.056731 -0.359558 
-0.060013 -0.355040 
-0.049996 -0.366686 
-0.053397 -0.363415 
-0.053990 -0.357326 
-0.061621 -0.336274 
-0.057878 -0.347188 
-0.061853 -0.344252 
-0.010309 -0.332254 
-0.005368 -0.318075 
-0.018527 -0.357568 
-0.014723 -0.345444 
-0.016106 -0.318007 
-0.015459 -0.332170 
-0.020602 -0.332043 
-0.026753 -0.394072 
-0.025783 -0.386854 
-0.030130 -0.367283 
-0.027986 -0.377515 
-0.031832 -0.376486 
-0.024085 -0.378334 
-0.021661 -0.368553 
-0.037540 -0.317440 
-0.035930 -0.331234 
-0.040978 -0.330741 
-0.025733 -0.331858 
-0.030845 -0.331596 
-0.026840 -0.317834 
-0.036655 -0.355378 
-0.034134 -0.344142 
-0.032190 -0.356158 
-0.023116 -0.357224 
-0.027673 -0.356763 
-0.024482 -0.344990 
-0.044637 -0.379562 
-0.046519 -0.369438 
-0.045929 -0.375264 
-0.041820 -0.383056 
-0.038943 -0.386053 
-0.043603 -0.342664 
-0.038386 -0.365230 
-0.041060 -0.354382 
-0.045393 -0.353124 
-0.046355 -0.362058 
-0.029902 -0.392571 
-0.035999 -0.388606 
-0.032985 -0.390763 
-0.032778 -0.384323 
-0.035615 -0.375209 
-0.042963 -0.371737 
-0.039327 -0.373643 
-0.039501 -0.380587 
-0.086398 -0.291391 
-0.081586 -0.294606 
-0.087562 -0.267464 
-0.084794 -0.281375 
-0.092860 -0.265147 
-0.076626 -0.297053 
-0.071522 -0.298880 
-0.092268 -0.204810 
-0.092287 -0.221568 
-0.098573 -0.205420 
-0.078098 -0.254406 
-0.085384 -0.237985 
-0.079157 -0.237953 
-0.097207 -0.236495 
-0.091418 -0.237576 
-0.089803 -0.252869 
-0.055514 -0.301835 
-0.050019 -0.302285 
-0.066288 -0.300215 
-0.060945 -0.301169 
-0.064703 -0.270921 
-0.063038 -0.286471 
-0.070604 -0.270621 
-0.082069 -0.269032 
-0.076406 -0.270033 
-0.074184 -0.284853 
-0.024638 -0.028527 
-0.045201 -0.057197 
-0.035111 -0.042475 
-0.055169 -0.096742 
-0.051682 -0.076489 
-0.044376 -0.072612 
-0.069053 -0.093597 
-0.060208 -0.083211 
-0.071217 -0.106920 
-0.049899 -0.178019 
-0.053306 -0.158050 
-0.046945 -0.157086 
-0.067010 -0.161066 
-0.060001 -0.159351 
-0.063164 -0.180126 
-0.049634 -0.115430 
-0.055540 -0.137758 
-0.056290 -0.117263 
-0.095744 -0.171744 
-0.088849 -0.168826 
-0.091191 -0.187254 
-0.079257 -0.128863 
-0.084983 -0.149417 
-0.086916 -0.134945 
-0.077199 -0.183339 
-0.081607 -0.165882 
-0.074259 -0.163248 
-0.063546 -0.119962 
-0.069803 -0.142134 
-0.071301 -0.123786 
-0.011090 -0.302973 
-0.005544 -0.302975 
-0.022202 -0.302960 
-0.016642 -0.302970 
-0.017298 -0.270365 
-0.017046 -0.287081 
-0.023113 -0.270453 
-0.044482 -0.302580 
-0.038919 -0.302765 
-0.040795 -0.270812 
-0.040022 -0.287218 
-0.046763 -0.270930 
-0.033346 -0.302874 
-0.027771 -0.302932 
-0.039404 -0.197061 
-0.040549 -0.216653 
-0.045573 -0.197576 
-0.029153 -0.253140 
-0.035018 -0.235191 
-0.029012 -0.234938 
-0.047323 -0.235871 
-0.041121 -0.235502 
-0.041182 -0.253565 
-0.028492 -0.287168 
-0.034860 -0.270684 
-0.028966 -0.270561 
-0.085660 -0.203726 
-0.072005 -0.201191 
-0.078865 -0.202456 
-0.079461 -0.220647 
-0.072806 -0.237658 
-0.051932 -0.198232 
-0.053616 -0.236294 
-0.053140 -0.217670 
-0.058477 -0.199050 
-0.065184 -0.200039 
-0.051581 -0.287083 
-0.065855 -0.254509 
-0.058741 -0.271027 
-0.052752 -0.271013 
-0.053458 -0.254081 
-0.066214 -0.219075 
-0.059984 -0.236758 
-0.066396 -0.237230 
0.000000 0.000000 
-0.019064 -0.024815 
-0.013469 -0.022995 
-0.015792 -0.023534 
0.000000 0.000000 
-0.031075 -0.047966 
-0.038309 -0.070447 
-0.007515 -0.022634 
-0.008730 -0.022627 
0.000000 0.000000 
-0.024957 -0.068183 
-0.017136 -0.045378 
-0.021478 -0.067984 
0.000000 0.000000 
-0.010083 -0.022656 
-0.011631 -0.022756 
-0.042995 -0.135514 
-0.040908 -0.156384 
-0.042189 -0.092515 
-0.043561 -0.114211 
-0.032872 -0.112890 
-0.038001 -0.113410 
-0.031964 -0.090914 
-0.022888 -0.045889 
-0.028823 -0.068559 
-0.033211 -0.069237 
0.000000 -0.022810 
-0.000846 -0.022807 
0.000000 0.000000 
-0.002416 -0.067901 
-0.001655 -0.045451 
0.000000 -0.067903 
0.000000 0.000000 
-0.001699 -0.022796 
-0.002569 -0.022778 
-0.004746 -0.154855 
-0.004286 -0.133654 
0.000000 -0.154839 
-0.009455 -0.090119 
-0.007512 -0.112068 
-0.011349 -0.112093 
0.000000 -0.112049 
-0.003740 -0.112055 
-0.003114 -0.090118 
0.000000 0.000000 
-0.005367 -0.022690 
-0.006402 -0.022658 
-0.003464 -0.022753 
-0.004393 -0.022723 
0.000000 0.000000 
-0.012546 -0.067846 
-0.008601 -0.045350 
-0.009892 -0.067857 
-0.004854 -0.067890 
-0.007338 -0.067875 
-0.005029 -0.045413 
-0.005674 -0.287027 
0.000000 -0.302977 
-0.017374 -0.252855 
-0.011514 -0.270301 
0.000000 -0.270247 
-0.005752 -0.270262 
-0.005771 -0.252714 
-0.037625 -0.176780 
-0.033414 -0.196663 
-0.021898 -0.196139 
-0.027586 -0.196362 
-0.026231 -0.176097 
-0.028502 -0.215995 
-0.023094 -0.234739 
0.000000 -0.195787 
-0.005403 -0.195810 
-0.005118 -0.175595 
-0.005724 -0.234424 
-0.005603 -0.215439 
0.000000 -0.234402 
-0.015482 -0.175745 
-0.010835 -0.195872 
-0.016324 -0.195979 
-0.017252 -0.234590 
-0.016908 -0.215614 
-0.011468 -0.234486 
-0.012547 -0.045302 
-0.016153 -0.090157 
-0.015333 -0.067850 
-0.018293 -0.067887 
-0.023511 -0.090337 
-0.009526 -0.154898 
-0.019323 -0.155092 
-0.014373 -0.154974 
-0.012993 -0.133734 
-0.015285 -0.112139 
-0.035166 -0.155879 
-0.028099 -0.112557 
-0.031993 -0.134439 
-0.029681 -0.155520 
-0.024413 -0.155267 
-0.019359 -0.112217 
-0.022121 -0.133947 
-0.023614 -0.112347 
0.000000 0.000000 
0.000846 -0.022807 
0.002569 -0.022778 
0.001699 -0.022796 
0.000000 0.000000 
0.001655 -0.045451 
0.002416 -0.067901 
0.006402 -0.022658 
0.005367 -0.022690 
0.000000 0.000000 
0.009892 -0.067857 
0.008601 -0.045350 
0.012546 -0.067846 
0.000000 0.000000 
0.004393 -0.022723 
0.003464 -0.022753 
0.004286 -0.133654 
0.004746 -0.154855 
0.003114 -0.090118 
0.003740 -0.112055 
0.011349 -0.112093 
0.007512 -0.112068 
0.009455 -0.090119 
0.005029 -0.045413 
0.007338 -0.067875 
0.004854 -0.067890 
0.024638 -0.028527 
0.019064 -0.024815 
0.000000 0.000000 
0.038309 -0.070447 
0.031075 -0.047966 
0.044376 -0.072612 
0.000000 0.000000 
0.015792 -0.023534 
0.013469 -0.022995 
0.040908 -0.156384 
0.042995 -0.135514 
0.046945 -0.157086 
0.031964 -0.090914 
0.038001 -0.113410 
0.032872 -0.112890 
0.049634 -0.115430 
0.043561 -0.114211 
0.042189 -0.092515 
0.000000 0.000000 
0.008730 -0.022627 
0.007515 -0.022634 
0.011631 -0.022756 
0.010083 -0.022656 
0.000000 0.000000 
0.021478 -0.067984 
0.017136 -0.045378 
0.024957 -0.068183 
0.033211 -0.069237 
0.028823 -0.068559 
0.022888 -0.045889 
0.005674 -0.287027 
0.005544 -0.302975 
0.005771 -0.252714 
0.005752 -0.270262 
0.017298 -0.270365 
0.011514 -0.270301 
0.017374 -0.252855 
0.005118 -0.175595 
0.005403 -0.195810 
0.016324 -0.195979 
0.010835 -0.195872 
0.015482 -0.175745 
0.005603 -0.215439 
0.005724 -0.234424 
0.039404 -0.197061 
0.033414 -0.196663 
0.037625 -0.176780 
0.023094 -0.234739 
0.028502 -0.215995 
0.029012 -0.234938 
0.026231 -0.176097 
0.027586 -0.196362 
0.021898 -0.196139 
0.011468 -0.234486 
0.016908 -0.215614 
0.017252 -0.234590 
0.012547 -0.045302 
0.023511 -0.090337 
0.018293 -0.067887 
0.015333 -0.067850 
0.016153 -0.090157 
0.035166 -0.155879 
0.024413 -0.155267 
0.029681 -0.155520 
0.031993 -0.134439 
0.028099 -0.112557 
0.009526 -0.154898 
0.015285 -0.112139 
0.012993 -0.133734 
0.014373 -0.154974 
0.019323 -0.155092 
0.023614 -0.112347 
0.022121 -0.133947 
0.019359 -0.112217 
0.035111 -0.042475 
0.045201 -0.057197 
0.071217 -0.106920 
0.060208 -0.083211 
0.069053 -0.093597 
0.051682 -0.076489 
0.055169 -0.096742 
0.091191 -0.187254 
0.088849 -0.168826 
0.095744 -0.171744 
0.074259 -0.163248 
0.081607 -0.165882 
0.077199 -0.183339 
0.086916 -0.134945 
0.084983 -0.149417 
0.079257 -0.128863 
0.053306 -0.158050 
0.049899 -0.178019 
0.056290 -0.117263 
0.055540 -0.137758 
0.063164 -0.180126 
0.060001 -0.159351 
0.067010 -0.161066 
0.071301 -0.123786 
0.069803 -0.142134 
0.063546 -0.119962 
0.078011 -0.307157 
0.081586 -0.294606 
0.086398 -0.291391 
0.071522 -0.298880 
0.076626 -0.297053 
0.068498 -0.312122 
0.092860 -0.265147 
0.084794 -0.281375 
0.087562 -0.267464 
0.050019 -0.302285 
0.055514 -0.301835 
0.048132 -0.316617 
0.070604 -0.270621 
0.063038 -0.286471 
0.064703 -0.270921 
0.058498 -0.315021 
0.060945 -0.301169 
0.066288 -0.300215 
0.098573 -0.205420 
0.092287 -0.221568 
0.092268 -0.204810 
0.089803 -0.252869 
0.091418 -0.237576 
0.097207 -0.236495 
0.079157 -0.237953 
0.085384 -0.237985 
0.078098 -0.254406 
0.074184 -0.284853 
0.076406 -0.270033 
0.082069 -0.269032 
0.011090 -0.302973 
0.005368 -0.318075 
0.023113 -0.270453 
0.017046 -0.287081 
0.016106 -0.318007 
0.016642 -0.302970 
0.022202 -0.302960 
0.045573 -0.197576 
0.040549 -0.216653 
0.041182 -0.253565 
0.041121 -0.235502 
0.047323 -0.235871 
0.035018 -0.235191 
0.029153 -0.253140 
0.037540 -0.317440 
0.038919 -0.302765 
0.044482 -0.302580 
0.027771 -0.302932 
0.033346 -0.302874 
0.026840 -0.317834 