# vtk DataFile Version 2.0
Unstructured Grid Example
ASCII
DATASET UNSTRUCTURED_GRID

POINTS 1089 float
0.007764 -0.405454 0.000000 
0.992236 -0.405454 0.000000 
1.000000 1.000000 0.000000 
0.000000 1.000000 0.000000 
0.500000 -0.435860 0.000000 
0.917813 0.196906 0.000000 
0.500000 1.000000 0.000000 
0.082187 0.196906 0.000000 
0.500000 0.181941 0.000000 
0.255877 -0.429804 0.000000 
0.500000 -0.156007 0.000000 
0.274101 -0.151129 0.000000 
0.744123 -0.429804 0.000000 
0.725899 -0.151129 0.000000 
0.954860 -0.127737 0.000000 
0.707290 0.183262 0.000000 
0.902761 0.561133 0.000000 
0.706690 0.572983 0.000000 
0.750000 1.000000 0.000000 
0.500000 0.574724 0.000000 
0.250000 1.000000 0.000000 
0.293310 0.572983 0.000000 
0.097239 0.561133 0.000000 
0.292710 0.183262 0.000000 
0.045140 -0.127737 0.000000 
0.132066 -0.420154 0.000000 
0.264256 -0.297327 0.000000 
0.145285 -0.288169 0.000000 
0.500000 -0.303090 0.000000 
0.382363 -0.301845 0.000000 
0.378424 -0.434747 0.000000 
0.392262 0.006459 0.000000 
0.387276 -0.154935 0.000000 
0.500000 0.005738 0.000000 
0.621576 -0.434747 0.000000 
0.617637 -0.301845 0.000000 
0.854715 -0.288169 0.000000 
0.735744 -0.297327 0.000000 
0.867934 -0.420154 0.000000 
0.612724 -0.154935 0.000000 
0.607738 0.006459 0.000000 
0.974400 -0.272860 0.000000 
0.839956 -0.142924 0.000000 
0.811665 0.186550 0.000000 
0.824979 0.015377 0.000000 
0.935306 0.029066 0.000000 
0.715876 0.009025 0.000000 
0.603594 0.182419 0.000000 
0.904961 0.374033 0.000000 
0.803239 0.370769 0.000000 
0.827490 0.781202 0.000000 
0.805350 0.568770 0.000000 
0.921650 0.760441 0.000000 
0.702915 0.371519 0.000000 
0.601861 0.372327 0.000000 
0.875000 1.000000 0.000000 
0.722763 0.784606 0.000000 
0.500000 0.785047 0.000000 
0.612384 0.784978 0.000000 
0.625000 1.000000 0.000000 
0.604361 0.574345 0.000000 
0.500000 0.372627 0.000000 
0.375000 1.000000 0.000000 
0.387616 0.784978 0.000000 
0.172510 0.781202 0.000000 
0.277237 0.784606 0.000000 
0.125000 1.000000 0.000000 
0.395639 0.574345 0.000000 
0.398139 0.372327 0.000000 
0.078350 0.760441 0.000000 
0.194650 0.568770 0.000000 
0.188335 0.186550 0.000000 
0.196761 0.370769 0.000000 
0.095039 0.374033 0.000000 
0.297085 0.371519 0.000000 
0.396406 0.182419 0.000000 
0.064694 0.029066 0.000000 
0.175021 0.015377 0.000000 
0.160044 -0.142924 0.000000 
0.025600 -0.272860 0.000000 
0.284124 0.009025 0.000000 
0.069889 -0.413286 0.000000 
0.138436 -0.355827 0.000000 
0.077415 -0.348996 0.000000 
0.259797 -0.365267 0.000000 
0.199239 -0.361222 0.000000 
0.194112 -0.425642 0.000000 
0.210926 -0.222263 0.000000 
0.204889 -0.293426 0.000000 
0.269075 -0.225959 0.000000 
0.500000 -0.371234 0.000000 
0.440129 -0.371001 0.000000 
0.439293 -0.435792 0.000000 
0.442404 -0.231086 0.000000 
0.441204 -0.302810 0.000000 
0.500000 -0.231366 0.000000 
0.317307 -0.432787 0.000000 
0.380199 -0.370003 0.000000 
0.320108 -0.368137 0.000000 
0.447252 0.092275 0.000000 
0.446145 0.005928 0.000000 
0.500000 0.092092 0.000000 
0.330777 -0.153455 0.000000 
0.389811 -0.076065 0.000000 
0.334584 -0.074813 0.000000 
0.500000 -0.076975 0.000000 
0.444928 -0.076750 0.000000 
0.443663 -0.155749 0.000000 
0.323401 -0.300069 0.000000 
0.384760 -0.230179 0.000000 
0.327005 -0.228526 0.000000 
0.560707 -0.435792 0.000000 
0.559871 -0.371001 0.000000 
0.679892 -0.368137 0.000000 
0.619801 -0.370003 0.000000 
0.682693 -0.432787 0.000000 
0.558796 -0.302810 0.000000 
0.557596 -0.231086 0.000000 
0.922585 -0.348996 0.000000 
0.861564 -0.355827 0.000000 
0.930111 -0.413286 0.000000 
0.730925 -0.225959 0.000000 
0.795111 -0.293426 0.000000 
0.789074 -0.222263 0.000000 
0.805888 -0.425642 0.000000 
0.800761 -0.361222 0.000000 
0.740203 -0.365267 0.000000 
0.553855 0.005928 0.000000 
0.552748 0.092275 0.000000 
0.556337 -0.155749 0.000000 
0.555072 -0.076750 0.000000 
0.665416 -0.074813 0.000000 
0.610189 -0.076065 0.000000 
0.669223 -0.153455 0.000000 
0.676599 -0.300069 0.000000 
0.672995 -0.228526 0.000000 
0.615240 -0.230179 0.000000 
0.983692 -0.340788 0.000000 
0.914524 -0.281376 0.000000 
0.897338 -0.136397 0.000000 
0.906048 -0.210478 0.000000 
0.964729 -0.201809 0.000000 
0.847460 -0.217193 0.000000 
0.782802 -0.147718 0.000000 
0.864454 0.190368 0.000000 
0.871864 0.104241 0.000000 
0.926119 0.111624 0.000000 
0.764463 0.096269 0.000000 
0.817971 0.099360 0.000000 
0.759329 0.184402 0.000000 
0.944978 -0.050747 0.000000 
0.880004 0.021025 0.000000 
0.888583 -0.059208 0.000000 
0.605490 0.092635 0.000000 
0.551791 0.182256 0.000000 
0.720823 -0.072808 0.000000 
0.661721 0.007427 0.000000 
0.655411 0.182693 0.000000 
0.658311 0.093270 0.000000 
0.711274 0.094382 0.000000 
0.832391 -0.065391 0.000000 
0.770276 0.011544 0.000000 
0.776469 -0.069784 0.000000 
0.910418 0.284200 0.000000 
0.858162 0.279390 0.000000 
0.851888 0.466520 0.000000 
0.853726 0.371397 0.000000 
0.902070 0.466317 0.000000 
0.806553 0.276995 0.000000 
0.755365 0.275979 0.000000 
0.901619 0.887121 0.000000 
0.875575 0.774632 0.000000 
0.946357 0.869120 0.000000 
0.756502 0.571394 0.000000 
0.813158 0.673261 0.000000 
0.763951 0.676370 0.000000 
0.908517 0.658835 0.000000 
0.860815 0.667475 0.000000 
0.853726 0.565043 0.000000 
0.602313 0.275709 0.000000 
0.551159 0.275748 0.000000 
0.704365 0.275661 0.000000 
0.653378 0.275642 0.000000 
0.653240 0.471512 0.000000 
0.652524 0.371987 0.000000 
0.703490 0.470711 0.000000 
0.802495 0.467977 0.000000 
0.753185 0.469516 0.000000 
0.753086 0.371019 0.000000 
0.937500 1.000000 0.000000 
0.849048 0.891081 0.000000 
0.735454 0.892245 0.000000 
0.793005 0.892042 0.000000 
0.812500 1.000000 0.000000 
0.776210 0.783704 0.000000 
0.713042 0.677867 0.000000 
0.500000 0.892126 0.000000 
0.559210 0.892116 0.000000 
0.562500 1.000000 0.000000 
0.553969 0.679003 0.000000 
0.556306 0.785000 0.000000 
0.500000 0.679097 0.000000 
0.687500 1.000000 0.000000 
0.618291 0.892161 0.000000 
0.677104 0.892226 0.000000 
0.550980 0.372529 0.000000 
0.500000 0.275735 0.000000 
0.655908 0.573871 0.000000 
0.602471 0.472003 0.000000 
0.500000 0.472413 0.000000 
0.551329 0.472278 0.000000 
0.552306 0.574593 0.000000 
0.667983 0.784901 0.000000 
0.607670 0.678858 0.000000 
0.660810 0.678552 0.000000 
0.437500 1.000000 0.000000 
0.440790 0.892116 0.000000 
0.322896 0.892226 0.000000 
0.381709 0.892161 0.000000 
0.312500 1.000000 0.000000 
0.443694 0.785000 0.000000 
0.446031 0.679003 0.000000 
0.098381 0.887121 0.000000 
0.150952 0.891081 0.000000 
0.062500 1.000000 0.000000 
0.286958 0.677867 0.000000 
0.223790 0.783704 0.000000 
0.236049 0.676370 0.000000 
0.187500 1.000000 0.000000 
0.206995 0.892042 0.000000 
0.264546 0.892245 0.000000 
0.449020 0.372529 0.000000 
0.448841 0.275748 0.000000 
0.447694 0.574593 0.000000 
0.448671 0.472278 0.000000 
0.346760 0.471512 0.000000 
0.397529 0.472003 0.000000 
0.344092 0.573871 0.000000 
0.332017 0.784901 0.000000 
0.339190 0.678552 0.000000 
0.392330 0.678858 0.000000 
0.053643 0.869120 0.000000 
0.124425 0.774632 0.000000 
0.146274 0.565043 0.000000 
0.139185 0.667475 0.000000 
0.091483 0.658835 0.000000 
0.186842 0.673261 0.000000 
0.243498 0.571394 0.000000 
0.135546 0.190368 0.000000 
0.141838 0.279390 0.000000 
0.089582 0.284200 0.000000 
0.244635 0.275979 0.000000 
0.193447 0.276995 0.000000 
0.240671 0.184402 0.000000 
0.097930 0.466317 0.000000 
0.146274 0.371397 0.000000 
0.148112 0.466520 0.000000 
0.397687 0.275709 0.000000 
0.448209 0.182256 0.000000 
0.296510 0.470711 0.000000 
0.347476 0.371987 0.000000 
0.344589 0.182693 0.000000 
0.346622 0.275642 0.000000 
0.295635 0.275661 0.000000 
0.197505 0.467977 0.000000 
0.246914 0.371019 0.000000 
0.246815 0.469516 0.000000 
0.073881 0.111624 0.000000 
0.128136 0.104241 0.000000 
0.111417 -0.059208 0.000000 
0.119996 0.021025 0.000000 
0.055022 -0.050747 0.000000 
0.182029 0.099360 0.000000 
0.235537 0.096269 0.000000 
0.085476 -0.281376 0.000000 
0.016308 -0.340788 0.000000 
0.217198 -0.147718 0.000000 
0.152540 -0.217193 0.000000 
0.035271 -0.201809 0.000000 
0.093952 -0.210478 0.000000 
0.102662 -0.136397 0.000000 
0.394510 0.092635 0.000000 
0.288726 0.094382 0.000000 
0.341689 0.093270 0.000000 
0.338279 0.007427 0.000000 
0.279177 -0.072808 0.000000 
0.167609 -0.065391 0.000000 
0.223531 -0.069784 0.000000 
0.229724 0.011544 0.000000 
0.038820 -0.409410 0.000000 
0.073591 -0.381552 0.000000 
0.042736 -0.377658 0.000000 
0.135193 -0.388409 0.000000 
0.104412 -0.385152 0.000000 
0.100980 -0.416887 0.000000 
0.111615 -0.319198 0.000000 
0.107950 -0.352590 0.000000 
0.141802 -0.322414 0.000000 
0.257756 -0.397961 0.000000 
0.227213 -0.396067 0.000000 
0.225035 -0.427880 0.000000 
0.232019 -0.329892 0.000000 
0.229550 -0.363403 0.000000 
0.261971 -0.331724 0.000000 
0.163117 -0.423071 0.000000 
0.196602 -0.393856 0.000000 
0.165926 -0.391309 0.000000 
0.242837 -0.187351 0.000000 
0.240030 -0.224266 0.000000 
0.271572 -0.188979 0.000000 
0.175116 -0.290979 0.000000 
0.207868 -0.258266 0.000000 
0.178398 -0.255865 0.000000 
0.266630 -0.262073 0.000000 
0.237279 -0.260326 0.000000 
0.234602 -0.295534 0.000000 
0.168867 -0.358702 0.000000 
0.202007 -0.327744 0.000000 
0.171935 -0.325258 0.000000 
0.500000 -0.403983 0.000000 
0.469834 -0.404002 0.000000 
0.469657 -0.435975 0.000000 
0.470323 -0.337554 0.000000 
0.470063 -0.371205 0.000000 
0.500000 -0.337605 0.000000 
0.408885 -0.435380 0.000000 
0.439669 -0.403811 0.000000 
0.409480 -0.403410 0.000000 
0.471517 -0.194078 0.000000 
0.471204 -0.231299 0.000000 
0.500000 -0.194144 0.000000 
0.411795 -0.302421 0.000000 
0.441793 -0.267396 0.000000 
0.412677 -0.267015 0.000000 
0.500000 -0.267679 0.000000 
0.470898 -0.267613 0.000000 
0.470603 -0.303028 0.000000 
0.286634 -0.431432 0.000000 
0.318632 -0.400885 0.000000 
0.288229 -0.399560 0.000000 
0.379251 -0.402795 0.000000 
0.348971 -0.401958 0.000000 
0.347902 -0.433886 0.000000 
0.351496 -0.335559 0.000000 
0.350178 -0.369186 0.000000 
0.381244 -0.336357 0.000000 
0.440646 -0.337340 0.000000 
[...]
POINT_DATA 1089

SCALARS u_h float 2
LOOKUP_TABLE default
0.007764 -0.405454 
-0.007764 -0.405454 
0.000000 0.000000 
0.000000 0.000000 
0.000000 -0.435860 
-0.082187 -0.303094 
0.000000 0.000000 
0.082187 -0.303094 
0.000000 -0.318059 
0.005877 -0.429804 
0.000000 -0.406007 
0.024101 -0.401129 
-0.005877 -0.429804 
-0.024101 -0.401129 
-0.045140 -0.377737 
-0.042710 -0.316738 
-0.097239 -0.188867 
-0.043310 -0.177017 
0.000000 0.000000 
0.000000 -0.175276 
0.000000 0.000000 
0.043310 -0.177017 
0.097239 -0.188867 
0.042710 -0.316738 
0.045140 -0.377737 
0.007066 -0.420154 
0.014256 -0.422327 
0.020285 -0.413169 
0.000000 -0.428090 
0.007363 -0.426845 
0.003424 -0.434747 
0.017262 -0.368541 
0.012276 -0.404935 
0.000000 -0.369262 
-0.003424 -0.434747 
-0.007363 -0.426845 
-0.020285 -0.413169 
-0.014256 -0.422327 
-0.007066 -0.420154 
-0.012276 -0.404935 
-0.017262 -0.368541 
-0.025600 -0.397860 
-0.035044 -0.392924 
-0.063335 -0.313450 
-0.050021 -0.359623 
-0.064694 -0.345934 
-0.034124 -0.365975 
-0.021406 -0.317581 
-0.095039 -0.250967 
-0.071761 -0.254231 
-0.047510 -0.093798 
-0.069650 -0.181230 
-0.078350 -0.114559 
-0.047085 -0.253481 
-0.023139 -0.252673 
0.000000 0.000000 
-0.027237 -0.090394 
0.000000 -0.089953 
-0.012616 -0.090022 
0.000000 0.000000 
-0.020639 -0.175655 
0.000000 -0.252373 
0.000000 0.000000 
0.012616 -0.090022 
0.047510 -0.093798 
0.027237 -0.090394 
0.000000 0.000000 
0.020639 -0.175655 
0.023139 -0.252673 
0.078350 -0.114559 
0.069650 -0.181230 
0.063335 -0.313450 
0.071761 -0.254231 
0.095039 -0.250967 
0.047085 -0.253481 
0.021406 -0.317581 
0.064694 -0.345934 
0.050021 -0.359623 
0.035044 -0.392924 
0.025600 -0.397860 
0.034124 -0.365975 
0.007389 -0.413286 
0.013436 -0.418327 
0.014915 -0.411496 
0.009797 -0.427767 
0.011739 -0.423722 
0.006612 -0.425642 
0.023426 -0.409763 
0.017389 -0.418426 
0.019075 -0.413459 
0.000000 -0.433734 
0.002629 -0.433501 
0.001793 -0.435792 
0.004904 -0.418586 
0.003704 -0.427810 
0.000000 -0.418866 
0.004807 -0.432787 
0.005199 -0.432503 
0.007608 -0.430637 
0.009752 -0.345225 
0.008645 -0.369072 
0.000000 -0.345408 
0.018277 -0.403455 
0.014811 -0.388565 
0.022084 -0.387313 
0.000000 -0.389475 
0.007428 -0.389250 
0.006163 -0.405749 
0.010901 -0.425069 
0.009760 -0.417679 
0.014505 -0.416026 
-0.001793 -0.435792 
-0.002629 -0.433501 
-0.007608 -0.430637 
-0.005199 -0.432503 
-0.004807 -0.432787 
-0.003704 -0.427810 
-0.004904 -0.418586 
-0.014915 -0.411496 
-0.013436 -0.418327 
-0.007389 -0.413286 
-0.019075 -0.413459 
-0.017389 -0.418426 
-0.023426 -0.409763 
-0.006612 -0.425642 
-0.011739 -0.423722 
-0.009797 -0.427767 
-0.008645 -0.369072 
-0.009752 -0.345225 
-0.006163 -0.405749 
-0.007428 -0.389250 
-0.022084 -0.387313 
-0.014811 -0.388565 
-0.018277 -0.403455 
-0.010901 -0.425069 
-0.014505 -0.416026 
-0.009760 -0.417679 
-0.016308 -0.403288 
-0.022976 -0.406376 
-0.040162 -0.386397 
-0.031452 -0.397978 
-0.035271 -0.389309 
-0.027540 -0.404693 
-0.029698 -0.397718 
-0.073046 -0.309632 
-0.065636 -0.333259 
-0.073881 -0.325876 
-0.048037 -0.341231 
-0.057029 -0.338140 
-0.053171 -0.315598 
-0.055022 -0.363247 
-0.057496 -0.353975 
-0.048917 -0.371708 
-0.019510 -0.344865 
-0.010709 -0.317744 
-0.029177 -0.385308 
-0.025779 -0.367573 
-0.032089 -0.317307 
-0.029189 -0.344230 
-0.038726 -0.343118 
-0.042609 -0.377891 
-0.042224 -0.363456 
-0.036031 -0.382284 
-0.089582 -0.278300 
-0.079338 -0.283110 
-0.085612 -0.220980 
-0.083774 -0.253603 
-0.097930 -0.221183 
-0.068447 -0.285505 
-0.057135 -0.286521 
-0.035881 -0.050379 
-0.061925 -0.100368 
-0.053643 -0.068380 
-0.055998 -0.178606 
-0.061842 -0.139239 
-0.048549 -0.136130 
-0.091483 -0.153665 
-0.076685 -0.145025 
-0.083774 -0.184957 
-0.022687 -0.286791 
-0.011341 -0.286752 
-0.045635 -0.286839 
-0.034122 -0.286858 
-0.034260 -0.215988 
-0.034976 -0.253013 
-0.046510 -0.216789 
-0.072505 -0.219523 
-0.059315 -0.217984 
-0.059414 -0.253981 
0.000000 0.000000 
-0.025952 -0.046419 
-0.014546 -0.045255 
-0.019495 -0.045458 
0.000000 0.000000 
-0.036290 -0.091296 
-0.036958 -0.134633 
0.000000 -0.045374 
-0.003290 -0.045384 
0.000000 0.000000 
-0.008531 -0.133497 
-0.006194 -0.090000 
0.000000 -0.133403 
0.000000 0.000000 
-0.006709 -0.045339 
-0.010396 -0.045274 
-0.011520 -0.252471 
0.000000 -0.286765 
-0.031592 -0.176129 
-0.022529 -0.215497 
0.000000 -0.215087 
-0.011171 -0.215222 
-0.010194 -0.175407 
-0.019517 -0.090099 
-0.017330 -0.133642 
-0.026690 -0.133948 
0.000000 0.000000 
0.003290 -0.045384 
0.010396 -0.045274 
0.006709 -0.045339 
0.000000 0.000000 
0.006194 -0.090000 
0.008531 -0.133497 
0.035881 -0.050379 
0.025952 -0.046419 
0.000000 0.000000 
0.036958 -0.134633 
0.036290 -0.091296 
0.048549 -0.136130 
0.000000 0.000000 
0.019495 -0.045458 
0.014546 -0.045255 
0.011520 -0.252471 
0.011341 -0.286752 
0.010194 -0.175407 
0.011171 -0.215222 
0.034260 -0.215988 
0.022529 -0.215497 
0.031592 -0.176129 
0.019517 -0.090099 
0.026690 -0.133948 
0.017330 -0.133642 
0.053643 -0.068380 
0.061925 -0.100368 
0.083774 -0.184957 
0.076685 -0.145025 
0.091483 -0.153665 
0.061842 -0.139239 
0.055998 -0.178606 
0.073046 -0.309632 
0.079338 -0.283110 
0.089582 -0.278300 
0.057135 -0.286521 
0.068447 -0.285505 
0.053171 -0.315598 
0.097930 -0.221183 
0.083774 -0.253603 
0.085612 -0.220980 
0.022687 -0.286791 
0.010709 -0.317744 
0.046510 -0.216789 
0.034976 -0.253013 
0.032089 -0.317307 
0.034122 -0.286858 
0.045635 -0.286839 
0.072505 -0.219523 
0.059414 -0.253981 
0.059315 -0.217984 
0.073881 -0.325876 
0.065636 -0.333259 
0.048917 -0.371708 
0.057496 -0.353975 
0.055022 -0.363247 
0.057029 -0.338140 
0.048037 -0.341231 
0.022976 -0.406376 
0.016308 -0.403288 
0.029698 -0.397718 
0.027540 -0.404693 
0.035271 -0.389309 
0.031452 -0.397978 
0.040162 -0.386397 
0.019510 -0.344865 
0.038726 -0.343118 
0.029189 -0.344230 
0.025779 -0.367573 
0.029177 -0.385308 
0.042609 -0.377891 
0.036031 -0.382284 
0.042224 -0.363456 
0.007570 -0.409410 
0.011091 -0.412802 
0.011486 -0.408908 
0.010193 -0.419659 
0.010662 -0.416402 
0.007230 -0.416887 
0.017865 -0.412948 
0.014200 -0.415090 
0.016802 -0.416164 
0.007756 -0.429211 
0.008463 -0.427317 
0.006285 -0.427880 
0.013269 -0.423642 
0.010800 -0.425903 
0.011971 -0.425474 
0.006867 -0.423071 
0.009102 -0.425106 
0.009676 -0.422559 
0.024087 -0.406101 
0.021280 -0.411766 
0.021572 -0.407729 
0.018866 -0.415979 
0.020368 -0.414516 
0.022148 -0.412115 
0.016630 -0.418323 
0.018529 -0.416576 
0.015852 -0.420534 
0.012617 -0.421202 
0.014507 -0.421494 
0.015685 -0.419008 
0.000000 -0.435233 
0.001084 -0.435252 
0.000907 -0.435975 
0.001573 -0.431304 
0.001313 -0.433705 
0.000000 -0.431355 
0.002635 -0.435380 
0.002169 -0.435061 
0.003230 -0.434660 
0.002767 -0.412828 
0.002454 -0.418799 
0.000000 -0.412894 
0.005545 -0.427421 
0.004293 -0.423646 
0.006427 -0.423265 
0.000000 -0.423929 
0.002148 -0.423863 
0.001853 -0.428028 
0.005384 -0.431432 
0.006132 -0.432135 
0.006979 -0.430810 
0.004251 -0.434045 
0.005221 -0.433208 
0.004152 -0.433886 
0.007746 -0.429309 
0.006428 -0.431686 
0.006244 -0.430107 
0.003146 -0.431090 
0.004707 -0.430696 
0.003929 -0.433104 
0.005107 -0.332047 
0.004867 -0.345339 
0.000000 -0.332153 
0.012961 -0.368853 
0.009216 -0.357606 
0.013824 -0.357419 
0.000000 -0.357784 
0.004605 -0.357728 
0.004323 -0.369208 
0.021215 -0.402412 
0.020185 -0.395832 
0.023440 -0.394859 
0.013547 -0.397206 
0.016884 -0.396606 
0.015295 -0.404288 
0.020023 -0.378525 
0.018466 -0.388019 
0.016054 -0.379010 
0.000000 -0.398201 
0.003401 -0.398140 
0.003084 -0.405943 
0.004025 -0.379772 
0.003716 -0.389417 
0.000000 -0.379827 
0.009229 -0.405417 
0.006798 -0.397959 
0.010183 -0.397651 
0.012059 -0.379371 
0.011129 -0.388970 
0.008047 -0.379621 
0.008732 -0.429338 
0.009151 -0.426067 
0.009205 -0.428284 
0.010616 -0.427013 
0.012604 -0.423830 
0.005529 -0.412623 
0.011010 -0.411758 
0.008279 -0.412271 
0.007342 -0.418218 
0.008541 -0.422706 
0.019000 -0.409080 
0.014677 -0.419784 
0.016815 -0.414869 
0.016378 -0.410185 
0.013712 -0.411070 
0.010625 -0.421952 
0.012151 -0.416956 
0.012673 -0.420986 
-0.000907 -0.435975 
-0.001084 -0.435252 
-0.003230 -0.434660 
-0.002169 -0.435061 
-0.002635 -0.435380 
-0.001313 -0.433705 
-0.001573 -0.431304 
-0.006979 -0.430810 
-0.006132 -0.432135 
-0.005384 -0.431432 
-0.006244 -0.430107 
-0.006428 -0.431686 
-0.007746 -0.429309 
-0.004152 -0.433886 
-0.005221 -0.433208 
-0.004251 -0.434045 
-0.002454 -0.418799 
-0.002767 -0.412828 
-0.001853 -0.428028 
-0.002148 -0.423863 
-0.006427 -0.423265 
-0.004293 -0.423646 
-0.005545 -0.427421 
-0.003929 -0.433104 
-0.004707 -0.430696 
-0.003146 -0.431090 
-0.011486 -0.408908 
-0.011091 -0.412802 
-0.007570 -0.409410 
-0.016802 -0.416164 
-0.014200 -0.415090 
-0.017865 -0.412948 
-0.007230 -0.416887 
-0.010662 -0.416402 
-0.010193 -0.419659 
-0.021572 -0.407729 
-0.021280 -0.411766 
-0.024087 -0.406101 
-0.015852 -0.420534 
-0.018529 -0.416576 
-0.016630 -0.418323 
-0.022148 -0.412115 
-0.020368 -0.414516 
-0.018866 -0.415979 
-0.006285 -0.427880 
-0.008463 -0.427317 
-0.007756 -0.429211 
-0.009676 -0.422559 
-0.009102 -0.425106 
-0.006867 -0.423071 
-0.011971 -0.425474 
-0.010800 -0.425903 
-0.013269 -0.423642 
-0.015685 -0.419008 
-0.014507 -0.421494 
-0.012617 -0.421202 
-0.004867 -0.345339 
-0.005107 -0.332047 
-0.004323 -0.369208 
-0.004605 -0.357728 
-0.013824 -0.357419 
-0.009216 -0.357606 
-0.012961 -0.368853 
-0.003084 -0.405943 
-0.003401 -0.398140 
-0.010183 -0.397651 
-0.006798 -0.397959 
-0.009229 -0.405417 
-0.003716 -0.389417 
-0.004025 -0.379772 
-0.023440 -0.394859 
-0.020185 -0.395832 
-0.021215 -0.402412 
-0.016054 -0.379010 
-0.018466 -0.388019 
-0.020023 -0.378525 
-0.015295 -0.404288 
-0.016884 -0.396606 
-0.013547 -0.397206 
-0.008047 -0.379621 
-0.011129 -0.388970 
-0.012059 -0.379371 
-0.008732 -0.429338 
-0.012604 -0.423830 
-0.010616 -0.427013 
-0.009205 -0.428284 
-0.009151 -0.426067 
-0.019000 -0.409080 
-0.013712 -0.411070 
-0.016378 -0.410185 
-0.016815 -0.414869 
-0.014677 -0.419784 
-0.005529 -0.412623 
-0.008541 -0.422706 
-0.007342 -0.418218 
-0.008279 -0.412271 
-0.011010 -0.411758 
-0.012673 -0.420986 
-0.012151 -0.416956 
-0.010625 -0.421952 
-0.011887 -0.404797 
-0.015601 -0.407562 
-0.024282 -0.402349 
-0.019879 -0.405368 
-0.020894 -0.400971 
-0.018882 -0.409352 
-0.021651 -0.409975 
-0.042661 -0.382361 
-0.037996 -0.388518 
-0.040192 -0.383894 
-0.033552 -0.396132 
-0.035789 -0.392581 
-0.037627 -0.389901 
-0.030400 -0.393969 
-0.033363 -0.393910 
-0.028784 -0.398525 
-0.026543 -0.404164 
-0.026930 -0.399577 
-0.023871 -0.409344 
-0.025512 -0.407416 
-0.032402 -0.395514 
-0.028937 -0.401882 
-0.031272 -0.399218 
-0.027173 -0.402581 
-0.029516 -0.401559 
-0.025541 -0.406176 
-0.077693 -0.306802 
-0.073859 -0.318696 
-0.078184 -0.314826 
-0.064927 -0.324266 
-0.069449 -0.321804 
-0.068256 -0.311802 
-0.069368 -0.336245 
-0.069796 -0.329924 
-0.065537 -0.340460 
-0.045795 -0.329714 
-0.050711 -0.328842 
-0.047968 -0.316262 
-0.053593 -0.349282 
-0.052578 -0.339869 
-0.049437 -0.351215 
-0.058300 -0.314685 
-0.055548 -0.327693 
-0.060291 -0.326196 
-0.050092 -0.370851 
-0.051988 -0.367795 
-0.047334 -0.375450 
-0.061123 -0.350291 
-0.056595 -0.359405 
-0.059899 -0.354938 
-0.049831 -0.366447 
-0.053244 -0.363218 
-0.053798 -0.357061 
-0.061382 -0.335966 
-0.057660 -0.346899 
-0.061639 -0.343986 
-0.010250 -0.331933 
-0.005357 -0.317842 
-0.018419 -0.357158 
-0.014637 -0.345070 
-0.016058 -0.317667 
-0.015387 -0.331814 
-0.020513 -0.331669 
-0.026644 -0.393657 
-0.025657 -0.386420 
-0.029978 -0.366869 
-0.027844 -0.377090 
-0.031679 -0.376082 
-0.023955 -0.377894 
-0.021538 -0.368122 
-0.037412 -0.317073 
-0.035786 -0.330855 
-0.040815 -0.330368 
-0.025626 -0.331476 
-0.030720 -0.331213 
-0.026752 -0.317468 
-0.036483 -0.354987 
-0.033980 -0.343750 
-0.032033 -0.355755 
-0.022992 -0.356810 
-0.027532 -0.356351 
-0.024363 -0.344593 
-0.044547 -0.379437 
-0.046349 -0.369160 
-0.045794 -0.375053 
-0.041717 -0.382872 
-0.038831 -0.385814 
-0.043416 -0.342295 
-0.038209 -0.364852 
-0.040874 -0.354007 
-0.045195 -0.352768 
-0.046163 -0.361732 
-0.029788 -0.392191 
-0.035883 -0.388314 
-0.032869 -0.390425 
-0.032637 -0.383943 
-0.035453 -0.374831 
-0.042792 -0.371422 
-0.039159 -0.373294 
-0.039355 -0.380283 
-0.086112 -0.291028 
-0.081330 -0.294283 
-0.087309 -0.267201 
-0.084552 -0.281083 
-0.092582 -0.264941 
-0.076387 -0.296740 
-0.071296 -0.298563 
-0.091833 -0.204588 
-0.091915 -0.221350 
-0.098112 -0.205355 
-0.077836 -0.254085 
-0.085076 -0.237695 
-0.078856 -0.237626 
-0.096860 -0.236382 
-0.091098 -0.237353 
-0.089523 -0.252629 
-0.055325 -0.301492 
-0.049846 -0.301935 
-0.066074 -0.299890 
-0.060743 -0.300835 
-0.064478 -0.270581 
-0.062828 -0.286135 
-0.070372 -0.270290 
-0.081828 -0.268735 
-0.076170 -0.269715 
-0.073960 -0.284536 
-0.023154 -0.027573 
-0.043817 -0.056415 
-0.033895 -0.039501 
-0.054284 -0.096341 
-0.050563 -0.076001 
-0.043434 -0.072240 
-0.067850 -0.092743 
-0.058983 -0.082527 
-0.070180 -0.106365 
-0.049526 -0.177702 
-0.052844 -0.157723 
-0.046536 -0.156786 
-0.066462 -0.160697 
-0.059493 -0.159000 
-0.062719 -0.179771 
-0.049017 -0.115112 
-0.054969 -0.137417 
-0.055582 -0.116901 
-0.095113 -0.171667 
-0.088242 -0.168545 
-0.090679 -0.187012 
-0.078391 -0.128428 
-0.084260 -0.149072 
-0.086034 -0.134714 
-0.076710 -0.182979 
-0.081012 -0.165523 
-0.073682 -0.162871 
-0.062762 -0.119559 
-0.069126 -0.141742 
-0.070462 -0.123348 
-0.011080 -0.302675 
-0.005561 -0.302731 
-0.022135 -0.302615 
-0.016602 -0.302642 
-0.017247 -0.270057 
-0.017005 -0.286764 
-0.023032 -0.270134 
-0.044325 -0.302225 
-0.038781 -0.302407 
-0.040630 -0.270472 
-0.039872 -0.286869 
-0.046577 -0.270587 
-0.033229 -0.302516 
-0.027679 -0.302578 
-0.039142 -0.196767 
-0.040314 -0.216343 
-0.045275 -0.197265 
-0.029025 -0.252825 
-0.034840 -0.234880 
-0.028866 -0.234636 
-0.047088 -0.235540 
-0.040913 -0.235180 
-0.040997 -0.253234 
-0.028392 -0.286826 
-0.034721 -0.270349 
-0.028854 -0.270233 
-0.085236 -0.203419 
-0.071604 -0.200834 
-0.078451 -0.202111 
-0.079110 -0.220313 
-0.072511 -0.237315 
-0.051600 -0.197904 
-0.053360 -0.235955 
-0.052847 -0.217335 
-0.058116 -0.198707 
-0.064800 -0.199686 
-0.051395 -0.286737 
-0.065604 -0.254166 
-0.058525 -0.270684 
-0.052549 -0.270669 
-0.053231 -0.253739 
-0.065883 -0.218724 
-0.059711 -0.236412 
-0.066110 -0.236883 
0.000000 0.000000 
-0.018343 -0.024567 
-0.013164 -0.022945 
-0.015353 -0.023440 
0.000000 0.000000 
-0.030249 -0.047701 
-0.037570 -0.070176 
-0.007415 -0.022613 
-0.008601 -0.022604 
0.000000 0.000000 
-0.024613 -0.068057 
-0.016890 -0.045310 
-0.021207 -0.067878 
0.000000 0.000000 
-0.009915 -0.022629 
-0.011407 -0.022722 
-0.042561 -0.135240 
-0.040553 -0.156111 
-0.041561 -0.092241 
-0.043036 -0.113936 
-0.032511 -0.112687 
-0.037562 -0.113175 
-0.031554 -0.090729 
-0.022461 -0.045777 
-0.028382 -0.068402 
-0.032641 -0.069035 
0.000000 -0.022771 
-0.000834 -0.022778 
0.000000 0.000000 
-0.002389 -0.067802 
-0.001636 -0.045388 
0.000000 -0.067780 
0.000000 0.000000 
-0.001679 -0.022773 
-0.002541 -0.022757 
-0.004708 -0.154618 
-0.004248 -0.133448 
0.000000 -0.154567 
-0.009362 -0.090011 
-0.007442 -0.111916 
-0.011243 -0.111951 
0.000000 -0.111845 
-0.003705 -0.111883 
-0.003083 -0.089983 
0.000000 0.000000 
-0.005306 -0.022672 
-0.006324 -0.022639 
-0.003426 -0.022734 
-0.004345 -0.022705 
0.000000 0.000000 
-0.012414 -0.067770 
-0.008509 -0.045306 
-0.009791 -0.067784 
-0.004803 -0.067807 
-0.007262 -0.067799 
-0.004976 -0.045367 
-0.005679 -0.286756 
0.000000 -0.302801 
-0.017309 -0.252556 
-0.011490 -0.270004 
0.000000 -0.269949 
-0.005746 -0.269971 
-0.005755 -0.252412 
-0.037340 -0.176506 
-0.033191 -0.196385 
-0.021755 -0.195881 
-0.027404 -0.196096 
-0.026035 -0.175854 
-0.028337 -0.215710 
-0.022982 -0.234445 
0.000000 -0.195470 
-0.005370 -0.195526 
-0.005082 -0.175331 
-0.005701 -0.234120 
-0.005574 -0.215141 
0.000000 -0.234071 
-0.015369 -0.175511 
-0.010766 -0.195607 
-0.016219 -0.195722 
-0.017172 -0.234300 
-0.016814 -0.215338 
-0.011418 -0.234194 
-0.012397 -0.045252 
-0.015988 -0.090046 
-0.015164 -0.067769 
-0.018079 -0.067796 
-0.023248 -0.090203 
-0.009449 -0.154682 
-0.019165 -0.154885 
-0.014257 -0.154767 
-0.012879 -0.133558 
-0.015140 -0.111997 
-0.034864 -0.155630 
-0.027805 -0.112379 
-0.031686 -0.134222 
-0.029430 -0.155290 
-0.024210 -0.155052 
-0.019171 -0.112069 
-0.021920 -0.133764 
-0.023377 -0.112187 
0.000000 0.000000 
0.000834 -0.022778 
0.002541 -0.022757 
0.001679 -0.022773 
0.000000 0.000000 
0.001636 -0.045388 
0.002389 -0.067802 
0.006324 -0.022639 
0.005306 -0.022672 
0.000000 0.000000 
0.009791 -0.067784 
0.008509 -0.045306 
0.012414 -0.067770 
0.000000 0.000000 
0.004345 -0.022705 
0.003426 -0.022734 
0.004248 -0.133448 
0.004708 -0.154618 
0.003083 -0.089983 
0.003705 -0.111883 
0.011243 -0.111951 
0.007442 -0.111916 
0.009362 -0.090011 
0.004976 -0.045367 
0.007262 -0.067799 
0.004803 -0.067807 
0.023154 -0.027573 
0.018343 -0.024567 
0.000000 0.000000 
0.037570 -0.070176 
0.030249 -0.047701 
0.043434 -0.072240 
0.000000 0.000000 
0.015353 -0.023440 
0.013164 -0.022945 
0.040553 -0.156111 
0.042561 -0.135240 
0.046536 -0.156786 
0.031554 -0.090729 
0.037562 -0.113175 
0.032511 -0.112687 
0.049017 -0.115112 
0.043036 -0.113936 
0.041561 -0.092241 
0.000000 0.000000 
0.008601 -0.022604 
0.007415 -0.022613 
0.011407 -0.022722 
0.009915 -0.022629 
0.000000 0.000000 
0.021207 -0.067878 
0.016890 -0.045310 
0.024613 -0.068057 
0.032641 -0.069035 
0.028382 -0.068402 
0.022461 -0.045777 
0.005679 -0.286756 
0.005561 -0.302731 
0.005755 -0.252412 
0.005746 -0.269971 
0.017247 -0.270057 
0.011490 -0.270004 
0.017309 -0.252556 
0.005082 -0.175331 
0.005370 -0.195526 
0.016219 -0.195722 
0.010766 -0.195607 
0.015369 -0.175511 
0.005574 -0.215141 
0.005701 -0.234120 
0.039142 -0.196767 
0.033191 -0.196385 
0.037340 -0.176506 
0.022982 -0.234445 
0.028337 -0.215710 
0.028866 -0.234636 
0.026035 -0.175854 
0.027404 -0.196096 
0.021755 -0.195881 
0.011418 -0.234194 
0.016814 -0.215338 
0.017172 -0.234300 
0.012397 -0.045252 
0.023248 -0.090203 
0.018079 -0.067796 
0.015164 -0.067769 
0.015988 -0.090046 
0.034864 -0.155630 
0.024210 -0.155052 
0.029430 -0.155290 
0.031686 -0.134222 
0.027805 -0.112379 
0.009449 -0.154682 
0.015140 -0.111997 
0.012879 -0.133558 
0.014257 -0.154767 
0.019165 -0.154885 
0.023377 -0.112187 
0.021920 -0.133764 
0.019171 -0.112069 
0.033895 -0.039501 
0.043817 -0.056415 
0.070180 -0.106365 
0.058983 -0.082527 
0.067850 -0.092743 
0.050563 -0.076001 
0.054284 -0.096341 
0.090679 -0.187012 
0.088242 -0.168545 
0.095113 -0.171667 
0.073682 -0.162871 
0.081012 -0.165523 
0.076710 -0.182979 
0.086034 -0.134714 
0.084260 -0.149072 
0.078391 -0.128428 
0.052844 -0.157723 
0.049526 -0.177702 
0.055582 -0.116901 
0.054969 -0.137417 
0.062719 -0.179771 
0.059493 -0.159000 
0.066462 -0.160697 
0.070462 -0.123348 
0.069126 -0.141742 
0.062762 -0.119559 
0.077693 -0.306802 
0.081330 -0.294283 
0.086112 -0.291028 
0.071296 -0.298563 
0.076387 -0.296740 
0.068256 -0.311802 
0.092582 -0.264941 
0.084552 -0.281083 
0.087309 -0.267201 
0.049846 -0.301935 
0.055325 -0.301492 
0.047968 -0.316262 
0.070372 -0.270290 
0.062828 -0.286135 
0.064478 -0.270581 
0.058300 -0.314685 
0.060743 -0.300835 
0.066074 -0.299890 
0.098112 -0.205355 
0.091915 -0.221350 
0.091833 -0.204588 
0.089523 -0.252629 
0.091098 -0.237353 
0.096860 -0.236382 
0.078856 -0.237626 
0.085076 -0.237695 
0.077836 -0.254085 
0.073960 -0.284536 
0.076170 -0.269715 
0.081828 -0.268735 
0.011080 -0.302675 
0.005357 -0.317842 
0.023032 -0.270134 
0.017005 -0.286764 
0.016058 -0.317667 
0.016602 -0.302642 
0.022135 -0.302615 
0.045275 -0.197265 
0.040314 -0.216343 
0.040997 -0.253234 
0.040913 -0.235180 
0.047088 -0.235540 
0.034840 -0.234880 
0.029025 -0.252825 
0.037412 -0.317073 
0.038781 -0.302407 
0.044325 -0.302225 
0.027679 -0.302578 
0.033229 -0.302516 
0.026752 -0.317468 