# vtk DataFile Version 2.0
Unstructured Grid Example
ASCII
DATASET UNSTRUCTURED_GRID

POINTS 81 float
0.017550 -0.413068 0.000000 
0.982450 -0.413068 0.000000 
1.000000 1.000000 0.000000 
0.000000 1.000000 0.000000 
0.500000 -0.427719 0.000000 
0.921376 0.199515 0.000000 
0.500000 1.000000 0.000000 
0.078624 0.199515 0.000000 
0.500000 0.182336 0.000000 
0.259999 -0.427056 0.000000 
0.500000 -0.150865 0.000000 
0.273237 -0.147848 0.000000 
0.740001 -0.427056 0.000000 
0.726763 -0.147848 0.000000 
0.954632 -0.129941 0.000000 
0.708928 0.186011 0.000000 
0.907041 0.562524 0.000000 
0.709121 0.574995 0.000000 
0.750000 1.000000 0.000000 
0.500000 0.577025 0.000000 
0.250000 1.000000 0.000000 
0.290879 0.574995 0.000000 
0.092959 0.562524 0.000000 
0.291072 0.186011 0.000000 
0.045368 -0.129941 0.000000 
0.139162 -0.420972 0.000000 
0.265441 -0.293996 0.000000 
0.147353 -0.287958 0.000000 
0.500000 -0.296221 0.000000 
0.382757 -0.296613 0.000000 
0.380177 -0.429621 0.000000 
0.390989 0.009898 0.000000 
0.386590 -0.150395 0.000000 
0.500000 0.008679 0.000000 
0.619823 -0.429621 0.000000 
0.617243 -0.296613 0.000000 
0.852647 -0.287958 0.000000 
0.734559 -0.293996 0.000000 
0.860838 -0.420972 0.000000 
0.613410 -0.150395 0.000000 
0.609011 0.009898 0.000000 
0.971169 -0.277812 0.000000 
0.840629 -0.141862 0.000000 
0.814127 0.189182 0.000000 
0.827027 0.017361 0.000000 
0.936766 0.029427 0.000000 
0.717734 0.012119 0.000000 
0.604406 0.184900 0.000000 
0.908349 0.375086 0.000000 
0.805808 0.373097 0.000000 
0.832175 0.783608 0.000000 
0.808932 0.570904 0.000000 
0.926612 0.765321 0.000000 
0.704659 0.373906 0.000000 
0.602500 0.374454 0.000000 
0.875000 1.000000 0.000000 
0.724646 0.785646 0.000000 
0.500000 0.786499 0.000000 
0.613061 0.785824 0.000000 
0.625000 1.000000 0.000000 
0.605338 0.576043 0.000000 
0.500000 0.374672 0.000000 
0.375000 1.000000 0.000000 
0.386939 0.785824 0.000000 
0.167825 0.783608 0.000000 
0.275354 0.785646 0.000000 
0.125000 1.000000 0.000000 
0.394662 0.576043 0.000000 
0.397500 0.374454 0.000000 
0.073388 0.765321 0.000000 
0.191068 0.570904 0.000000 
0.185873 0.189182 0.000000 
0.194192 0.373097 0.000000 
0.091651 0.375086 0.000000 
0.295341 0.373906 0.000000 
0.395594 0.184900 0.000000 
0.063234 0.029427 0.000000 
0.172973 0.017361 0.000000 
0.159371 -0.141862 0.000000 
0.028831 -0.277812 0.000000 
0.282266 0.012119 0.000000 

CELLS 128 512
3  0 25 27 
3  9 26 25 
3  11 27 26 
3  25 26 27 
3  4 28 30 
3  10 29 28 
3  9 30 29 
3  28 29 30 
3  8 31 33 
3  11 32 31 
3  10 33 32 
3  31 32 33 
3  9 29 26 
3  10 32 29 
3  11 26 32 
3  29 32 26 
3  4 34 28 
3  12 35 34 
3  10 28 35 
3  34 35 28 
3  1 36 38 
3  13 37 36 
3  12 38 37 
3  36 37 38 
3  8 33 40 
3  10 39 33 
3  13 40 39 
3  33 39 40 
3  12 37 35 
3  13 39 37 
3  10 35 39 
3  37 39 35 
3  1 41 36 
3  14 42 41 
3  13 36 42 
3  41 42 36 
3  5 43 45 
3  15 44 43 
3  14 45 44 
3  43 44 45 
3  8 40 47 
3  13 46 40 
3  15 47 46 
3  40 46 47 
3  14 44 42 
3  15 46 44 
3  13 42 46 
3  44 46 42 
3  5 48 43 
3  16 49 48 
3  15 43 49 
3  48 49 43 
3  2 50 52 
3  17 51 50 
3  16 52 51 
3  50 51 52 
3  8 47 54 
3  15 53 47 
3  17 54 53 
3  47 53 54 
3  16 51 49 
3  17 53 51 
3  15 49 53 
3  51 53 49 
3  2 55 50 
3  18 56 55 
3  17 50 56 
3  55 56 50 
3  6 57 59 
3  19 58 57 
3  18 59 58 
3  57 58 59 
3  8 54 61 
3  17 60 54 
3  19 61 60 
3  54 60 61 
3  18 58 56 
3  19 60 58 
3  17 56 60 
3  58 60 56 
3  6 62 57 
3  20 63 62 
3  19 57 63 
3  62 63 57 
3  3 64 66 
3  21 65 64 
3  20 66 65 
3  64 65 66 
3  8 61 68 
3  19 67 61 
3  21 68 67 
3  61 67 68 
3  20 65 63 
3  21 67 65 
3  19 63 67 
3  65 67 63 
3  3 69 64 
3  22 70 69 
3  21 64 70 
3  69 70 64 
3  7 71 73 
3  23 72 71 
3  22 73 72 
3  71 72 73 
3  8 68 75 
3  21 74 68 
3  23 75 74 
3  68 74 75 
3  22 72 70 
3  23 74 72 
3  21 70 74 
3  72 74 70 
3  7 76 71 
3  24 77 76 
3  23 71 77 
3  76 77 71 
3  0 27 79 
3  11 78 27 
3  24 79 78 
3  27 78 79 
3  8 75 31 
3  23 80 75 
3  11 31 80 
3  75 80 31 
3  24 78 77 
3  11 80 78 
3  23 77 80 
3  78 80 77 

CELL_TYPES 128
5
5
5
5
5
5
5
5
5
5
5
5
5
5
5
5
5
5
5
5
5
5
5
5
5
5
5
5
5
5
5
5
5
5
5
5
5
5
5
5
5
5
5
5
5
5
5
5
5
5
5
5
5
5
5
5
5
5
5
5
5
5
5
5
5
5
5
5
5
5
5
5
5
5
5
5
5
5
5
5
5
5
5
5
5
5
5
5
5
5
5
5
5
5
5
5
5
5
5
5
5
5
5
5
5
5
5
5
5
5
5
5
5
5
5
5
5
5
5
5
5
5
5
5
5
5
5
5

POINT_DATA 81

SCALARS u_h float 2
LOOKUP_TABLE default
0.017550 -0.413068 
-0.017550 -0.413068 
0.000000 0.000000 
0.000000 0.000000 
-0.000000 -0.427719 
-0.078624 -0.300485 
0.000000 0.000000 
0.078624 -0.300485 
-0.000000 -0.317664 
0.009999 -0.427056 
-0.000000 -0.400865 
0.023237 -0.397848 
-0.009999 -0.427056 
-0.023237 -0.397848 
-0.045368 -0.379941 
-0.041072 -0.313989 
-0.092959 -0.187476 
-0.040879 -0.175005 
0.000000 0.000000 
-0.000000 -0.172975 
0.000000 0.000000 
0.040879 -0.175005 
0.092959 -0.187476 
0.041072 -0.313989 
0.045368 -0.379941 
0.014162 -0.420972 
0.015441 -0.418996 
0.022353 -0.412958 
-0.000000 -0.421221 
0.007757 -0.421613 
0.005177 -0.429621 
0.015989 -0.365102 
0.011590 -0.400395 
-0.000000 -0.366321 
-0.005177 -0.429621 
-0.007757 -0.421613 
-0.022353 -0.412958 
-0.015441 -0.418996 
-0.014162 -0.420972 
-0.011590 -0.400395 
-0.015989 -0.365102 
-0.028831 -0.402812 
-0.034371 -0.391862 
-0.060873 -0.310818 
-0.047973 -0.357639 
-0.063234 -0.345573 
-0.032266 -0.362881 
-0.020594 -0.315100 
-0.091651 -0.249914 
-0.069192 -0.251903 
-0.042825 -0.091392 
-0.066068 -0.179096 
-0.073388 -0.109679 
-0.045341 -0.251094 
-0.022500 -0.250546 
0.000000 0.000000 
-0.025354 -0.089354 
-0.000000 -0.088501 
-0.011939 -0.089176 
0.000000 0.000000 
-0.019662 -0.173957 
-0.000000 -0.250328 
0.000000 0.000000 
0.011939 -0.089176 
0.042825 -0.091392 
0.025354 -0.089354 
0.000000 0.000000 
0.019662 -0.173957 
0.022500 -0.250546 
0.073388 -0.109679 
0.066068 -0.179096 
0.060873 -0.310818 
0.069192 -0.251903 
0.091651 -0.249914 
0.045341 -0.251094 
0.020594 -0.315100 
0.063234 -0.345573 
0.047973 -0.357639 
0.034371 -0.391862 
0.028831 -0.402812 
0.032266 -0.362881 

CELL_DATA 128

SCALARS epsilon float 4
LOOKUP_TABLE default
-0.021493 0.067892 0.000000 0.003845
-0.030913 0.065573 0.000000 -0.000411
-0.052520 0.158790 0.000000 0.011700
-0.051576 0.066342 0.000000 0.011913
-0.042274 0.050747 0.000000 0.007219
-0.063977 0.149858 0.000000 0.001341
-0.038698 0.062632 0.000000 0.001070
-0.063827 0.061959 0.000000 0.012430
-0.135918 0.319476 0.000000 -0.003434
-0.096406 0.245157 0.000000 0.010602
-0.096969 0.239962 0.000000 -0.001457
-0.135123 0.244748 0.000000 0.015479
-0.061492 0.063536 0.000000 0.013315
-0.096445 0.155754 0.000000 0.014949
-0.094562 0.156529 0.000000 0.025036
-0.062377 0.156395 0.000000 0.007076
-0.042274 0.050747 0.000000 -0.007219
-0.038698 0.062632 0.000000 -0.001070
-0.063977 0.149858 0.000000 -0.001341
-0.063827 0.061959 0.000000 -0.012430
-0.021493 0.067892 0.000000 -0.003845
-0.052520 0.158790 0.000000 -0.011700
-0.030913 0.065573 0.000000 0.000411
-0.051576 0.066342 0.000000 -0.011913
-0.135918 0.319476 0.000000 0.003434
-0.096969 0.239962 0.000000 0.001457
-0.096406 0.245157 0.000000 -0.010602
-0.135123 0.244748 0.000000 -0.015479
-0.061492 0.063536 0.000000 -0.013315
-0.094562 0.156529 0.000000 -0.025036
-0.096445 0.155754 0.000000 -0.014949
-0.062377 0.156395 0.000000 -0.007076
-0.042255 0.088858 0.000000 -0.009844
-0.072934 0.181778 0.000000 -0.030539
-0.084683 0.160047 0.000000 -0.031305
-0.042455 0.164331 0.000000 -0.014906
-0.137890 0.310738 0.000000 -0.036818
-0.164370 0.311960 0.000000 -0.047794
-0.109406 0.254190 0.000000 -0.040011
-0.117729 0.320373 0.000000 -0.019697
-0.176679 0.327288 0.000000 -0.013204
-0.135276 0.243709 0.000000 -0.032734
-0.174377 0.321209 0.000000 -0.035713
-0.137521 0.327141 0.000000 -0.013238
-0.078683 0.249817 0.000000 -0.019564
-0.129340 0.323508 0.000000 -0.022289
-0.088157 0.246143 0.000000 -0.019171
-0.124645 0.242636 0.000000 -0.043125
-0.141185 0.338363 0.000000 -0.026820
-0.194875 0.388797 0.000000 -0.000617
-0.167758 0.373079 0.000000 -0.027137
-0.192687 0.372521 0.000000 -0.031237
-0.141133 0.626388 0.000000 0.255719
-0.207046 0.501326 0.000000 0.087358
-0.221481 0.465551 0.000000 0.065449
-0.242311 0.520817 0.000000 0.061671
-0.177486 0.398893 0.000000 -0.001568
-0.176125 0.390999 0.000000 -0.015293
-0.198112 0.450080 0.000000 0.017417
-0.198569 0.398502 0.000000 -0.009619
-0.235083 0.438427 0.000000 -0.005855
-0.219280 0.451075 0.000000 0.009613
-0.207775 0.390612 0.000000 -0.020774
-0.207689 0.435931 0.000000 0.011422
0.019583 0.511533 0.000000 0.140743
0.006995 0.503737 0.000000 0.083794
-0.144254 0.490491 0.000000 0.055496
-0.119360 0.514665 0.000000 0.158655
0.000000 0.500436 0.000000 0.000000
-0.100023 0.484588 0.000000 -0.001595
0.001554 0.503051 0.000000 0.039477
-0.097795 0.503332 0.000000 0.042077
-0.195418 0.411379 0.000000 -0.000541
-0.183260 0.452243 0.000000 0.009204
-0.169239 0.455346 0.000000 -0.002340
-0.195242 0.452128 0.000000 0.011327
-0.104036 0.503893 0.000000 0.093448
-0.167955 0.486105 0.000000 0.028409
-0.178893 0.489902 0.000000 0.060019
-0.112088 0.485852 0.000000 0.028536
0.000000 0.500436 0.000000 0.000000
0.001554 0.503051 0.000000 -0.039477
-0.100023 0.484588 0.000000 0.001595
-0.097795 0.503332 0.000000 -0.042077
0.019583 0.511533 0.000000 -0.140743
-0.144254 0.490491 0.000000 -0.055496
0.006995 0.503737 0.000000 -0.083794
-0.119360 0.514665 0.000000 -0.158655
-0.195418 0.411379 0.000000 0.000541
-0.169239 0.455346 0.000000 0.002340
-0.183260 0.452243 0.000000 -0.009204
-0.195242 0.452128 0.000000 -0.011327
-0.104036 0.503893 0.000000 -0.093448
-0.178893 0.489902 0.000000 -0.060019
-0.167955 0.486105 0.000000 -0.028409
-0.112088 0.485852 0.000000 -0.028536
-0.141133 0.626388 0.000000 -0.255719
-0.221481 0.465551 0.000000 -0.065449
-0.207046 0.501326 0.000000 -0.087358
-0.242311 0.520817 0.000000 -0.061671
-0.141185 0.338363 0.000000 0.026820
-0.167758 0.373079 0.000000 0.027137
-0.194875 0.388797 0.000000 0.000617
-0.192687 0.372521 0.000000 0.031237
-0.177486 0.398893 0.000000 0.001568
-0.198112 0.450080 0.000000 -0.017417
-0.176125 0.390999 0.000000 0.015293
-0.198569 0.398502 0.000000 0.009619
-0.235083 0.438427 0.000000 0.005855
-0.207775 0.390612 0.000000 0.020774
-0.219280 0.451075 0.000000 -0.009613
-0.207689 0.435931 0.000000 -0.011422
-0.137890 0.310738 0.000000 0.036818
-0.109406 0.254190 0.000000 0.040011
-0.164370 0.311960 0.000000 0.047794
-0.117729 0.320373 0.000000 0.019697
-0.042255 0.088858 0.000000 0.009844
-0.084683 0.160047 0.000000 0.031305
-0.072934 0.181778 0.000000 0.030539
-0.042455 0.164331 0.000000 0.014906
-0.176679 0.327288 0.000000 0.013204
-0.174377 0.321209 0.000000 0.035713
-0.135276 0.243709 0.000000 0.032734
-0.137521 0.327141 0.000000 0.013238
-0.078683 0.249817 0.000000 0.019564
-0.088157 0.246143 0.000000 0.019171
-0.129340 0.323508 0.000000 0.022289
-0.124645 0.242636 0.000000 0.043125

SCALARS sigma float 4
LOOKUP_TABLE default
0.012613 1.451814 0.402315 0.018120
-0.228392 1.326853 0.301775 -0.040898
0.001026 3.325039 0.913754 0.104086
-0.825591 1.116311 0.079868 0.140006
-0.646566 0.872404 0.062044 0.123734
-0.346300 3.035582 0.738814 0.023558
-0.441833 1.202831 0.209066 0.001002
-1.147136 0.925501 -0.060889 0.195349
-1.070323 5.930273 1.335151 -0.065993
-0.488141 4.804667 1.185859 0.104482
-0.532671 4.694135 1.143259 -0.026606
-1.658762 4.355793 0.740943 0.186531
-1.089070 0.976539 -0.030915 0.185361
-1.242625 2.812714 0.431343 0.207814
-1.220560 2.832852 0.442937 0.324417
-0.256452 3.195459 0.807420 0.072593
-0.646566 0.872404 0.062044 -0.123734
-0.441833 1.202831 0.209066 -0.001002
-0.346300 3.035582 0.738814 -0.023558
-1.147136 0.925501 -0.060889 -0.195349
0.012613 1.451814 0.402315 -0.018120
0.001026 3.325039 0.913754 -0.104086
-0.228392 1.326853 0.301775 0.040898
-0.825591 1.116311 0.079868 -0.140006
-1.070323 5.930273 1.335151 0.065993
-0.532671 4.694135 1.143259 0.026606
-0.488141 4.804667 1.185859 -0.104482
-1.658762 4.355793 0.740943 -0.186531
-1.089070 0.976539 -0.030915 -0.185361
-1.220560 2.832852 0.442937 -0.324417
-1.242625 2.812714 0.431343 -0.207814
-0.256452 3.195459 0.807420 -0.072593
-0.421818 1.702993 0.351971 -0.072057
-0.567645 3.503333 0.806508 -0.277371
-0.975845 2.978763 0.550252 -0.370047
0.255483 3.497155 1.030945 -0.110023
-1.389114 5.611556 1.160011 -0.281664
-2.156941 5.381935 0.885987 -0.550431
-1.053242 4.693349 1.000029 -0.335769
-0.640653 6.053829 1.487136 -0.044941
-2.325126 5.590486 0.897077 -0.114426
-1.722462 4.310753 0.711069 -0.400773
-2.339807 5.480057 0.862706 -0.433741
-1.074984 6.062273 1.370135 -0.128340
-0.071469 4.990302 1.351328 -0.094051
-0.891851 6.059164 1.419591 -0.191764
-0.286644 4.886549 1.263710 -0.170737
-1.489404 4.368454 0.790948 -0.490449
-1.220038 6.165310 1.358591 -0.145659
-2.445916 6.607906 1.143404 0.036330
-1.713851 6.615286 1.346548 -0.272341
-2.544724 6.293104 1.029775 -0.343750
-1.571205 10.660503 2.497060 2.402911
-2.365420 8.486851 1.681712 0.920575
-3.074572 7.623798 1.249787 0.571798
-3.574996 8.244798 1.282913 0.247667
-1.792391 7.025416 1.437644 0.034062
-1.815658 6.884962 1.392666 -0.164855
-2.114347 7.756872 1.550144 0.195278
-2.499328 6.753152 1.168633 -0.129888
-3.501628 7.015744 0.965417 -0.277230
-2.842764 7.492055 1.277278 0.018955
-2.884872 6.473594 0.985913 -0.273923
-2.539468 7.362749 1.325077 0.118635
4.223451 11.149910 4.223451 1.622804
4.168534 11.004929 4.168534 0.969908
-0.172162 9.147613 2.465783 0.609478
0.070453 9.625612 2.663754 1.789981
4.145221 10.943384 4.145221 0.000000
1.244900 9.590324 2.976710 -0.029241
4.163691 10.992143 4.163691 0.457100
1.387563 9.944974 3.113334 0.476611
-2.294141 7.047387 1.305837 -0.011365
-1.592460 7.989783 1.757506 0.087640
-1.105177 8.225213 1.956054 -0.047186
-1.994647 7.835867 1.604731 0.129910
1.001312 9.807709 2.969511 1.078688
-0.873667 8.812113 2.180892 0.312623
-1.303068 8.710507 2.035011 0.678247
0.869574 9.468603 2.840159 0.330380
4.145221 10.943384 4.145221 0.000000
4.163691 10.992143 4.163691 -0.457100
1.244900 9.590324 2.976710 0.029241
1.387563 9.944974 3.113334 -0.476611
4.223451 11.149910 4.223451 -1.622804
-0.172162 9.147613 2.465783 -0.609478
4.168534 11.004929 4.168534 -0.969908
0.070453 9.625612 2.663754 -1.789981
-2.294141 7.047387 1.305837 0.011365
-1.105177 8.225213 1.956054 0.047186
-1.592460 7.989783 1.757506 -0.087640
-1.994647 7.835867 1.604731 -0.129910
1.001312 9.807709 2.969511 -1.078688
-1.303068 8.710507 2.035011 -0.678247
-0.873667 8.812113 2.180892 -0.312623
0.869574 9.468603 2.840159 -0.330380
-1.571205 10.660503 2.497060 -2.402911
-3.074572 7.623798 1.249787 -0.571798
-2.365420 8.486851 1.681712 -0.920575
-3.574996 8.244798 1.282913 -0.247667
-1.220038 6.165310 1.358591 0.145659
-1.713851 6.615286 1.346548 0.272341
-2.445916 6.607906 1.143404 -0.036330
-2.544724 6.293104 1.029775 0.343750
-1.792391 7.025416 1.437644 -0.034062
-2.114347 7.756872 1.550144 -0.195278
-1.815658 6.884962 1.392666 0.164855
-2.499328 6.753152 1.168633 0.129888
-3.501628 7.015744 0.965417 0.277230
-2.884872 6.473594 0.985913 0.273923
-2.842764 7.492055 1.277278 -0.018955
-2.539468 7.362749 1.325077 -0.118635
-1.389114 5.611556 1.160011 0.281664
-1.053242 4.693349 1.000029 0.335769
-2.156941 5.381935 0.885987 0.550431
-0.640653 6.053829 1.487136 0.044941
-0.421818 1.702993 0.351971 0.072057
-0.975845 2.978763 0.550252 0.370047
-0.567645 3.503333 0.806508 0.277371
0.255483 3.497155 1.030945 0.110023
-2.325126 5.590486 0.897077 0.114426
-2.339807 5.480057 0.862706 0.433741
-1.722462 4.310753 0.711069 0.400773
-1.074984 6.062273 1.370135 0.128340
-0.071469 4.990302 1.351328 0.094051
-0.286644 4.886549 1.263710 0.170737
-0.891851 6.059164 1.419591 0.191764
-1.489404 4.368454 0.790948 0.490449

