# vtk DataFile Version 2.0
Unstructured Grid Example
ASCII
DATASET UNSTRUCTURED_GRID

POINTS 256 float
0.000000 0.000000 0.000000 
0.007812 0.000000 0.000000 
0.007812 0.000000 0.000000 
0.015625 0.000000 0.000000 
0.015625 0.000000 0.000000 
0.023438 0.000000 0.000000 
0.023438 0.000000 0.000000 
0.031250 0.000000 0.000000 
0.046875 0.000000 0.000000 
0.054688 0.000000 0.000000 
0.054688 0.000000 0.000000 
0.062500 0.000000 0.000000 
0.031250 0.000000 0.000000 
0.039062 0.000000 0.000000 
0.039062 0.000000 0.000000 
0.046875 0.000000 0.000000 
0.109375 0.000000 0.000000 
0.117188 0.000000 0.000000 
0.117188 0.000000 0.000000 
0.125000 0.000000 0.000000 
0.093750 0.000000 0.000000 
0.101562 0.000000 0.000000 
0.101562 0.000000 0.000000 
0.109375 0.000000 0.000000 
0.062500 0.000000 0.000000 
0.070312 0.000000 0.000000 
0.070312 0.000000 0.000000 
0.078125 0.000000 0.000000 
0.078125 0.000000 0.000000 
0.085938 0.000000 0.000000 
0.085938 0.000000 0.000000 
0.093750 0.000000 0.000000 
0.234375 -16.846693 0.000000 
0.242188 -12.826801 0.000000 
0.242188 -15.235614 0.000000 
0.250000 -12.029068 0.000000 
0.218750 -124.552807 0.000000 
0.226562 43.630593 0.000000 
0.226562 -9.354352 0.000000 
0.234375 -18.582918 0.000000 
0.187500 0.000000 0.000000 
0.195312 0.000000 0.000000 
0.195312 0.000000 0.000000 
0.203125 0.000000 0.000000 
0.203125 0.000000 0.000000 
0.210938 0.000000 0.000000 
0.210938 68.491674 0.000000 
0.218750 -136.983348 0.000000 
0.125000 0.000000 0.000000 
0.132812 0.000000 0.000000 
0.132812 0.000000 0.000000 
0.140625 0.000000 0.000000 
0.140625 0.000000 0.000000 
0.148438 0.000000 0.000000 
0.148438 0.000000 0.000000 
0.156250 0.000000 0.000000 
0.171875 0.000000 0.000000 
0.179688 0.000000 0.000000 
0.179688 0.000000 0.000000 
0.187500 0.000000 0.000000 
0.156250 0.000000 0.000000 
0.164062 0.000000 0.000000 
0.164062 0.000000 0.000000 
0.171875 0.000000 0.000000 
0.484375 -8.498523 0.000000 
0.492188 -8.491475 0.000000 
0.492188 -8.516213 0.000000 
0.500000 -8.449046 0.000000 
0.468750 -8.518880 0.000000 
0.476562 -8.493254 0.000000 
0.476562 -8.507418 0.000000 
0.484375 -8.490551 0.000000 
0.437500 -8.594481 0.000000 
0.445312 -8.532876 0.000000 
0.445312 -8.570758 0.000000 
0.453125 -8.518717 0.000000 
0.453125 -8.550384 0.000000 
0.460938 -8.507423 0.000000 
0.460938 -8.533149 0.000000 
0.468750 -8.498932 0.000000 
0.375000 -8.948158 0.000000 
0.382812 -8.772759 0.000000 
0.382812 -8.883047 0.000000 
0.390625 -8.727582 0.000000 
0.390625 -8.825320 0.000000 
0.398438 -8.687572 0.000000 
0.398438 -8.774118 0.000000 
0.406250 -8.652229 0.000000 
0.421875 -8.653036 0.000000 
0.429688 -8.570296 0.000000 
0.429688 -8.621806 0.000000 
0.437500 -8.550016 0.000000 
0.406250 -8.728723 0.000000 
0.414062 -8.621129 0.000000 
0.414062 -8.688532 0.000000 
0.421875 -8.593918 0.000000 
0.250000 -13.907032 0.000000 
0.257812 -11.479685 0.000000 
0.257812 -12.912872 0.000000 
0.265625 -11.040659 0.000000 
0.265625 -12.157539 0.000000 
0.273438 -10.679111 0.000000 
0.273438 -11.569181 0.000000 
0.281250 -10.377400 0.000000 
0.296875 -10.406036 0.000000 
0.304688 -9.721352 0.000000 
0.304688 -10.143700 0.000000 
0.312500 -9.561340 0.000000 
0.281250 -11.100460 0.000000 
0.289062 -10.123061 0.000000 
0.289062 -10.719913 0.000000 
0.296875 -9.906755 0.000000 
0.359375 -9.104862 0.000000 
0.367188 -8.881099 0.000000 
0.367188 -9.021682 0.000000 
0.375000 -8.823696 0.000000 
0.343750 -9.306582 0.000000 
0.351562 -9.018823 0.000000 
0.351562 -9.199211 0.000000 
0.359375 -8.945806 0.000000 
0.312500 -9.921983 0.000000 
0.320312 -9.422413 0.000000 
0.320312 -9.732822 0.000000 
0.328125 -9.301166 0.000000 
0.328125 -9.570137 0.000000 
0.335938 -9.194879 0.000000 
0.335938 -9.429268 0.000000 
0.343750 -9.101360 0.000000 
0.500000 -8.449046 0.000000 
0.507812 -8.516213 0.000000 
0.507812 -8.491475 0.000000 
0.515625 -8.498523 0.000000 
0.515625 -8.490551 0.000000 
0.523438 -8.507418 0.000000 
0.523438 -8.493254 0.000000 
0.531250 -8.518880 0.000000 
0.546875 -8.518717 0.000000 
0.554688 -8.570758 0.000000 
0.554688 -8.532876 0.000000 
0.562500 -8.594481 0.000000 
0.531250 -8.498932 0.000000 
0.539062 -8.533149 0.000000 
0.539062 -8.507423 0.000000 
0.546875 -8.550384 0.000000 
0.609375 -8.727582 0.000000 
0.617188 -8.883047 0.000000 
0.617188 -8.772759 0.000000 
0.625000 -8.948158 0.000000 
0.593750 -8.652229 0.000000 
0.601562 -8.774118 0.000000 
0.601562 -8.687572 0.000000 
0.609375 -8.825320 0.000000 
0.562500 -8.550016 0.000000 
0.570312 -8.621806 0.000000 
0.570312 -8.570296 0.000000 
0.578125 -8.653036 0.000000 
0.578125 -8.593918 0.000000 
0.585938 -8.688532 0.000000 
0.585938 -8.621129 0.000000 
0.593750 -8.728723 0.000000 
0.734375 -11.040659 0.000000 
0.742188 -12.912872 0.000000 
0.742188 -11.479685 0.000000 
0.750000 -13.907032 0.000000 
0.718750 -10.377400 0.000000 
0.726562 -11.569181 0.000000 
0.726562 -10.679111 0.000000 
0.734375 -12.157539 0.000000 
0.687500 -9.561340 0.000000 
0.695312 -10.143700 0.000000 
0.695312 -9.721352 0.000000 
0.703125 -10.406036 0.000000 
0.703125 -9.906755 0.000000 
0.710938 -10.719913 0.000000 
0.710938 -10.123061 0.000000 
0.718750 -11.100460 0.000000 
0.625000 -8.823696 0.000000 
0.632812 -9.021682 0.000000 
0.632812 -8.881099 0.000000 
0.640625 -9.104862 0.000000 
0.640625 -8.945806 0.000000 
0.648438 -9.199211 0.000000 
0.648438 -9.018823 0.000000 
0.656250 -9.306582 0.000000 
0.671875 -9.301166 0.000000 
0.679688 -9.732822 0.000000 
0.679688 -9.422413 0.000000 
0.687500 -9.921983 0.000000 
0.656250 -9.101360 0.000000 
0.664062 -9.429268 0.000000 
0.664062 -9.194879 0.000000 
0.671875 -9.570137 0.000000 
0.984375 0.000000 0.000000 
0.992188 0.000000 0.000000 
0.992188 0.000000 0.000000 
1.000000 0.000000 0.000000 
0.968750 0.000000 0.000000 
0.976562 0.000000 0.000000 
0.976562 0.000000 0.000000 
0.984375 0.000000 0.000000 
0.937500 0.000000 0.000000 
0.945312 0.000000 0.000000 
0.945312 0.000000 0.000000 
0.953125 0.000000 0.000000 
0.953125 0.000000 0.000000 
0.960938 0.000000 0.000000 
0.960938 0.000000 0.000000 
0.968750 0.000000 0.000000 
0.875000 0.000000 0.000000 
0.882812 0.000000 0.000000 
0.882812 0.000000 0.000000 
0.890625 0.000000 0.000000 
0.890625 0.000000 0.000000 
0.898438 0.000000 0.000000 
0.898438 0.000000 0.000000 
0.906250 0.000000 0.000000 
0.921875 0.000000 0.000000 
0.929688 0.000000 0.000000 
0.929688 0.000000 0.000000 
0.937500 0.000000 0.000000 
0.906250 0.000000 0.000000 
0.914062 0.000000 0.000000 
0.914062 0.000000 0.000000 
0.921875 0.000000 0.000000 
0.750000 -12.029068 0.000000 
0.757812 -15.235614 0.000000 
0.757812 -12.826801 0.000000 
0.765625 -16.846693 0.000000 
0.765625 -18.582918 0.000000 
0.773438 -9.354352 0.000000 
0.773438 43.630593 0.000000 
0.781250 -124.552807 0.000000 
0.796875 0.000000 0.000000 
0.804688 0.000000 0.000000 
0.804688 0.000000 0.000000 
0.812500 0.000000 0.000000 
0.781250 -136.983348 0.000000 
0.789062 68.491674 0.000000 
0.789062 0.000000 0.000000 
0.796875 0.000000 0.000000 
0.859375 0.000000 0.000000 
0.867188 0.000000 0.000000 
0.867188 0.000000 0.000000 
0.875000 0.000000 0.000000 
0.843750 0.000000 0.000000 
0.851562 0.000000 0.000000 
0.851562 0.000000 0.000000 
0.859375 0.000000 0.000000 
0.812500 0.000000 0.000000 
0.820312 0.000000 0.000000 
0.820312 0.000000 0.000000 
0.828125 0.000000 0.000000 
0.828125 0.000000 0.000000 
0.835938 0.000000 0.000000 
0.835938 0.000000 0.000000 
0.843750 0.000000 0.000000 

CELLS 128 384
2  0 1 
2  2 3 
2  4 5 
2  6 7 
2  8 9 
2  10 11 
2  12 13 
2  14 15 
2  16 17 
2  18 19 
2  20 21 
2  22 23 
2  24 25 
2  26 27 
2  28 29 
2  30 31 
2  32 33 
2  34 35 
2  36 37 
2  38 39 
2  40 41 
2  42 43 
2  44 45 
2  46 47 
2  48 49 
2  50 51 
2  52 53 
2  54 55 
2  56 57 
2  58 59 
2  60 61 
2  62 63 
2  64 65 
2  66 67 
2  68 69 
2  70 71 
2  72 73 
2  74 75 
2  76 77 
2  78 79 
2  80 81 
2  82 83 
2  84 85 
2  86 87 
2  88 89 
2  90 91 
2  92 93 
2  94 95 
2  96 97 
2  98 99 
2  100 101 
2  102 103 
2  104 105 
2  106 107 
2  108 109 
2  110 111 
2  112 113 
2  114 115 
2  116 117 
2  118 119 
2  120 121 
2  122 123 
2  124 125 
2  126 127 
2  128 129 
2  130 131 
2  132 133 
2  134 135 
2  136 137 
2  138 139 
2  140 141 
2  142 143 
2  144 145 
2  146 147 
2  148 149 
2  150 151 
2  152 153 
2  154 155 
2  156 157 
2  158 159 
2  160 161 
2  162 163 
2  164 165 
2  166 167 
2  168 169 
2  170 171 
2  172 173 
2  174 175 
2  176 177 
2  178 179 
2  180 181 
2  182 183 
2  184 185 
2  186 187 
2  188 189 
2  190 191 
2  192 193 
2  194 195 
2  196 197 
2  198 199 
2  200 201 
2  202 203 
2  204 205 
2  206 207 
2  208 209 
2  210 211 
2  212 213 
2  214 215 
2  216 217 
2  218 219 
2  220 221 
2  222 223 
2  224 225 
2  226 227 
2  228 229 
2  230 231 
2  232 233 
2  234 235 
2  236 237 
2  238 239 
2  240 241 
2  242 243 
2  244 245 
2  246 247 
2  248 249 
2  250 251 
2  252 253 
2  254 255 

CELL_TYPES 128
3
3
3
3
3
3
3
3
3
3
3
3
3
3
3
3
3
3
3
3
3
3
3
3
3
3
3
3
3
3
3
3
3
3
3
3
3
3
3
3
3
3
3
3
3
3
3
3
3
3
3
3
3
3
3
3
3
3
3
3
3
3
3
3
3
3
3
3
3
3
3
3
3
3
3
3
3
3
3
3
3
3
3
3
3
3
3
3
3
3
3
3
3
3
3
3
3
3
3
3
3
3
3
3
3
3
3
3
3
3
3
3
3
3
3
3
3
3
3
3
3
3
3
3
3
3
3
3

POINT_DATA 256

SCALARS lambda_h float 1
LOOKUP_TABLE default
0.000000 
0.000000 
0.000000 
0.000000 
0.000000 
0.000000 
0.000000 
0.000000 
0.000000 
0.000000 
0.000000 
0.000000 
0.000000 
0.000000 
0.000000 
0.000000 
0.000000 
0.000000 
0.000000 
0.000000 
0.000000 
0.000000 
0.000000 
0.000000 
0.000000 
0.000000 
0.000000 
0.000000 
0.000000 
0.000000 
0.000000 
0.000000 
-16.846693 
-12.826801 
-15.235614 
-12.029068 
-124.552807 
43.630593 
-9.354352 
-18.582918 
0.000000 
0.000000 
0.000000 
0.000000 
0.000000 
0.000000 
68.491674 
-136.983348 
0.000000 
0.000000 
0.000000 
0.000000 
0.000000 
0.000000 
0.000000 
0.000000 
0.000000 
0.000000 
0.000000 
0.000000 
0.000000 
0.000000 
0.000000 
0.000000 
-8.498523 
-8.491475 
-8.516213 
-8.449046 
-8.518880 
-8.493254 
-8.507418 
-8.490551 
-8.594481 
-8.532876 
-8.570758 
-8.518717 
-8.550384 
-8.507423 
-8.533149 
-8.498932 
-8.948158 
-8.772759 
-8.883047 
-8.727582 
-8.825320 
-8.687572 
-8.774118 
-8.652229 
-8.653036 
-8.570296 
-8.621806 
-8.550016 
-8.728723 
-8.621129 
-8.688532 
-8.593918 
-13.907032 
-11.479685 
-12.912872 
-11.040659 
-12.157539 
-10.679111 
-11.569181 
-10.377400 
-10.406036 
-9.721352 
-10.143700 
-9.561340 
-11.100460 
-10.123061 
-10.719913 
-9.906755 
-9.104862 
-8.881099 
-9.021682 
-8.823696 
-9.306582 
-9.018823 
-9.199211 
-8.945806 
-9.921983 
-9.422413 
-9.732822 
-9.301166 
-9.570137 
-9.194879 
-9.429268 
-9.101360 
-8.449046 
-8.516213 
-8.491475 
-8.498523 
-8.490551 
-8.507418 
-8.493254 
-8.518880 
-8.518717 
-8.570758 
-8.532876 
-8.594481 
-8.498932 
-8.533149 
-8.507423 
-8.550384 
-8.727582 
-8.883047 
-8.772759 
-8.948158 
-8.652229 
-8.774118 
-8.687572 
-8.825320 
-8.550016 
-8.621806 
-8.570296 
-8.653036 
-8.593918 
-8.688532 
-8.621129 
-8.728723 
-11.040659 
-12.912872 
-11.479685 
-13.907032 
-10.377400 
-11.569181 
-10.679111 
-12.157539 
-9.561340 
-10.143700 
-9.721352 
-10.406036 
-9.906755 
-10.719913 
-10.123061 
-11.100460 
-8.823696 
-9.021682 
-8.881099 
-9.104862 
-8.945806 
-9.199211 
-9.018823 
-9.306582 
-9.301166 
-9.732822 
-9.422413 
-9.921983 
-9.101360 
-9.429268 
-9.194879 
-9.570137 
0.000000 
0.000000 
0.000000 
0.000000 
0.000000 
0.000000 
0.000000 
0.000000 
0.000000 
0.000000 
0.000000 
0.000000 
0.000000 
0.000000 
0.000000 
0.000000 
0.000000 
0.000000 
0.000000 
0.000000 
0.000000 
0.000000 
0.000000 
0.000000 
0.000000 
0.000000 
0.000000 
0.000000 
0.000000 
0.000000 
0.000000 
0.000000 
-12.029068 
-15.235614 
-12.826801 
-16.846693 
-18.582918 
-9.354352 
43.630593 
-124.552807 
0.000000 
0.000000 
0.000000 
0.000000 
-136.983348 
68.491674 
0.000000 
0.000000 
0.000000 
0.000000 
0.000000 
0.000000 
0.000000 
0.000000 
0.000000 
0.000000 
0.000000 
0.000000 
0.000000 
0.000000 
0.000000 
0.000000 
0.000000 
0.000000 

