# vtk DataFile Version 2.0
Unstructured Grid Example
ASCII
DATASET UNSTRUCTURED_GRID

POINTS 128 float
0.000000 0.000000 0.000000 
0.015625 0.000000 0.000000 
0.015625 0.000000 0.000000 
0.031250 0.000000 0.000000 
0.031250 0.000000 0.000000 
0.046875 0.000000 0.000000 
0.046875 0.000000 0.000000 
0.062500 0.000000 0.000000 
0.093750 0.000000 0.000000 
0.109375 0.000000 0.000000 
0.109375 0.000000 0.000000 
0.125000 0.000000 0.000000 
0.062500 0.000000 0.000000 
0.078125 0.000000 0.000000 
0.078125 0.000000 0.000000 
0.093750 0.000000 0.000000 
0.218750 36.882691 0.000000 
0.234375 -73.765383 0.000000 
0.234375 -56.824868 0.000000 
0.250000 3.001662 0.000000 
0.187500 0.000000 0.000000 
0.203125 0.000000 0.000000 
0.203125 0.000000 0.000000 
0.218750 0.000000 0.000000 
0.125000 0.000000 0.000000 
0.140625 0.000000 0.000000 
0.140625 0.000000 0.000000 
0.156250 0.000000 0.000000 
0.156250 0.000000 0.000000 
0.171875 0.000000 0.000000 
0.171875 0.000000 0.000000 
0.187500 0.000000 0.000000 
0.468750 -8.658164 0.000000 
0.484375 -8.614996 0.000000 
0.484375 -8.665209 0.000000 
0.500000 -8.557739 0.000000 
0.437500 -8.773009 0.000000 
0.453125 -8.627035 0.000000 
0.453125 -8.707612 0.000000 
0.468750 -8.611857 0.000000 
0.375000 -9.283507 0.000000 
0.390625 -8.847288 0.000000 
0.390625 -9.106190 0.000000 
0.406250 -8.765704 0.000000 
0.406250 -8.967178 0.000000 
0.421875 -8.703242 0.000000 
0.421875 -8.858090 0.000000 
0.437500 -8.657482 0.000000 
0.250000 -20.493840 0.000000 
0.265625 -9.833864 0.000000 
0.265625 -14.954608 0.000000 
0.281250 -10.252353 0.000000 
0.281250 -12.726411 0.000000 
0.296875 -10.006492 0.000000 
0.296875 -11.514349 0.000000 
0.312500 -9.710696 0.000000 
0.343750 -9.807718 0.000000 
0.359375 -9.083181 0.000000 
0.359375 -9.511286 0.000000 
0.375000 -8.951508 0.000000 
0.312500 -10.740068 0.000000 
0.328125 -9.455607 0.000000 
0.328125 -10.201315 0.000000 
0.343750 -9.248651 0.000000 
0.500000 -8.557739 0.000000 
0.515625 -8.665209 0.000000 
0.515625 -8.614996 0.000000 
0.531250 -8.658164 0.000000 
0.531250 -8.611857 0.000000 
0.546875 -8.707612 0.000000 
0.546875 -8.627035 0.000000 
0.562500 -8.773009 0.000000 
0.593750 -8.765704 0.000000 
0.609375 -9.106190 0.000000 
0.609375 -8.847288 0.000000 
0.625000 -9.283507 0.000000 
0.562500 -8.657482 0.000000 
0.578125 -8.858090 0.000000 
0.578125 -8.703242 0.000000 
0.593750 -8.967178 0.000000 
0.718750 -10.252353 0.000000 
0.734375 -14.954608 0.000000 
0.734375 -9.833864 0.000000 
0.750000 -20.493840 0.000000 
0.687500 -9.710696 0.000000 
0.703125 -11.514349 0.000000 
0.703125 -10.006492 0.000000 
0.718750 -12.726411 0.000000 
0.625000 -8.951508 0.000000 
0.640625 -9.511286 0.000000 
0.640625 -9.083181 0.000000 
0.656250 -9.807718 0.000000 
0.656250 -9.248651 0.000000 
0.671875 -10.201315 0.000000 
0.671875 -9.455607 0.000000 
0.687500 -10.740068 0.000000 
0.968750 0.000000 0.000000 
0.984375 0.000000 0.000000 
0.984375 0.000000 0.000000 
1.000000 0.000000 0.000000 
0.937500 0.000000 0.000000 
0.953125 0.000000 0.000000 
0.953125 0.000000 0.000000 
0.968750 0.000000 0.000000 
0.875000 0.000000 0.000000 
0.890625 0.000000 0.000000 
0.890625 0.000000 0.000000 
0.906250 0.000000 0.000000 
0.906250 0.000000 0.000000 
0.921875 0.000000 0.000000 
0.921875 0.000000 0.000000 
0.937500 0.000000 0.000000 
0.750000 3.001662 0.000000 
0.765625 -56.824868 0.000000 
0.765625 -73.765383 0.000000 
0.781250 36.882691 0.000000 
0.781250 0.000000 0.000000 
0.796875 0.000000 0.000000 
0.796875 0.000000 0.000000 
0.812500 0.000000 0.000000 
0.843750 0.000000 0.000000 
0.859375 0.000000 0.000000 
0.859375 0.000000 0.000000 
0.875000 0.000000 0.000000 
0.812500 0.000000 0.000000 
0.828125 0.000000 0.000000 
0.828125 0.000000 0.000000 
0.843750 0.000000 0.000000 

CELLS 64 192
2  0 1 
2  2 3 
2  4 5 
2  6 7 
2  8 9 
2  10 11 
2  12 13 
2  14 15 
2  16 17 
2  18 19 
2  20 21 
2  22 23 
2  24 25 
2  26 27 
2  28 29 
2  30 31 
2  32 33 
2  34 35 
2  36 37 
2  38 39 
2  40 41 
2  42 43 
2  44 45 
2  46 47 
2  48 49 
2  50 51 
2  52 53 
2  54 55 
2  56 57 
2  58 59 
2  60 61 
2  62 63 
2  64 65 
2  66 67 
2  68 69 
2  70 71 
2  72 73 
2  74 75 
2  76 77 
2  78 79 
2  80 81 
2  82 83 
2  84 85 
2  86 87 
2  88 89 
2  90 91 
2  92 93 
2  94 95 
2  96 97 
2  98 99 
2  100 101 
2  102 103 
2  104 105 
2  106 107 
2  108 109 
2  110 111 
2  112 113 
2  114 115 
2  116 117 
2  118 119 
2  120 121 
2  122 123 
2  124 125 
2  126 127 

CELL_TYPES 64
3
3
3
3
3
3
3
3
3
3
3
3
3
3
3
3
3
3
3
3
3
3
3
3
3
3
3
3
3
3
3
3
3
3
3
3
3
3
3
3
3
3
3
3
3
3
3
3
3
3
3
3
3
3
3
3
3
3
3
3
3
3
3
3

POINT_DATA 128

SCALARS lambda_h float 1
LOOKUP_TABLE default
0.000000 
0.000000 
0.000000 
0.000000 
0.000000 
0.000000 
0.000000 
0.000000 
0.000000 
0.000000 
0.000000 
0.000000 
0.000000 
0.000000 
0.000000 
0.000000 
36.882691 
-73.765383 
-56.824868 
3.001662 
0.000000 
0.000000 
0.000000 
0.000000 
0.000000 
0.000000 
0.000000 
0.000000 
0.000000 
0.000000 
0.000000 
0.000000 
-8.658164 
-8.614996 
-8.665209 
-8.557739 
-8.773009 
-8.627035 
-8.707612 
-8.611857 
-9.283507 
-8.847288 
-9.106190 
-8.765704 
-8.967178 
-8.703242 
-8.858090 
-8.657482 
-20.493840 
-9.833864 
-14.954608 
-10.252353 
-12.726411 
-10.006492 
-11.514349 
-9.710696 
-9.807718 
-9.083181 
-9.511286 
-8.951508 
-10.740068 
-9.455607 
-10.201315 
-9.248651 
-8.557739 
-8.665209 
-8.614996 
-8.658164 
-8.611857 
-8.707612 
-8.627035 
-8.773009 
-8.765704 
-9.106190 
-8.847288 
-9.283507 
-8.657482 
-8.858090 
-8.703242 
-8.967178 
-10.252353 
-14.954608 
-9.833864 
-20.493840 
-9.710696 
-11.514349 
-10.006492 
-12.726411 
-8.951508 
-9.511286 
-9.083181 
-9.807718 
-9.248651 
-10.201315 
-9.455607 
-10.740068 
0.000000 
0.000000 
0.000000 
0.000000 
0.000000 
0.000000 
0.000000 
0.000000 
0.000000 
0.000000 
0.000000 
0.000000 
0.000000 
0.000000 
0.000000 
0.000000 
3.001662 
-56.824868 
-73.765383 
36.882691 
0.000000 
0.000000 
0.000000 
0.000000 
0.000000 
0.000000 
0.000000 
0.000000 
0.000000 
0.000000 
0.000000 
0.000000 

