# vtk DataFile Version 2.0
Unstructured Grid Example
ASCII
DATASET UNSTRUCTURED_GRID

POINTS 64 float
0.000000 0.000000 0.000000 
0.031250 0.000000 0.000000 
0.031250 0.000000 0.000000 
0.062500 0.000000 0.000000 
0.062500 0.000000 0.000000 
0.093750 0.000000 0.000000 
0.093750 0.000000 0.000000 
0.125000 0.000000 0.000000 
0.187500 0.000000 0.000000 
0.218750 0.000000 0.000000 
0.218750 26.853402 0.000000 
0.250000 -53.706804 0.000000 
0.125000 0.000000 0.000000 
0.156250 0.000000 0.000000 
0.156250 0.000000 0.000000 
0.187500 0.000000 0.000000 
0.437500 -8.881848 0.000000 
0.468750 -8.639097 0.000000 
0.468750 -8.764086 0.000000 
0.500000 -8.631869 0.000000 
0.375000 -9.549382 0.000000 
0.406250 -8.682867 0.000000 
0.406250 -9.142479 0.000000 
0.437500 -8.630157 0.000000 
0.250000 -40.712424 0.000000 
0.281250 0.864641 0.000000 
0.281250 -15.300526 0.000000 
0.312500 -8.382090 0.000000 
0.312500 -11.624540 0.000000 
0.343750 -8.815625 0.000000 
0.343750 -10.243316 0.000000 
0.375000 -8.769157 0.000000 
0.500000 -8.631869 0.000000 
0.531250 -8.764086 0.000000 
0.531250 -8.639097 0.000000 
0.562500 -8.881848 0.000000 
0.562500 -8.630157 0.000000 
0.593750 -9.142479 0.000000 
0.593750 -8.682867 0.000000 
0.625000 -9.549382 0.000000 
0.687500 -8.382090 0.000000 
0.718750 -15.300526 0.000000 
0.718750 0.864641 0.000000 
0.750000 -40.712424 0.000000 
0.625000 -8.769157 0.000000 
0.656250 -10.243316 0.000000 
0.656250 -8.815625 0.000000 
0.687500 -11.624540 0.000000 
0.937500 0.000000 0.000000 
0.968750 0.000000 0.000000 
0.968750 0.000000 0.000000 
1.000000 0.000000 0.000000 
0.875000 0.000000 0.000000 
0.906250 0.000000 0.000000 
0.906250 0.000000 0.000000 
0.937500 0.000000 0.000000 
0.750000 -53.706804 0.000000 
0.781250 26.853402 0.000000 
0.781250 0.000000 0.000000 
0.812500 0.000000 0.000000 
0.812500 0.000000 0.000000 
0.843750 0.000000 0.000000 
0.843750 0.000000 0.000000 
0.875000 0.000000 0.000000 

CELLS 32 96
2  0 1 
2  2 3 
2  4 5 
2  6 7 
2  8 9 
2  10 11 
2  12 13 
2  14 15 
2  16 17 
2  18 19 
2  20 21 
2  22 23 
2  24 25 
2  26 27 
2  28 29 
2  30 31 
2  32 33 
2  34 35 
2  36 37 
2  38 39 
2  40 41 
2  42 43 
2  44 45 
2  46 47 
2  48 49 
2  50 51 
2  52 53 
2  54 55 
2  56 57 
2  58 59 
2  60 61 
2  62 63 

CELL_TYPES 32
3
3
3
3
3
3
3
3
3
3
3
3
3
3
3
3
3
3
3
3
3
3
3
3
3
3
3
3
3
3
3
3

POINT_DATA 64

SCALARS lambda_h float 1
LOOKUP_TABLE default
0.000000 
0.000000 
0.000000 
0.000000 
0.000000 
0.000000 
0.000000 
0.000000 
0.000000 
0.000000 
26.853402 
-53.706804 
0.000000 
0.000000 
0.000000 
0.000000 
-8.881848 
-8.639097 
-8.764086 
-8.631869 
-9.549382 
-8.682867 
-9.142479 
-8.630157 
-40.712424 
0.864641 
-15.300526 
-8.382090 
-11.624540 
-8.815625 
-10.243316 
-8.769157 
-8.631869 
-8.764086 
-8.639097 
-8.881848 
-8.630157 
-9.142479 
-8.682867 
-9.549382 
-8.382090 
-15.300526 
0.864641 
-40.712424 
-8.769157 
-10.243316 
-8.815625 
-11.624540 
0.000000 
0.000000 
0.000000 
0.000000 
0.000000 
0.000000 
0.000000 
0.000000 
-53.706804 
26.853402 
0.000000 
0.000000 
0.000000 
0.000000 
0.000000 
0.000000 

