# vtk DataFile Version 2.0
Unstructured Grid Example
ASCII
DATASET UNSTRUCTURED_GRID

POINTS 16 float
0.000000 0.000000 0.000000 
0.125000 0.000000 0.000000 
0.125000 0.000000 0.000000 
0.250000 0.000000 0.000000 
0.250000 15.776863 0.000000 
0.375000 -31.553726 0.000000 
0.375000 -20.814875 0.000000 
0.500000 -5.700838 0.000000 
0.500000 -5.700838 0.000000 
0.625000 -20.814875 0.000000 
0.625000 -31.553726 0.000000 
0.750000 15.776863 0.000000 
0.750000 0.000000 0.000000 
0.875000 0.000000 0.000000 
0.875000 0.000000 0.000000 
1.000000 0.000000 0.000000 

CELLS 8 24
2  0 1 
2  2 3 
2  4 5 
2  6 7 
2  8 9 
2  10 11 
2  12 13 
2  14 15 

CELL_TYPES 8
3
3
3
3
3
3
3
3

POINT_DATA 16

SCALARS lambda_h float 1
LOOKUP_TABLE default
0.000000 
0.000000 
0.000000 
0.000000 
15.776863 
-31.553726 
-20.814875 
-5.700838 
-5.700838 
-20.814875 
-31.553726 
15.776863 
0.000000 
0.000000 
0.000000 
0.000000 

