# vtk DataFile Version 2.0
Unstructured Grid Example
ASCII
DATASET UNSTRUCTURED_GRID

POINTS 32 float
0.000000 0.000000 0.000000 
0.062500 0.000000 0.000000 
0.062500 0.000000 0.000000 
0.125000 0.000000 0.000000 
0.125000 0.000000 0.000000 
0.187500 0.000000 0.000000 
0.187500 31.224872 0.000000 
0.250000 -62.449744 0.000000 
0.375000 -7.481000 0.000000 
0.437500 -8.230754 0.000000 
0.437500 -8.082935 0.000000 
0.500000 -7.776637 0.000000 
0.250000 -58.996083 0.000000 
0.312500 24.317549 0.000000 
0.312500 0.823595 0.000000 
0.375000 -12.008174 0.000000 
0.500000 -7.776637 0.000000 
0.562500 -8.082935 0.000000 
0.562500 -8.230754 0.000000 
0.625000 -7.481000 0.000000 
0.625000 -12.008174 0.000000 
0.687500 0.823595 0.000000 
0.687500 24.317549 0.000000 
0.750000 -58.996083 0.000000 
0.875000 0.000000 0.000000 
0.937500 0.000000 0.000000 
0.937500 0.000000 0.000000 
1.000000 0.000000 0.000000 
0.750000 -62.449744 0.000000 
0.812500 31.224872 0.000000 
0.812500 0.000000 0.000000 
0.875000 0.000000 0.000000 

CELLS 16 48
2  0 1 
2  2 3 
2  4 5 
2  6 7 
2  8 9 
2  10 11 
2  12 13 
2  14 15 
2  16 17 
2  18 19 
2  20 21 
2  22 23 
2  24 25 
2  26 27 
2  28 29 
2  30 31 

CELL_TYPES 16
3
3
3
3
3
3
3
3
3
3
3
3
3
3
3
3

POINT_DATA 32

SCALARS lambda_h float 1
LOOKUP_TABLE default
0.000000 
0.000000 
0.000000 
0.000000 
0.000000 
0.000000 
31.224872 
-62.449744 
-7.481000 
-8.230754 
-8.082935 
-7.776637 
-58.996083 
24.317549 
0.823595 
-12.008174 
-7.776637 
-8.082935 
-8.230754 
-7.481000 
-12.008174 
0.823595 
24.317549 
-58.996083 
0.000000 
0.000000 
0.000000 
0.000000 
-62.449744 
31.224872 
0.000000 
0.000000 

