# vtk DataFile Version 2.0
Unstructured Grid Example
ASCII
DATASET UNSTRUCTURED_GRID

POINTS 4225 float
0.023252 -0.254845 0.000000 
0.976748 -0.254845 0.000000 
1.000000 1.000000 0.000000 
0.000000 1.000000 0.000000 
0.500000 -0.100000 0.000000 
0.981821 0.323868 0.000000 
0.500000 1.000000 0.000000 
0.018179 0.323868 0.000000 
0.500000 0.330533 0.000000 
0.276357 -0.100000 0.000000 
0.500000 0.089453 0.000000 
0.234028 0.065211 0.000000 
0.723643 -0.100000 0.000000 
0.765972 0.065211 0.000000 
1.013366 0.028078 0.000000 
0.746839 0.320520 0.000000 
0.951365 0.635508 0.000000 
0.731505 0.637067 0.000000 
0.750000 1.000000 0.000000 
0.500000 0.640326 0.000000 
0.250000 1.000000 0.000000 
0.268495 0.637067 0.000000 
0.048635 0.635508 0.000000 
0.253161 0.320520 0.000000 
-0.013366 0.028078 0.000000 
0.152609 -0.216799 0.000000 
0.238697 -0.035391 0.000000 
0.112041 -0.088952 0.000000 
0.500000 -0.009127 0.000000 
0.373157 -0.012337 0.000000 
0.382243 -0.100000 0.000000 
0.369918 0.196863 0.000000 
0.367459 0.084008 0.000000 
0.500000 0.201355 0.000000 
0.617757 -0.100000 0.000000 
0.626843 -0.012337 0.000000 
0.887959 -0.088952 0.000000 
0.761303 -0.035391 0.000000 
0.847391 -0.216799 0.000000 
0.632541 0.084008 0.000000 
0.630082 0.196863 0.000000 
1.006891 -0.119166 0.000000 
0.893659 0.038717 0.000000 
0.865768 0.315422 0.000000 
0.882521 0.172372 0.000000 
1.001041 0.175380 0.000000 
0.758563 0.184752 0.000000 
0.624436 0.327686 0.000000 
0.963278 0.476384 0.000000 
0.850412 0.469070 0.000000 
0.848585 0.813079 0.000000 
0.842219 0.634571 0.000000 
0.954350 0.803799 0.000000 
0.736314 0.471606 0.000000 
0.619214 0.475821 0.000000 
0.875000 1.000000 0.000000 
0.736140 0.814716 0.000000 
0.500000 0.815538 0.000000 
0.619076 0.815302 0.000000 
0.625000 1.000000 0.000000 
0.616953 0.639384 0.000000 
0.500000 0.477634 0.000000 
0.375000 1.000000 0.000000 
0.380924 0.815302 0.000000 
0.151415 0.813079 0.000000 
0.263860 0.814716 0.000000 
0.125000 1.000000 0.000000 
0.383047 0.639384 0.000000 
0.380786 0.475821 0.000000 
0.045650 0.803799 0.000000 
0.157781 0.634571 0.000000 
0.134232 0.315422 0.000000 
0.149588 0.469070 0.000000 
0.036722 0.476384 0.000000 
0.263686 0.471606 0.000000 
0.375564 0.327686 0.000000 
-0.001041 0.175380 0.000000 
0.117479 0.172372 0.000000 
0.106341 0.038717 0.000000 
-0.006891 -0.119166 0.000000 
0.241437 0.184752 0.000000 
0.086374 -0.238172 0.000000 
0.127026 -0.153247 0.000000 
0.067174 -0.174135 0.000000 
0.250271 -0.074413 0.000000 
0.185361 -0.118398 0.000000 
0.220838 -0.178675 0.000000 
0.168540 -0.006807 0.000000 
0.172848 -0.062767 0.000000 
0.234208 0.012137 0.000000 
0.500000 -0.055477 0.000000 
0.439568 -0.055677 0.000000 
0.440788 -0.100000 0.000000 
0.434904 0.037816 0.000000 
0.437030 -0.009790 0.000000 
0.500000 0.038925 0.000000 
0.325570 -0.100000 0.000000 
0.379004 -0.056580 0.000000 
0.317329 -0.059676 0.000000 
0.436187 0.262791 0.000000 
0.434894 0.200215 0.000000 
0.500000 0.263727 0.000000 
0.300586 0.076443 0.000000 
0.368000 0.138206 0.000000 
0.302073 0.131676 0.000000 
0.500000 0.143377 0.000000 
0.434032 0.142088 0.000000 
0.433927 0.088141 0.000000 
0.307123 -0.019133 0.000000 
0.369007 0.034040 0.000000 
0.301843 0.026064 0.000000 
0.559212 -0.100000 0.000000 
0.560432 -0.055677 0.000000 
0.682671 -0.059676 0.000000 
0.620996 -0.056580 0.000000 
0.674430 -0.100000 0.000000 
0.562970 -0.009790 0.000000 
0.565096 0.037816 0.000000 
0.932826 -0.174135 0.000000 
0.872974 -0.153247 0.000000 
0.913626 -0.238172 0.000000 
0.765792 0.012137 0.000000 
0.827152 -0.062767 0.000000 
0.831460 -0.006807 0.000000 
0.779162 -0.178675 0.000000 
0.814639 -0.118398 0.000000 
0.749729 -0.074413 0.000000 
0.565106 0.200215 0.000000 
0.563813 0.262791 0.000000 
0.566073 0.088141 0.000000 
0.565968 0.142088 0.000000 
0.697927 0.131676 0.000000 
0.632000 0.138206 0.000000 
0.699414 0.076443 0.000000 
0.692877 -0.019133 0.000000 
0.698157 0.026064 0.000000 
0.630993 0.034040 0.000000 
0.993516 -0.189676 0.000000 
0.947495 -0.107153 0.000000 
0.954338 0.029951 0.000000 
0.954271 -0.038990 0.000000 
1.013358 -0.045828 0.000000 
0.893885 -0.025416 0.000000 
0.830962 0.051602 0.000000 
0.924004 0.317056 0.000000 
0.933440 0.243098 0.000000 
0.991747 0.249256 0.000000 
0.814183 0.245786 0.000000 
0.874352 0.242637 0.000000 
0.806765 0.317110 0.000000 
1.008691 0.101784 0.000000 
0.942359 0.170758 0.000000 
0.949772 0.099791 0.000000 
0.627397 0.260038 0.000000 
0.562349 0.329884 0.000000 
0.763219 0.122873 0.000000 
0.694696 0.191510 0.000000 
0.686010 0.324359 0.000000 
0.690510 0.255781 0.000000 
0.752860 0.250672 0.000000 
0.889353 0.104479 0.000000 
0.821259 0.177775 0.000000 
0.827176 0.113065 0.000000 
0.972099 0.399413 0.000000 
0.914890 0.392869 0.000000 
0.900395 0.551087 0.000000 
0.906779 0.470789 0.000000 
0.956084 0.555000 0.000000 
0.857563 0.390850 0.000000 
0.799723 0.391752 0.000000 
0.915542 0.904355 0.000000 
0.901963 0.810143 0.000000 
0.966838 0.893897 0.000000 
0.787336 0.635733 0.000000 
0.843006 0.722203 0.000000 
0.788411 0.723590 0.000000 
0.950230 0.718237 0.000000 
0.896545 0.720224 0.000000 
0.896599 0.634084 0.000000 
0.621587 0.399679 0.000000 
0.560924 0.401406 0.000000 
0.741130 0.394196 0.000000 
0.681721 0.397101 0.000000 
0.675657 0.554349 0.000000 
0.678132 0.473837 0.000000 
0.732931 0.552627 0.000000 
0.845025 0.550248 0.000000 
0.789341 0.551065 0.000000 
0.793700 0.469731 0.000000 
0.937500 1.000000 0.000000 
0.859761 0.906336 0.000000 
0.742240 0.906724 0.000000 
0.801580 0.906679 0.000000 
0.812500 1.000000 0.000000 
0.793161 0.814198 0.000000 
0.732493 0.724602 0.000000 
0.500000 0.906776 0.000000 
0.560925 0.906763 0.000000 
0.562500 1.000000 0.000000 
0.558870 0.726434 0.000000 
0.559660 0.815470 0.000000 
0.500000 0.726587 0.000000 
0.687500 1.000000 0.000000 
0.621708 0.906745 0.000000 
0.682203 0.906731 0.000000 
0.559749 0.477159 0.000000 
0.500000 0.402000 0.000000 
0.674660 0.638339 0.000000 
0.617594 0.555840 0.000000 
0.500000 0.557199 0.000000 
0.558948 0.556839 0.000000 
0.558633 0.640074 0.000000 
0.677996 0.815051 0.000000 
0.617440 0.726029 0.000000 
0.675412 0.725406 0.000000 
0.437500 1.000000 0.000000 
0.439075 0.906763 0.000000 
0.317797 0.906731 0.000000 
0.378292 0.906745 0.000000 
0.312500 1.000000 0.000000 
0.440340 0.815470 0.000000 
0.441130 0.726434 0.000000 
0.084458 0.904355 0.000000 
0.140239 0.906336 0.000000 
0.062500 1.000000 0.000000 
0.267507 0.724602 0.000000 
0.206839 0.814198 0.000000 
0.211589 0.723590 0.000000 
0.187500 1.000000 0.000000 
0.198420 0.906679 0.000000 
0.257760 0.906724 0.000000 
0.440251 0.477159 0.000000 
0.439076 0.401406 0.000000 
0.441367 0.640074 0.000000 
0.441052 0.556839 0.000000 
0.324343 0.554349 0.000000 
0.382406 0.555840 0.000000 
0.325340 0.638339 0.000000 
0.322004 0.815051 0.000000 
0.324588 0.725406 0.000000 
0.382560 0.726029 0.000000 
0.033162 0.893897 0.000000 
0.098037 0.810143 0.000000 
0.103401 0.634084 0.000000 
0.103455 0.720224 0.000000 
0.049770 0.718237 0.000000 
0.156994 0.722203 0.000000 
0.212664 0.635733 0.000000 
0.075996 0.317056 0.000000 
0.085110 0.392869 0.000000 
0.027901 0.399413 0.000000 
0.200277 0.391752 0.000000 
0.142437 0.390850 0.000000 
0.193235 0.317110 0.000000 
0.043916 0.555000 0.000000 
0.093221 0.470789 0.000000 
0.099605 0.551087 0.000000 
0.378413 0.399679 0.000000 
0.437651 0.329884 0.000000 
0.267069 0.552627 0.000000 
0.321868 0.473837 0.000000 
0.313990 0.324359 0.000000 
0.318279 0.397101 0.000000 
0.258870 0.394196 0.000000 
0.154975 0.550248 0.000000 
0.206300 0.469731 0.000000 
0.210659 0.551065 0.000000 
0.008253 0.249256 0.000000 
0.066560 0.243098 0.000000 
0.050228 0.099791 0.000000 
0.057641 0.170758 0.000000 
-0.008691 0.101784 0.000000 
0.125648 0.242637 0.000000 
0.185817 0.245786 0.000000 
0.052505 -0.107153 0.000000 
0.006484 -0.189676 0.000000 
0.169038 0.051602 0.000000 
0.106115 -0.025416 0.000000 
-0.013358 -0.045828 0.000000 
0.045729 -0.038990 0.000000 
0.045662 0.029951 0.000000 
0.372603 0.260038 0.000000 
0.247140 0.250672 0.000000 
0.309490 0.255781 0.000000 
0.305304 0.191510 0.000000 
0.236781 0.122873 0.000000 
0.110647 0.104479 0.000000 
0.172824 0.113065 0.000000 
0.178741 0.177775 0.000000 
0.054504 -0.246555 0.000000 
0.076763 -0.206679 0.000000 
0.045705 -0.214857 0.000000 
0.138803 -0.185518 0.000000 
0.107884 -0.197298 0.000000 
0.119091 -0.228637 0.000000 
0.088665 -0.132005 0.000000 
0.097313 -0.164882 0.000000 
0.118185 -0.120955 0.000000 
0.261369 -0.088175 0.000000 
0.227130 -0.116360 0.000000 
0.252663 -0.140814 0.000000 
0.209327 -0.072065 0.000000 
0.215989 -0.094595 0.000000 
0.243280 -0.056324 0.000000 
0.186726 -0.201111 0.000000 
0.198236 -0.147828 0.000000 
0.169078 -0.169810 0.000000 
0.200667 0.030283 0.000000 
0.200972 0.003031 0.000000 
0.233678 0.038063 0.000000 
0.142060 -0.076761 0.000000 
0.169966 -0.035021 0.000000 
0.138671 -0.046681 0.000000 
0.235799 -0.012427 0.000000 
0.202350 -0.023167 0.000000 
0.205020 -0.048235 0.000000 
0.156242 -0.138103 0.000000 
0.177655 -0.090359 0.000000 
0.147642 -0.107112 0.000000 
0.500000 -0.078028 0.000000 
0.470204 -0.078031 0.000000 
0.470353 -0.100000 0.000000 
0.469202 -0.032585 0.000000 
0.469787 -0.055514 0.000000 
0.500000 -0.032492 0.000000 
0.411382 -0.100000 0.000000 
0.440462 -0.078091 0.000000 
0.410822 -0.078213 0.000000 
0.467174 0.063504 0.000000 
0.467505 0.038646 0.000000 
0.500000 0.063818 0.000000 
0.405275 -0.010740 0.000000 
0.435843 0.013740 0.000000 
0.403476 0.012488 0.000000 
0.500000 0.014649 0.000000 
0.467979 0.014424 0.000000 
0.468567 -0.009287 0.000000 
0.299062 -0.100000 0.000000 
0.322908 -0.079540 0.000000 
0.293496 -0.081320 0.000000 
0.381337 -0.078427 0.000000 
0.352045 -0.078806 0.000000 
0.353537 -0.100000 0.000000 
0.344267 -0.036480 0.000000 
0.348457 -0.057628 0.000000 
0.376045 -0.034602 0.000000 
0.438339 -0.032904 0.000000 
0.407331 -0.033521 0.000000 
0.409326 -0.056001 0.000000 
[...]
POINT_DATA 4225

SCALARS u_h float 2
LOOKUP_TABLE default
0.023252 -0.254845 
-0.023252 -0.254845 
0.000000 0.000000 
0.000000 0.000000 
-0.000000 -0.100000 
-0.018179 -0.176132 
0.000000 0.000000 
0.018179 -0.176132 
-0.000000 -0.169467 
0.026357 -0.100000 
-0.000000 -0.160547 
-0.015972 -0.184789 
-0.026357 -0.100000 
0.015972 -0.184789 
0.013366 -0.221922 
-0.003161 -0.179480 
-0.048635 -0.114492 
-0.018495 -0.112933 
0.000000 0.000000 
-0.000000 -0.109674 
0.000000 0.000000 
0.018495 -0.112933 
0.048635 -0.114492 
0.003161 -0.179480 
-0.013366 -0.221922 
0.027609 -0.216799 
-0.011303 -0.160391 
-0.012959 -0.213952 
-0.000000 -0.134127 
-0.001843 -0.137337 
0.007243 -0.100000 
-0.005082 -0.178137 
-0.007541 -0.165992 
-0.000000 -0.173645 
-0.007243 -0.100000 
0.001843 -0.137337 
0.012959 -0.213952 
0.011303 -0.160391 
-0.027609 -0.216799 
0.007541 -0.165992 
0.005082 -0.178137 
0.006891 -0.244166 
0.018659 -0.211283 
-0.009232 -0.184578 
0.007521 -0.202628 
0.001041 -0.199620 
0.008563 -0.190248 
-0.000564 -0.172314 
-0.036722 -0.148616 
-0.024588 -0.155930 
-0.026415 -0.061921 
-0.032781 -0.115429 
-0.045650 -0.071201 
-0.013686 -0.153394 
-0.005786 -0.149179 
0.000000 0.000000 
-0.013860 -0.060284 
-0.000000 -0.059462 
-0.005924 -0.059698 
0.000000 0.000000 
-0.008047 -0.110616 
-0.000000 -0.147366 
0.000000 0.000000 
0.005924 -0.059698 
0.026415 -0.061921 
0.013860 -0.060284 
0.000000 0.000000 
0.008047 -0.110616 
0.005786 -0.149179 
0.045650 -0.071201 
0.032781 -0.115429 
0.009232 -0.184578 
0.024588 -0.155930 
0.036722 -0.148616 
0.013686 -0.153394 
0.000564 -0.172314 
-0.001041 -0.199620 
-0.007521 -0.202628 
-0.018659 -0.211283 
-0.006891 -0.244166 
-0.008563 -0.190248 
0.023874 -0.238172 
0.002026 -0.215747 
0.004674 -0.236635 
0.000271 -0.136913 
-0.002139 -0.180898 
0.033338 -0.178675 
-0.018960 -0.194307 
-0.014652 -0.187767 
-0.015792 -0.175363 
-0.000000 -0.117977 
0.002068 -0.118177 
0.003288 -0.100000 
-0.002596 -0.149684 
-0.000470 -0.134790 
-0.000000 -0.148575 
0.013070 -0.100000 
0.004004 -0.119080 
0.004829 -0.122176 
-0.001313 -0.174709 
-0.002606 -0.174785 
-0.000000 -0.173773 
-0.011914 -0.173557 
-0.007000 -0.174294 
-0.010427 -0.180824 
-0.000000 -0.169123 
-0.003468 -0.170412 
-0.003573 -0.161859 
-0.005377 -0.144133 
-0.005993 -0.153460 
-0.010657 -0.161436 
-0.003288 -0.100000 
-0.002068 -0.118177 
-0.004829 -0.122176 
-0.004004 -0.119080 
-0.013070 -0.100000 
0.000470 -0.134790 
0.002596 -0.149684 
-0.004674 -0.236635 
-0.002026 -0.215747 
-0.023874 -0.238172 
0.015792 -0.175363 
0.014652 -0.187767 
0.018960 -0.194307 
-0.033338 -0.178675 
0.002139 -0.180898 
-0.000271 -0.136913 
0.002606 -0.174785 
0.001313 -0.174709 
0.003573 -0.161859 
0.003468 -0.170412 
0.010427 -0.180824 
0.007000 -0.174294 
0.011914 -0.173557 
0.005377 -0.144133 
0.010657 -0.161436 
0.005993 -0.153460 
-0.006484 -0.252176 
0.009995 -0.232153 
0.016838 -0.220049 
0.016771 -0.226490 
0.013358 -0.233328 
0.018885 -0.212916 
0.018462 -0.198398 
-0.013496 -0.182944 
-0.004060 -0.194402 
-0.008253 -0.188244 
0.001683 -0.191714 
-0.000648 -0.194863 
-0.005735 -0.182890 
0.008691 -0.210716 
0.004859 -0.204242 
0.012272 -0.212709 
0.002397 -0.177462 
-0.000151 -0.170116 
0.013219 -0.189627 
0.007196 -0.183490 
-0.001490 -0.175641 
0.003010 -0.181719 
0.002860 -0.186828 
0.014353 -0.208021 
0.008759 -0.197225 
0.014676 -0.199435 
-0.027901 -0.163087 
-0.022610 -0.169631 
-0.037105 -0.136413 
-0.030721 -0.154211 
-0.043916 -0.132500 
-0.017437 -0.171650 
-0.012777 -0.170748 
-0.021958 -0.033145 
-0.035537 -0.064857 
-0.033162 -0.043603 
-0.025164 -0.114267 
-0.031994 -0.090297 
-0.024089 -0.088910 
-0.049770 -0.094263 
-0.040955 -0.092276 
-0.040901 -0.115916 
-0.003413 -0.162821 
-0.001576 -0.161094 
-0.008870 -0.168304 
-0.005779 -0.165399 
-0.011843 -0.133151 
-0.009368 -0.151163 
-0.017069 -0.134873 
-0.029975 -0.137252 
-0.023159 -0.136435 
-0.018800 -0.155269 
0.000000 0.000000 
-0.015239 -0.031164 
-0.007760 -0.030776 
-0.010920 -0.030821 
0.000000 0.000000 
-0.019339 -0.060802 
-0.017507 -0.087898 
-0.000000 -0.030724 
-0.001575 -0.030737 
0.000000 0.000000 
-0.003630 -0.086066 
-0.002840 -0.059530 
-0.000000 -0.085913 
0.000000 0.000000 
-0.003292 -0.030755 
-0.005297 -0.030769 
-0.002751 -0.147841 
-0.000000 -0.160500 
-0.012840 -0.111661 
-0.007406 -0.131660 
-0.000000 -0.130301 
-0.003552 -0.130661 
-0.003867 -0.109926 
-0.009504 -0.059949 
-0.007560 -0.086471 
-0.012088 -0.087094 
0.000000 0.000000 
0.001575 -0.030737 
0.005297 -0.030769 
0.003292 -0.030755 
0.000000 0.000000 
0.002840 -0.059530 
0.003630 -0.086066 
0.021958 -0.033145 
0.015239 -0.031164 
0.000000 0.000000 
0.017507 -0.087898 
0.019339 -0.060802 
0.024089 -0.088910 
0.000000 0.000000 
0.010920 -0.030821 
0.007760 -0.030776 
0.002751 -0.147841 
0.001576 -0.161094 
0.003867 -0.109926 
0.003552 -0.130661 
0.011843 -0.133151 
0.007406 -0.131660 
0.012840 -0.111661 
0.009504 -0.059949 
0.012088 -0.087094 
0.007560 -0.086471 
0.033162 -0.043603 
0.035537 -0.064857 
0.040901 -0.115916 
0.040955 -0.092276 
0.049770 -0.094263 
0.031994 -0.090297 
0.025164 -0.114267 
0.013496 -0.182944 
0.022610 -0.169631 
0.027901 -0.163087 
0.012777 -0.170748 
0.017437 -0.171650 
0.005735 -0.182890 
0.043916 -0.132500 
0.030721 -0.154211 
0.037105 -0.136413 
0.003413 -0.162821 
0.000151 -0.170116 
0.017069 -0.134873 
0.009368 -0.151163 
0.001490 -0.175641 
0.005779 -0.165399 
0.008870 -0.168304 
0.029975 -0.137252 
0.018800 -0.155269 
0.023159 -0.136435 
0.008253 -0.188244 
0.004060 -0.194402 
-0.012272 -0.212709 
-0.004859 -0.204242 
-0.008691 -0.210716 
0.000648 -0.194863 
-0.001683 -0.191714 
-0.009995 -0.232153 
0.006484 -0.252176 
-0.018462 -0.198398 
-0.018885 -0.212916 
-0.013358 -0.233328 
-0.016771 -0.226490 
-0.016838 -0.220049 
-0.002397 -0.177462 
-0.002860 -0.186828 
-0.003010 -0.181719 
-0.007196 -0.183490 
-0.013219 -0.189627 
-0.014353 -0.208021 
-0.014676 -0.199435 
-0.008759 -0.197225 
0.023254 -0.246555 
0.014263 -0.237929 
0.014455 -0.246107 
0.013803 -0.216768 
0.014134 -0.228548 
0.025341 -0.228637 
-0.005085 -0.225755 
0.003563 -0.227382 
-0.006815 -0.214705 
0.011369 -0.119425 
0.008380 -0.147610 
0.033913 -0.140814 
-0.009423 -0.165815 
-0.002761 -0.157095 
-0.006720 -0.150074 
0.030476 -0.201111 
0.010736 -0.179078 
0.012828 -0.201060 
-0.018083 -0.188467 
-0.017778 -0.184469 
-0.016322 -0.180687 
-0.014190 -0.201761 
-0.017534 -0.191271 
-0.017579 -0.202931 
-0.014201 -0.168677 
-0.016400 -0.179417 
-0.013730 -0.173235 
-0.000008 -0.200603 
-0.009845 -0.184109 
-0.008608 -0.200862 
-0.000000 -0.109278 
0.001454 -0.109281 
0.001603 -0.100000 
0.000452 -0.126335 
0.001037 -0.118014 
-0.000000 -0.126242 
0.005132 -0.100000 
0.002962 -0.109341 
0.004572 -0.109463 
-0.001576 -0.155246 
-0.001245 -0.148854 
-0.000000 -0.154932 
-0.000975 -0.135740 
-0.001657 -0.142510 
-0.002774 -0.143762 
-0.000000 -0.141601 
-0.000771 -0.141826 
-0.000183 -0.134287 
0.017812 -0.100000 
0.010408 -0.110790 
0.012246 -0.112570 
0.006337 -0.109677 
0.008295 -0.110056 
0.009787 -0.100000 
0.000517 -0.130230 
0.004707 -0.120128 
0.001045 -0.128352 
0.000839 -0.126654 
0.001081 -0.127271 
0.003076 -0.118501 
-0.000317 -0.172351 
-0.000673 -0.174006 
-0.000000 -0.172161 
-0.003871 -0.176191 
-0.001995 -0.175311 
-0.002935 -0.176596 
-0.000000 -0.174268 
-0.001010 -0.174532 
-0.001310 -0.173934 
-0.014058 -0.178747 
-0.011445 -0.177779 
-0.013290 -0.182451 
-0.007486 -0.170691 
-0.009478 -0.173846 
-0.009702 -0.169309 
-0.007629 -0.179480 
-0.008752 -0.177235 
-0.006172 -0.176779 
-0.000000 -0.165308 
-0.001802 -0.165644 
-0.001758 -0.160880 
-0.001556 -0.172230 
-0.001727 -0.169450 
-0.000000 -0.171919 
-0.005493 -0.163537 
-0.003637 -0.166631 
-0.005531 -0.168299 
-0.004654 -0.174661 
-0.005229 -0.172021 
-0.003110 -0.173143 
0.003600 -0.126655 
-0.003255 -0.139940 
-0.000835 -0.133580 
-0.003334 -0.139639 
-0.008205 -0.150707 
-0.003235 -0.156175 
-0.007072 -0.160229 
-0.005050 -0.157796 
-0.004150 -0.151165 
-0.004245 -0.145779 
-0.014112 -0.173826 
-0.011410 -0.159957 
-0.013295 -0.167605 
-0.011702 -0.168125 
-0.009308 -0.163622 
-0.006177 -0.148869 
-0.008172 -0.156796 
-0.008609 -0.153446 
-0.001603 -0.100000 
-0.001454 -0.109281 
-0.004572 -0.109463 
-0.002962 -0.109341 
-0.005132 -0.100000 
-0.001037 -0.118014 
-0.000452 -0.126335 
-0.012246 -0.112570 
-0.010408 -0.110790 
-0.017812 -0.100000 
-0.001045 -0.128352 
-0.004707 -0.120128 
-0.000517 -0.130230 
-0.009787 -0.100000 
-0.008295 -0.110056 
-0.006337 -0.109677 
0.001245 -0.148854 
0.001576 -0.155246 
0.000183 -0.134287 
0.000771 -0.141826 
0.002774 -0.143762 
0.001657 -0.142510 
0.000975 -0.135740 
-0.003076 -0.118501 
-0.001081 -0.127271 
-0.000839 -0.126654 
-0.014455 -0.246107 
-0.014263 -0.237929 
-0.023254 -0.246555 
0.006815 -0.214705 
-0.003563 -0.227382 
0.005085 -0.225755 
-0.025341 -0.228637 
-0.014134 -0.228548 
-0.013803 -0.216768 
0.016322 -0.180687 
0.017778 -0.184469 
0.018083 -0.188467 
0.013730 -0.173235 
0.016400 -0.179417 
0.014201 -0.168677 
0.017579 -0.202931 
0.017534 -0.191271 
0.014190 -0.201761 
-0.033913 -0.140814 
-0.008380 -0.147610 
-0.011369 -0.119425 
-0.012828 -0.201060 
-0.010736 -0.179078 
-0.030476 -0.201111 
0.006720 -0.150074 
0.002761 -0.157095 
0.009423 -0.165815 
0.008608 -0.200862 
0.009845 -0.184109 
0.000008 -0.200603 
0.000673 -0.174006 
0.000317 -0.172351 
0.001310 -0.173934 
0.001010 -0.174532 
0.002935 -0.176596 
0.001995 -0.175311 
0.003871 -0.176191 
0.001758 -0.160880 
0.001802 -0.165644 
0.005531 -0.168299 
0.003637 -0.166631 
0.005493 -0.163537 
0.001727 -0.169450 
0.001556 -0.172230 
0.013290 -0.182451 
0.011445 -0.177779 
0.014058 -0.178747 
0.006172 -0.176779 
0.008752 -0.177235 
0.007629 -0.179480 
0.009702 -0.169309 
0.009478 -0.173846 
0.007486 -0.170691 
0.003110 -0.173143 
0.005229 -0.172021 
0.004654 -0.174661 
-0.003600 -0.126655 
0.008205 -0.150707 
0.003334 -0.139639 
0.000835 -0.133580 
0.003255 -0.139940 
0.014112 -0.173826 
0.009308 -0.163622 
0.011702 -0.168125 
0.013295 -0.167605 
0.011410 -0.159957 
0.003235 -0.156175 
0.004245 -0.145779 
0.004150 -0.151165 
0.005050 -0.157796 
0.007072 -0.160229 
0.008609 -0.153446 
0.008172 -0.156796 
0.006177 -0.148869 
-0.014830 -0.254204 
-0.005565 -0.244548 
0.008538 -0.238727 
0.002322 -0.242007 
0.000967 -0.248721 
0.003610 -0.234613 
0.011474 -0.224022 
0.015307 -0.222022 
0.015997 -0.226492 
0.014065 -0.227620 
0.018659 -0.218539 
0.017513 -0.223370 
0.017967 -0.216362 
0.011020 -0.238921 
0.015258 -0.230820 
0.012836 -0.234938 
0.019203 -0.196712 
0.017484 -0.191459 
0.016849 -0.213419 
0.019279 -0.204034 
0.018846 -0.205159 
0.019619 -0.204830 
0.019396 -0.212254 
0.014343 -0.229423 
0.017995 -0.220481 
0.015695 -0.222279 
-0.015815 -0.180315 
-0.010929 -0.186404 
-0.013191 -0.182310 
-0.006752 -0.190020 
-0.008765 -0.188890 
-0.011285 -0.184287 
-0.003470 -0.193994 
-0.006086 -0.192168 
-0.001382 -0.197644 
-0.000962 -0.185801 
-0.002029 -0.187717 
-0.004330 -0.181312 
0.003541 -0.199052 
0.000662 -0.193616 
0.004591 -0.197297 
-0.007373 -0.184043 
-0.003357 -0.189201 
-0.004939 -0.190044 
0.011499 -0.216288 
0.010650 -0.212731 
0.013445 -0.217436 
0.003068 -0.202871 
0.007130 -0.207887 
0.005146 -0.205175 
0.010187 -0.207761 
0.008828 -0.208632 
0.006357 -0.204057 
-0.002232 -0.195211 
0.002175 -0.199882 
0.000519 -0.199509 
0.000590 -0.172975 
-0.000058 -0.169563 
0.003802 -0.178363 
0.001897 -0.175871 
-0.000309 -0.171047 
0.000802 -0.174017 
0.000924 -0.175441 
0.014893 -0.187751 
0.011946 -0.184996 
0.008000 -0.186752 
0.010147 -0.186420 
0.011072 -0.190451 
0.008976 -0.182721 
0.006205 -0.180589 
-0.002220 -0.177547 
0.000415 -0.181396 
-0.000152 -0.183639 
0.000922 -0.177195 
0.000764 -0.179210 
-0.000948 -0.173868 
0.005794 -0.189035 
0.003049 -0.184223 
0.005604 -0.186014 
0.004564 -0.180570 
0.005179 -0.183151 
0.002780 -0.179434 
0.015011 -0.216505 
0.011171 -0.205610 
0.013518 -0.211023 
0.016177 -0.213876 
0.016909 -0.209896 
0.002412 -0.189384 
0.008830 -0.193808 
0.005707 -0.192055 
0.005312 -0.194883 
0.008326 -0.200254 
0.016130 -0.193472 
0.017162 -0.204919 
0.016903 -0.199315 
0.014153 -0.194526 
0.011681 -0.194635 
0.011753 -0.202498 
0.011919 -0.198741 
0.014745 -0.204045 
-0.023111 -0.169778 
-0.020620 -0.173872 
-0.029682 -0.159752 
-0.025270 -0.167030 
-0.032468 -0.156042 
-0.018136 -0.176535 
-0.015720 -0.177989 
-0.043116 -0.125575 
-0.040592 -0.134953 
-0.046646 -0.123750 
-0.027639 -0.155454 
-0.034178 -0.145628 
-0.030857 -0.146637 
-0.040572 -0.140778 
-0.037440 -0.143749 
-0.033770 -0.152003 
-0.009344 -0.177235 
-0.007610 -0.175925 
-0.013424 -0.178453 
-0.011288 -0.178137 
-0.018497 -0.164035 
-0.015024 -0.171471 
-0.021187 -0.164149 
-0.026834 -0.162201 
-0.023983 -0.163600 
-0.019981 -0.171102 
-0.014960 -0.018245 
-0.027084 -0.036497 
-0.021575 -0.026143 
-0.030717 -0.063042 
-0.029966 -0.049517 
-0.025357 -0.047682 
-0.040761 -0.058184 
-0.035303 -0.052869 
-0.040675 -0.067595 
-0.021700 -0.113604 
-0.025055 -0.101969 
-0.021545 -0.101355 
-0.032909 -0.103282 
-0.028853 -0.102614 
-0.028871 -0.114890 
-0.025833 -0.075718 
-0.027876 -0.089541 
-0.029878 -0.076490 
-0.049736 -0.104683 
-0.045738 -0.104863 
-0.044881 -0.115565 
-0.043917 -0.081018 
-0.045496 -0.093385 
-0.048509 -0.083148 
-0.036825 -0.115810 
-0.041486 -0.104524 
-0.037158 -0.103944 
-0.034321 -0.077579 
-0.036391 -0.091212 
-0.039073 -0.079086 
-0.000887 -0.166149 
-0.000434 -0.165655 
-0.002029 -0.168100 
-0.001407 -0.166976 
-0.003388 -0.155628 
-0.002443 -0.161828 
-0.004677 -0.156503 
-0.006093 -0.174365 
-0.004792 -0.172695 
-0.009457 -0.160042 
-0.007225 -0.166853 
-0.011424 -0.161309 
-0.003695 -0.171031 
-0.002782 -0.169473 
-0.015188 -0.123553 
-0.014348 -0.134004 
-0.018058 -0.124314 
-0.007494 -0.150110 
-0.010769 -0.142612 
-0.008652 -0.141694 
-0.015590 -0.144576 
-0.013077 -0.143591 
-0.011427 -0.152280 
-0.004515 -0.164031 
-0.007687 -0.158768 
-0.006101 -0.157567 
-0.039389 -0.126526 
-0.031759 -0.126745 
-0.035569 -0.126852 
-0.033537 -0.137115 
-0.027549 -0.146973 
-0.021164 -0.125066 
-0.018310 -0.145496 
-0.020008 -0.135705 
-0.024501 -0.125763 
-0.028047 -0.126348 
-0.010722 -0.169644 
-0.021626 -0.155817 
-0.015956 -0.163427 
-0.013592 -0.162475 
-0.016146 -0.154423 
-0.026496 -0.136984 
-0.021229 -0.146272 
-0.024322 -0.146804 
0.000000 0.000000 
-0.011512 -0.016298 
-0.007888 -0.015516 
-0.009414 -0.015710 
0.000000 0.000000 
-0.018155 -0.031749 
-0.021516 -0.046732 
-0.004019 -0.015518 
-0.004782 -0.015491 
0.000000 0.000000 
-0.013166 -0.045823 
-0.009233 -0.030786 
-0.011080 -0.045723 
0.000000 0.000000 
-0.005656 -0.015468 
-0.006672 -0.015465 
-0.020638 -0.088372 
-0.018326 -0.100775 
-0.022642 -0.061236 
-0.022195 -0.075156 
-0.016016 -0.074373 
-0.018936 -0.074725 
-0.016433 -0.060506 
-0.012888 -0.030919 
-0.015545 -0.045976 
-0.018293 -0.046240 
-0.000000 -0.015597 
-0.000402 -0.015599 
0.000000 0.000000 
-0.001117 -0.045369 
-0.000778 -0.030730 
-0.000000 -0.045356 
0.000000 0.000000 
-0.000813 -0.015598 
-0.001243 -0.015595 
-0.001890 -0.098213 
-0.001796 -0.085956 
-0.000000 -0.098158 
-0.004336 -0.059603 
-0.003301 -0.073105 
-0.005039 -0.073224 
-0.000000 -0.072997 
-0.001633 -0.073028 
-0.001405 -0.059483 
0.000000 0.000000 
-0.002741 -0.015563 
-0.003344 -0.015543 
-0.001702 -0.015588 
-0.002197 -0.015578 
0.000000 0.000000 
-0.006082 -0.045524 
-0.004249 -0.030763 
-0.004715 -0.045472 
-0.002258 -0.045393 
-0.003450 -0.045428 
-0.002407 -0.030746 
-0.000774 -0.160648 
-0.000000 -0.165507 
-0.004215 -0.148411 
-0.002203 -0.154979 
-0.000000 -0.154444 
-0.001085 -0.154581 
-0.001358 -0.147489 
-0.015547 -0.112278 
-0.012546 -0.122818 
-0.007861 -0.121554 
-0.010112 -0.122143 
-0.010350 -0.111101 
-0.009537 -0.132357 
-0.006706 -0.140884 
-0.000000 -0.120407 
-0.001868 -0.120488 
-0.001914 -0.109742 
-0.001585 -0.139412 
-0.001757 -0.130396 
-0.000000 -0.139304 
-0.005899 -0.110220 
-0.003775 -0.120712 
-0.005760 -0.121071 
-0.004901 -0.140217 
-0.005423 -0.131087 
-0.003206 -0.139720 
-0.006459 -0.030773 
-0.007635 -0.059814 
-0.007577 -0.045582 
-0.009231 -0.045646 
-0.011565 -0.060104 
-0.003819 -0.098358 
-0.007950 -0.098902 
-0.005826 -0.098590 
-0.005539 -0.086239 
-0.006880 -0.073383 
-0.015383 -0.100232 
-0.013391 -0.074072 
-0.014668 -0.087474 
-0.012693 -0.099733 
-0.010227 -0.099286 
-0.008862 -0.073579 
-0.009731 -0.086758 
-0.011020 -0.073809 
0.000000 0.000000 
0.000402 -0.015599 
0.001243 -0.015595 
0.000813 -0.015598 
0.000000 0.000000 
0.000778 -0.030730 
0.001117 -0.045369 
0.003344 -0.015543 
0.002741 -0.015563 
0.000000 0.000000 
0.004715 -0.045472 
0.004249 -0.030763 
0.006082 -0.045524 
0.000000 0.000000 
0.002197 -0.015578 
0.001702 -0.015588 
0.001796 -0.085956 
0.001890 -0.098213 
0.001405 -0.059483 
0.001633 -0.073028 
0.005039 -0.073224 
0.003301 -0.073105 
0.004336 -0.059603 
0.002407 -0.030746 
0.003450 -0.045428 
0.002258 -0.045393 
0.014960 -0.018245 
0.011512 -0.016298 
0.000000 0.000000 
0.021516 -0.046732 
0.018155 -0.031749 
0.025357 -0.047682 
0.000000 0.000000 
0.009414 -0.015710 
0.007888 -0.015516 
0.018326 -0.100775 
0.020638 -0.088372 
0.021545 -0.101355 
0.016433 -0.060506 
0.018936 -0.074725 
0.016016 -0.074373 
0.025833 -0.075718 
0.022195 -0.075156 
0.022642 -0.061236 
0.000000 0.000000 
0.004782 -0.015491 
0.004019 -0.015518 
0.006672 -0.015465 
0.005656 -0.015468 
0.000000 0.000000 
0.011080 -0.045723 
0.009233 -0.030786 
0.013166 -0.045823 
0.018293 -0.046240 
0.015545 -0.045976 
0.012888 -0.030919 
0.000774 -0.160648 
0.000434 -0.165655 
0.001358 -0.147489 
0.001085 -0.154581 
0.003388 -0.155628 
0.002203 -0.154979 
0.004215 -0.148411 
0.001914 -0.109742 
0.001868 -0.120488 
0.005760 -0.121071 
0.003775 -0.120712 
0.005899 -0.110220 
0.001757 -0.130396 
0.001585 -0.139412 
0.015188 -0.123553 
0.012546 -0.122818 
0.015547 -0.112278 
0.006706 -0.140884 
0.009537 -0.132357 
0.008652 -0.141694 
0.010350 -0.111101 
0.010112 -0.122143 
0.007861 -0.121554 
0.003206 -0.139720 
0.005423 -0.131087 
0.004901 -0.140217 
0.006459 -0.030773 
0.011565 -0.060104 
0.009231 -0.045646 
0.007577 -0.045582 
0.007635 -0.059814 
0.015383 -0.100232 
0.010227 -0.099286 
0.012693 -0.099733 
0.014668 -0.087474 
0.013391 -0.074072 
0.003819 -0.098358 
0.006880 -0.073383 
0.005539 -0.086239 
0.005826 -0.098590 
0.007950 -0.098902 
0.011020 -0.073809 
0.009731 -0.086758 
0.008862 -0.073579 
0.021575 -0.026143 
0.027084 -0.036497 
0.040675 -0.067595 
0.035303 -0.052869 
0.040761 -0.058184 
0.029966 -0.049517 
0.030717 -0.063042 
0.044881 -0.115565 
0.045738 -0.104863 
0.049736 -0.104683 
0.037158 -0.103944 
0.041486 -0.104524 
0.036825 -0.115810 
0.048509 -0.083148 
0.045496 -0.093385 
0.043917 -0.081018 
0.025055 -0.101969 
0.021700 -0.113604 
0.029878 -0.076490 
0.027876 -0.089541 
0.028871 -0.114890 
0.028853 -0.102614 
0.032909 -0.103282 
0.039073 -0.079086 
0.036391 -0.091212 
0.034321 -0.077579 
0.015815 -0.180315 
0.020620 -0.173872 
0.023111 -0.169778 
0.015720 -0.177989 
0.018136 -0.176535 
0.011285 -0.184287 
0.032468 -0.156042 
0.025270 -0.167030 
0.029682 -0.159752 
0.007610 -0.175925 
0.009344 -0.177235 
0.004330 -0.181312 
0.021187 -0.164149 
0.015024 -0.171471 
0.018497 -0.164035 
0.007373 -0.184043 
0.011288 -0.178137 
0.013424 -0.178453 
0.046646 -0.123750 
0.040592 -0.134953 
0.043116 -0.125575 
0.033770 -0.152003 
0.037440 -0.143749 
0.040572 -0.140778 
0.030857 -0.146637 
0.034178 -0.145628 
0.027639 -0.155454 
0.019981 -0.171102 
0.023983 -0.163600 
0.026834 -0.162201 
0.000887 -0.166149 
0.000058 -0.169563 
0.004677 -0.156503 
0.002443 -0.161828 
0.000309 -0.171047 
0.001407 -0.166976 
0.002029 -0.168100 
0.018058 -0.124314 
0.014348 -0.134004 
0.011427 -0.152280 
0.013077 -0.143591 
0.015590 -0.144576 
0.010769 -0.142612 
0.007494 -0.150110 
0.002220 -0.177547 
0.004792 -0.172695 
0.006093 -0.174365 
0.002782 -0.169473 
0.003695 -0.171031 
0.000948 -0.173868 
0.011424 -0.161309 
0.007225 -0.166853 