# vtk DataFile Version 2.0
Unstructured Grid Example
ASCII
DATASET UNSTRUCTURED_GRID

POINTS 1089 float
0.024307 -0.259765 0.000000 
0.975693 -0.259765 0.000000 
1.000000 1.000000 0.000000 
0.000000 1.000000 0.000000 
0.500000 -0.100000 0.000000 
0.981288 0.321277 0.000000 
0.500000 1.000000 0.000000 
0.018712 0.321277 0.000000 
0.500000 0.329107 0.000000 
0.283506 -0.100000 0.000000 
0.500000 0.088793 0.000000 
0.233837 0.062162 0.000000 
0.716494 -0.100000 0.000000 
0.766163 0.062162 0.000000 
1.011967 0.023437 0.000000 
0.746924 0.318807 0.000000 
0.951216 0.634223 0.000000 
0.731593 0.636279 0.000000 
0.750000 1.000000 0.000000 
0.500000 0.639742 0.000000 
0.250000 1.000000 0.000000 
0.268407 0.636279 0.000000 
0.048784 0.634223 0.000000 
0.253076 0.318807 0.000000 
-0.011967 0.023437 0.000000 
0.152846 -0.222678 0.000000 
0.238266 -0.039753 0.000000 
0.113647 -0.094812 0.000000 
0.500000 -0.009248 0.000000 
0.373144 -0.013056 0.000000 
0.383850 -0.100000 0.000000 
0.369670 0.195409 0.000000 
0.367120 0.082617 0.000000 
0.500000 0.200260 0.000000 
0.616150 -0.100000 0.000000 
0.626856 -0.013056 0.000000 
0.886353 -0.094812 0.000000 
0.761734 -0.039753 0.000000 
0.847154 -0.222678 0.000000 
0.632880 0.082617 0.000000 
0.630330 0.195409 0.000000 
1.005418 -0.123717 0.000000 
0.892787 0.034352 0.000000 
0.865575 0.313171 0.000000 
0.882176 0.169240 0.000000 
1.000213 0.171615 0.000000 
0.758700 0.182476 0.000000 
0.624586 0.326395 0.000000 
0.962975 0.474455 0.000000 
0.850320 0.467497 0.000000 
0.848801 0.812692 0.000000 
0.842242 0.633612 0.000000 
0.954516 0.803302 0.000000 
0.736357 0.470367 0.000000 
0.619258 0.474808 0.000000 
0.875000 1.000000 0.000000 
0.736253 0.814340 0.000000 
0.500000 0.815258 0.000000 
0.619129 0.814963 0.000000 
0.625000 1.000000 0.000000 
0.617010 0.638710 0.000000 
0.500000 0.476698 0.000000 
0.375000 1.000000 0.000000 
0.380871 0.814963 0.000000 
0.151199 0.812692 0.000000 
0.263747 0.814340 0.000000 
0.125000 1.000000 0.000000 
0.382990 0.638710 0.000000 
0.380742 0.474808 0.000000 
0.045484 0.803302 0.000000 
0.157758 0.633612 0.000000 
0.134425 0.313171 0.000000 
0.149680 0.467497 0.000000 
0.037025 0.474455 0.000000 
0.263643 0.470367 0.000000 
0.375414 0.326395 0.000000 
-0.000213 0.171615 0.000000 
0.117824 0.169240 0.000000 
0.107213 0.034352 0.000000 
-0.005418 -0.123717 0.000000 
0.241300 0.182476 0.000000 
0.087304 -0.243336 0.000000 
0.128371 -0.159223 0.000000 
0.068245 -0.179156 0.000000 
0.249488 -0.079861 0.000000 
0.187307 -0.127305 0.000000 
0.219145 -0.187723 0.000000 
0.169120 -0.011818 0.000000 
0.173963 -0.069471 0.000000 
0.233941 0.008529 0.000000 
0.500000 -0.055499 0.000000 
0.439987 -0.055678 0.000000 
0.441456 -0.100000 0.000000 
0.434791 0.037220 0.000000 
0.437114 -0.010036 0.000000 
0.500000 0.038557 0.000000 
0.329034 -0.100000 0.000000 
0.379748 -0.056716 0.000000 
0.317876 -0.060618 0.000000 
0.436044 0.261545 0.000000 
0.434736 0.199012 0.000000 
0.500000 0.262486 0.000000 
0.300199 0.074298 0.000000 
0.367702 0.136743 0.000000 
0.301766 0.129682 0.000000 
0.500000 0.142466 0.000000 
0.433856 0.140997 0.000000 
0.433749 0.087248 0.000000 
0.306706 -0.021192 0.000000 
0.368702 0.032864 0.000000 
0.301375 0.023833 0.000000 
0.558544 -0.100000 0.000000 
0.560013 -0.055678 0.000000 
0.682124 -0.060618 0.000000 
0.620252 -0.056716 0.000000 
0.670966 -0.100000 0.000000 
0.562886 -0.010036 0.000000 
0.565209 0.037220 0.000000 
0.931755 -0.179156 0.000000 
0.871629 -0.159223 0.000000 
0.912696 -0.243336 0.000000 
0.766059 0.008529 0.000000 
0.826037 -0.069471 0.000000 
0.830880 -0.011818 0.000000 
0.780855 -0.187723 0.000000 
0.812693 -0.127305 0.000000 
0.750512 -0.079861 0.000000 
0.565264 0.199012 0.000000 
0.563956 0.261545 0.000000 
0.566251 0.087248 0.000000 
0.566144 0.140997 0.000000 
0.698234 0.129682 0.000000 
0.632298 0.136743 0.000000 
0.699801 0.074298 0.000000 
0.693294 -0.021192 0.000000 
0.698625 0.023833 0.000000 
0.631298 0.032864 0.000000 
0.992471 -0.194189 0.000000 
0.945971 -0.112193 0.000000 
0.953120 0.025522 0.000000 
0.952751 -0.043823 0.000000 
1.011758 -0.050555 0.000000 
0.892622 -0.030572 0.000000 
0.830642 0.047650 0.000000 
0.923638 0.314573 0.000000 
0.933011 0.240155 0.000000 
0.991102 0.246070 0.000000 
0.814151 0.243451 0.000000 
0.874125 0.239973 0.000000 
0.806731 0.315127 0.000000 
1.007597 0.097503 0.000000 
0.941761 0.167322 0.000000 
0.948901 0.095850 0.000000 
0.627597 0.258646 0.000000 
0.562446 0.328667 0.000000 
0.763375 0.120251 0.000000 
0.694942 0.189682 0.000000 
0.686158 0.322888 0.000000 
0.690705 0.254128 0.000000 
0.752977 0.248691 0.000000 
0.888794 0.100792 0.000000 
0.821183 0.175034 0.000000 
0.827007 0.109815 0.000000 
0.971708 0.397143 0.000000 
0.914623 0.390769 0.000000 
0.900259 0.549672 0.000000 
0.906583 0.469038 0.000000 
0.955852 0.553399 0.000000 
0.857426 0.388954 0.000000 
0.799696 0.390073 0.000000 
0.915948 0.904285 0.000000 
0.902197 0.809749 0.000000 
0.967168 0.894299 0.000000 
0.787409 0.634867 0.000000 
0.843122 0.721540 0.000000 
0.788540 0.722977 0.000000 
0.950207 0.717286 0.000000 
0.896605 0.719488 0.000000 
0.896541 0.633005 0.000000 
0.621656 0.398516 0.000000 
0.560945 0.400290 0.000000 
0.741178 0.392726 0.000000 
0.681802 0.395811 0.000000 
0.675721 0.553433 0.000000 
0.678191 0.472732 0.000000 
0.732990 0.551615 0.000000 
0.844981 0.548984 0.000000 
0.789365 0.549935 0.000000 
0.793691 0.468332 0.000000 
0.937500 1.000000 0.000000 
0.859953 0.906152 0.000000 
0.742310 0.906533 0.000000 
0.801687 0.906483 0.000000 
0.812500 1.000000 0.000000 
0.793320 0.813811 0.000000 
0.732608 0.724029 0.000000 
0.500000 0.906636 0.000000 
0.560943 0.906603 0.000000 
0.562500 1.000000 0.000000 
0.558901 0.725963 0.000000 
0.559688 0.815154 0.000000 
0.500000 0.726160 0.000000 
0.687500 1.000000 0.000000 
0.621740 0.906573 0.000000 
0.682251 0.906549 0.000000 
0.559765 0.476196 0.000000 
0.500000 0.400853 0.000000 
0.674740 0.637614 0.000000 
0.617641 0.554994 0.000000 
0.500000 0.556446 0.000000 
0.558970 0.556043 0.000000 
0.558662 0.639443 0.000000 
0.678076 0.814692 0.000000 
0.617501 0.725524 0.000000 
0.675502 0.724868 0.000000 
0.437500 1.000000 0.000000 
0.439057 0.906603 0.000000 
0.317749 0.906549 0.000000 
0.378260 0.906573 0.000000 
0.312500 1.000000 0.000000 
0.440312 0.815154 0.000000 
0.441099 0.725963 0.000000 
0.084052 0.904285 0.000000 
0.140047 0.906152 0.000000 
0.062500 1.000000 0.000000 
0.267392 0.724029 0.000000 
0.206680 0.813811 0.000000 
0.211460 0.722977 0.000000 
0.187500 1.000000 0.000000 
0.198313 0.906483 0.000000 
0.257690 0.906533 0.000000 
0.440235 0.476196 0.000000 
0.439055 0.400290 0.000000 
0.441338 0.639443 0.000000 
0.441030 0.556043 0.000000 
0.324279 0.553433 0.000000 
0.382359 0.554994 0.000000 
0.325260 0.637614 0.000000 
0.321924 0.814692 0.000000 
0.324498 0.724868 0.000000 
0.382499 0.725524 0.000000 
0.032832 0.894299 0.000000 
0.097803 0.809749 0.000000 
0.103459 0.633005 0.000000 
0.103395 0.719488 0.000000 
0.049793 0.717286 0.000000 
0.156878 0.721540 0.000000 
0.212591 0.634867 0.000000 
0.076362 0.314573 0.000000 
0.085377 0.390769 0.000000 
0.028292 0.397143 0.000000 
0.200304 0.390073 0.000000 
0.142574 0.388954 0.000000 
0.193269 0.315127 0.000000 
0.044148 0.553399 0.000000 
0.093417 0.469038 0.000000 
0.099741 0.549672 0.000000 
0.378344 0.398516 0.000000 
0.437554 0.328667 0.000000 
0.267010 0.551615 0.000000 
0.321809 0.472732 0.000000 
0.313842 0.322888 0.000000 
0.318198 0.395811 0.000000 
0.258822 0.392726 0.000000 
0.155019 0.548984 0.000000 
0.206309 0.468332 0.000000 
0.210635 0.549935 0.000000 
0.008898 0.246070 0.000000 
0.066989 0.240155 0.000000 
0.051099 0.095850 0.000000 
0.058239 0.167322 0.000000 
-0.007597 0.097503 0.000000 
0.125875 0.239973 0.000000 
0.185849 0.243451 0.000000 
0.054029 -0.112193 0.000000 
0.007529 -0.194189 0.000000 
0.169358 0.047650 0.000000 
0.107378 -0.030572 0.000000 
-0.011758 -0.050555 0.000000 
0.047249 -0.043823 0.000000 
0.046880 0.025522 0.000000 
0.372403 0.258646 0.000000 
0.247023 0.248691 0.000000 
0.309295 0.254128 0.000000 
0.305058 0.189682 0.000000 
0.236625 0.120251 0.000000 
0.111206 0.100792 0.000000 
0.172993 0.109815 0.000000 
0.178817 0.175034 0.000000 
0.055526 -0.251520 0.000000 
0.077619 -0.211718 0.000000 
0.046620 -0.219716 0.000000 
0.139531 -0.191334 0.000000 
0.108651 -0.202607 0.000000 
0.119784 -0.234072 0.000000 
0.090116 -0.137426 0.000000 
0.098463 -0.170239 0.000000 
0.119798 -0.126976 0.000000 
0.260443 -0.094240 0.000000 
0.229155 -0.130541 0.000000 
0.250776 -0.157934 0.000000 
0.209985 -0.079816 0.000000 
0.217262 -0.104941 0.000000 
0.242705 -0.061171 0.000000 
0.186172 -0.207885 0.000000 
0.199785 -0.157217 0.000000 
0.169990 -0.176722 0.000000 
0.200731 0.026352 0.000000 
0.201080 -0.001409 0.000000 
0.233456 0.034754 0.000000 
0.143568 -0.083158 0.000000 
0.170762 -0.040781 0.000000 
0.139904 -0.052478 0.000000 
0.235466 -0.016383 0.000000 
0.202536 -0.028303 0.000000 
0.205360 -0.054389 0.000000 
0.157924 -0.145210 0.000000 
0.179202 -0.098182 0.000000 
0.149377 -0.114008 0.000000 
0.500000 -0.078049 0.000000 
0.470492 -0.078012 0.000000 
0.470662 -0.100000 0.000000 
0.469333 -0.032637 0.000000 
0.470002 -0.055506 0.000000 
0.500000 -0.032542 0.000000 
0.412466 -0.100000 0.000000 
0.441049 -0.078064 0.000000 
0.411727 -0.078188 0.000000 
0.467099 0.062900 0.000000 
0.467457 0.038196 0.000000 
0.500000 0.063303 0.000000 
0.405345 -0.011155 0.000000 
0.435809 0.013321 0.000000 
0.403377 0.011853 0.000000 
0.500000 0.014418 0.000000 
0.467974 0.014128 0.000000 
0.468622 -0.009444 0.000000 
0.304287 -0.100000 0.000000 
0.324697 -0.079678 0.000000 
0.295072 -0.082229 0.000000 
0.382574 -0.078408 0.000000 
0.353607 -0.078810 0.000000 
0.355876 -0.100000 0.000000 
0.344442 -0.037316 0.000000 
0.349231 -0.057984 0.000000 
0.376353 -0.035015 0.000000 
0.438579 -0.033001 0.000000 
0.407640 -0.033724 0.000000 
0.409930 -0.056044 0.000000 
[...]
POINT_DATA 1089

SCALARS u_h float 2
LOOKUP_TABLE default
0.024307 -0.259765 
-0.024307 -0.259765 
0.000000 0.000000 
0.000000 0.000000 
-0.000000 -0.100000 
-0.018712 -0.178723 
0.000000 0.000000 
0.018712 -0.178723 
-0.000000 -0.170893 
0.033506 -0.100000 
-0.000000 -0.161207 
-0.016163 -0.187838 
-0.033506 -0.100000 
0.016163 -0.187838 
0.011967 -0.226563 
-0.003076 -0.181193 
-0.048784 -0.115777 
-0.018407 -0.113721 
0.000000 0.000000 
-0.000000 -0.110258 
0.000000 0.000000 
0.018407 -0.113721 
0.048784 -0.115777 
0.003076 -0.181193 
-0.011967 -0.226563 
0.027846 -0.222678 
-0.011734 -0.164753 
-0.011353 -0.219812 
-0.000000 -0.134248 
-0.001856 -0.138056 
0.008850 -0.100000 
-0.005330 -0.179591 
-0.007880 -0.167383 
-0.000000 -0.174740 
-0.008850 -0.100000 
0.001856 -0.138056 
0.011353 -0.219812 
0.011734 -0.164753 
-0.027846 -0.222678 
0.007880 -0.167383 
0.005330 -0.179591 
0.005418 -0.248717 
0.017787 -0.215648 
-0.009425 -0.186829 
0.007176 -0.205760 
0.000213 -0.203385 
0.008700 -0.192524 
-0.000414 -0.173605 
-0.037025 -0.150545 
-0.024680 -0.157503 
-0.026199 -0.062308 
-0.032758 -0.116388 
-0.045484 -0.071698 
-0.013643 -0.154633 
-0.005742 -0.150192 
0.000000 0.000000 
-0.013747 -0.060660 
-0.000000 -0.059742 
-0.005871 -0.060037 
0.000000 0.000000 
-0.007990 -0.111290 
-0.000000 -0.148302 
0.000000 0.000000 
0.005871 -0.060037 
0.026199 -0.062308 
0.013747 -0.060660 
0.000000 0.000000 
0.007990 -0.111290 
0.005742 -0.150192 
0.045484 -0.071698 
0.032758 -0.116388 
0.009425 -0.186829 
0.024680 -0.157503 
0.037025 -0.150545 
0.013643 -0.154633 
0.000414 -0.173605 
-0.000213 -0.203385 
-0.007176 -0.205760 
-0.017787 -0.215648 
-0.005418 -0.248717 
-0.008700 -0.192524 
0.024804 -0.243336 
0.003371 -0.221723 
0.005745 -0.241656 
-0.000512 -0.142361 
-0.000193 -0.189805 
0.031645 -0.187723 
-0.018380 -0.199318 
-0.013537 -0.194471 
-0.016059 -0.178971 
-0.000000 -0.117999 
0.002487 -0.118178 
0.003956 -0.100000 
-0.002709 -0.150280 
-0.000386 -0.135036 
-0.000000 -0.148943 
0.016534 -0.100000 
0.004748 -0.119216 
0.005376 -0.123118 
-0.001456 -0.175955 
-0.002764 -0.175988 
-0.000000 -0.175014 
-0.012301 -0.175702 
-0.007298 -0.175757 
-0.010734 -0.182818 
-0.000000 -0.170034 
-0.003644 -0.171503 
-0.003751 -0.162752 
-0.005794 -0.146192 
-0.006298 -0.154636 
-0.011125 -0.163667 
-0.003956 -0.100000 
-0.002487 -0.118178 
-0.005376 -0.123118 
-0.004748 -0.119216 
-0.016534 -0.100000 
0.000386 -0.135036 
0.002709 -0.150280 
-0.005745 -0.241656 
-0.003371 -0.221723 
-0.024804 -0.243336 
0.016059 -0.178971 
0.013537 -0.194471 
0.018380 -0.199318 
-0.031645 -0.187723 
0.000193 -0.189805 
0.000512 -0.142361 
0.002764 -0.175988 
0.001456 -0.175955 
0.003751 -0.162752 
0.003644 -0.171503 
0.010734 -0.182818 
0.007298 -0.175757 
0.012301 -0.175702 
0.005794 -0.146192 
0.011125 -0.163667 
0.006298 -0.154636 
-0.007529 -0.256689 
0.008471 -0.237193 
0.015620 -0.224478 
0.015251 -0.231323 
0.011758 -0.238055 
0.017622 -0.218072 
0.018142 -0.202350 
-0.013862 -0.185427 
-0.004489 -0.197345 
-0.008898 -0.191430 
0.001651 -0.194049 
-0.000875 -0.197527 
-0.005769 -0.184873 
0.007597 -0.214997 
0.004261 -0.207678 
0.011401 -0.216650 
0.002597 -0.178854 
-0.000054 -0.171333 
0.013375 -0.192249 
0.007442 -0.185318 
-0.001342 -0.177112 
0.003205 -0.183372 
0.002977 -0.188809 
0.013794 -0.211708 
0.008683 -0.199966 
0.014507 -0.202685 
-0.028292 -0.165357 
-0.022877 -0.171731 
-0.037241 -0.137828 
-0.030917 -0.155962 
-0.044148 -0.134101 
-0.017574 -0.173546 
-0.012804 -0.172427 
-0.021552 -0.033215 
-0.035303 -0.065251 
-0.032832 -0.043201 
-0.025091 -0.115133 
-0.031878 -0.090960 
-0.023960 -0.089523 
-0.049793 -0.095214 
-0.040895 -0.093012 
-0.040959 -0.116995 
-0.003344 -0.163984 
-0.001555 -0.162210 
-0.008822 -0.169774 
-0.005698 -0.166689 
-0.011779 -0.134067 
-0.009309 -0.152268 
-0.017010 -0.135885 
-0.030019 -0.138516 
-0.023135 -0.137565 
-0.018809 -0.156668 
0.000000 0.000000 
-0.015047 -0.031348 
-0.007690 -0.030967 
-0.010813 -0.031017 
0.000000 0.000000 
-0.019180 -0.061189 
-0.017392 -0.088471 
0.000000 -0.030864 
-0.001557 -0.030897 
0.000000 0.000000 
-0.003599 -0.086537 
-0.002812 -0.059846 
-0.000000 -0.086340 
0.000000 0.000000 
-0.003260 -0.030927 
-0.005249 -0.030951 
-0.002735 -0.148804 
-0.000000 -0.161647 
-0.012760 -0.112386 
-0.007359 -0.132506 
-0.000000 -0.131054 
-0.003530 -0.131457 
-0.003838 -0.110557 
-0.009424 -0.060308 
-0.007499 -0.086976 
-0.011998 -0.087632 
0.000000 0.000000 
0.001557 -0.030897 
0.005249 -0.030951 
0.003260 -0.030927 
0.000000 0.000000 
0.002812 -0.059846 
0.003599 -0.086537 
0.021552 -0.033215 
0.015047 -0.031348 
0.000000 0.000000 
0.017392 -0.088471 
0.019180 -0.061189 
0.023960 -0.089523 
0.000000 0.000000 
0.010813 -0.031017 
0.007690 -0.030967 
0.002735 -0.148804 
0.001555 -0.162210 
0.003838 -0.110557 
0.003530 -0.131457 
0.011779 -0.134067 
0.007359 -0.132506 
0.012760 -0.112386 
0.009424 -0.060308 
0.011998 -0.087632 
0.007499 -0.086976 
0.032832 -0.043201 
0.035303 -0.065251 
0.040959 -0.116995 
0.040895 -0.093012 
0.049793 -0.095214 
0.031878 -0.090960 
0.025091 -0.115133 
0.013862 -0.185427 
0.022877 -0.171731 
0.028292 -0.165357 
0.012804 -0.172427 
0.017574 -0.173546 
0.005769 -0.184873 
0.044148 -0.134101 
0.030917 -0.155962 
0.037241 -0.137828 
0.003344 -0.163984 
0.000054 -0.171333 
0.017010 -0.135885 
0.009309 -0.152268 
0.001342 -0.177112 
0.005698 -0.166689 
0.008822 -0.169774 
0.030019 -0.138516 
0.018809 -0.156668 
0.023135 -0.137565 
0.008898 -0.191430 
0.004489 -0.197345 
-0.011401 -0.216650 
-0.004261 -0.207678 
-0.007597 -0.214997 
0.000875 -0.197527 
-0.001651 -0.194049 
-0.008471 -0.237193 
0.007529 -0.256689 
-0.018142 -0.202350 
-0.017622 -0.218072 
-0.011758 -0.238055 
-0.015251 -0.231323 
-0.015620 -0.224478 
-0.002597 -0.178854 
-0.002977 -0.188809 
-0.003205 -0.183372 
-0.007442 -0.185318 
-0.013375 -0.192249 
-0.013794 -0.211708 
-0.014507 -0.202685 
-0.008683 -0.199966 
0.024276 -0.251520 
0.015119 -0.242968 
0.015370 -0.250966 
0.014531 -0.222584 
0.014901 -0.233857 
0.026034 -0.234072 
-0.003634 -0.231176 
0.004713 -0.232739 
-0.005202 -0.220726 
0.010443 -0.125490 
0.010405 -0.161791 
0.032026 -0.157934 
-0.008765 -0.173566 
-0.001488 -0.167441 
-0.007295 -0.154921 
0.029922 -0.207885 
0.012285 -0.188467 
0.013740 -0.207972 
-0.018019 -0.192398 
-0.017670 -0.188909 
-0.016544 -0.183996 
-0.012682 -0.208158 
-0.016738 -0.197031 
-0.016346 -0.208728 
-0.014534 -0.172633 
-0.016214 -0.184553 
-0.013390 -0.179389 
0.001674 -0.207710 
-0.008298 -0.191932 
-0.006873 -0.207758 
-0.000000 -0.109299 
0.001742 -0.109262 
0.001912 -0.100000 
0.000583 -0.126387 
0.001252 -0.118006 
-0.000000 -0.126292 
0.006216 -0.100000 
0.003549 -0.109314 
0.005477 -0.109438 
-0.001651 -0.155850 
-0.001293 -0.149304 
-0.000000 -0.155447 
-0.000905 -0.136155 
-0.001691 -0.142929 
-0.002873 -0.144397 
-0.000000 -0.141832 
-0.000776 -0.142122 
-0.000128 -0.134444 
0.023037 -0.100000 
0.012197 -0.110928 
0.013822 -0.113479 
0.007574 -0.109658 
0.009857 -0.110060 
0.012126 -0.100000 
0.000692 -0.131066 
0.005481 -0.120484 
0.001353 -0.128765 
0.001079 -0.126751 
0.001390 -0.127474 
0.003680 -0.118544 
-0.000404 -0.173608 
-0.000759 -0.175233 
-0.000000 -0.173484 
-0.004084 -0.177503 
-0.002145 -0.176544 
-0.003131 -0.177911 
-0.000000 -0.175438 
-0.001094 -0.175716 
-0.001396 -0.175065 
-0.014384 -0.181332 
-0.011790 -0.179852 
-0.013577 -0.184890 
-0.007808 -0.172132 
-0.009832 -0.175583 
-0.010088 -0.171051 
-0.007918 -0.181156 
-0.009072 -0.178948 
-0.006444 -0.178246 
-0.000000 -0.166102 
-0.001895 -0.166516 
-0.001846 -0.161626 
-0.001645 -0.173292 
-0.001820 -0.170427 
-0.000000 -0.172930 
-0.005758 -0.164644 
-0.003819 -0.167635 
-0.005791 -0.169493 
-0.004885 -0.175953 
-0.005476 -0.173275 
-0.003277 -0.174300 
0.003335 -0.129317 
-0.003441 -0.141182 
-0.001000 -0.135270 
-0.003899 -0.142746 
-0.008768 -0.153845 
-0.003393 -0.156932 
-0.007412 -0.161537 
-0.005300 -0.158784 
-0.004350 -0.151995 
-0.004453 -0.146761 
-0.014488 -0.176565 
-0.011913 -0.162995 
-0.013731 -0.170498 
-0.012133 -0.170327 
-0.009717 -0.165340 
-0.006529 -0.150371 
-0.008580 -0.158444 
-0.009088 -0.155649 
-0.001912 -0.100000 
-0.001742 -0.109262 
-0.005477 -0.109438 
-0.003549 -0.109314 
-0.006216 -0.100000 
-0.001252 -0.118006 
-0.000583 -0.126387 
-0.013822 -0.113479 
-0.012197 -0.110928 
-0.023037 -0.100000 
-0.001353 -0.128765 
-0.005481 -0.120484 
-0.000692 -0.131066 
-0.012126 -0.100000 
-0.009857 -0.110060 
-0.007574 -0.109658 
0.001293 -0.149304 
0.001651 -0.155850 
0.000128 -0.134444 
0.000776 -0.142122 
0.002873 -0.144397 
0.001691 -0.142929 
0.000905 -0.136155 
-0.003680 -0.118544 
-0.001390 -0.127474 
-0.001079 -0.126751 
-0.015370 -0.250966 
-0.015119 -0.242968 
-0.024276 -0.251520 
0.005202 -0.220726 
-0.004713 -0.232739 
0.003634 -0.231176 
-0.026034 -0.234072 
-0.014901 -0.233857 
-0.014531 -0.222584 
0.016544 -0.183996 
0.017670 -0.188909 
0.018019 -0.192398 
0.013390 -0.179389 
0.016214 -0.184553 
0.014534 -0.172633 
0.016346 -0.208728 
0.016738 -0.197031 
0.012682 -0.208158 
-0.032026 -0.157934 
-0.010405 -0.161791 
-0.010443 -0.125490 
-0.013740 -0.207972 
-0.012285 -0.188467 
-0.029922 -0.207885 
0.007295 -0.154921 
0.001488 -0.167441 
0.008765 -0.173566 
0.006873 -0.207758 
0.008298 -0.191932 
-0.001674 -0.207710 
0.000759 -0.175233 
0.000404 -0.173608 
0.001396 -0.175065 
0.001094 -0.175716 
0.003131 -0.177911 
0.002145 -0.176544 
0.004084 -0.177503 
0.001846 -0.161626 
0.001895 -0.166516 
0.005791 -0.169493 
0.003819 -0.167635 
0.005758 -0.164644 
0.001820 -0.170427 
0.001645 -0.173292 
0.013577 -0.184890 
0.011790 -0.179852 
0.014384 -0.181332 
0.006444 -0.178246 
0.009072 -0.178948 
0.007918 -0.181156 
0.010088 -0.171051 
0.009832 -0.175583 
0.007808 -0.172132 
0.003277 -0.174300 
0.005476 -0.173275 
0.004885 -0.175953 
-0.003335 -0.129317 
0.008768 -0.153845 
0.003899 -0.142746 
0.001000 -0.135270 
0.003441 -0.141182 
0.014488 -0.176565 
0.009717 -0.165340 
0.012133 -0.170327 
0.013731 -0.170498 
0.011913 -0.162995 
0.003393 -0.156932 
0.004453 -0.146761 
0.004350 -0.151995 
0.005300 -0.158784 
0.007412 -0.161537 
0.009088 -0.155649 
0.008580 -0.158444 
0.006529 -0.150371 
-0.015787 -0.258908 
-0.006611 -0.249345 
0.007043 -0.243516 
0.001033 -0.246792 
-0.000297 -0.253196 
0.002268 -0.239659 
0.009899 -0.229408 
0.013985 -0.226503 
0.014524 -0.231119 
0.012539 -0.232342 
0.017401 -0.223252 
0.016125 -0.228017 
0.016895 -0.220773 
0.009430 -0.243579 
0.013683 -0.235545 
0.011244 -0.239715 
0.018774 -0.201133 
0.017451 -0.194995 
0.015390 -0.218964 
0.018293 -0.209245 
0.018231 -0.209386 
0.018837 -0.209514 
0.018335 -0.217006 
0.012765 -0.234391 
0.016568 -0.225478 
0.014147 -0.227513 
-0.016267 -0.182881 
-0.011408 -0.189215 
-0.013775 -0.185197 
-0.007043 -0.192607 
-0.009148 -0.191598 
-0.011565 -0.186661 
-0.004196 -0.197475 
-0.006618 -0.195235 
-0.001992 -0.200972 
-0.000918 -0.187800 
-0.002057 -0.189872 
-0.004298 -0.183158 
0.003266 -0.201941 
0.000536 -0.196121 
0.004432 -0.200015 
-0.007484 -0.186162 
-0.003467 -0.191508 
-0.005138 -0.192497 
0.010251 -0.220776 
0.009662 -0.216809 
0.012292 -0.221731 
0.002356 -0.206457 
0.006291 -0.211726 
0.004194 -0.209211 
0.009597 -0.211311 
0.008106 -0.212320 
0.005880 -0.207347 
-0.002560 -0.198021 
0.001785 -0.202926 
0.000019 -0.202696 
0.000717 -0.174214 
-0.000004 -0.170821 
0.004026 -0.179793 
0.002076 -0.177173 
-0.000179 -0.172282 
0.000959 -0.175291 
0.001100 -0.176786 
0.015063 -0.190574 
0.012201 -0.187296 
0.008207 -0.188798 
0.010376 -0.188590 
0.011218 -0.192892 
0.009251 -0.184633 
0.006465 -0.182217 
-0.002096 -0.179134 
0.000560 -0.183094 
-0.000050 -0.185484 
0.001103 -0.178638 
0.000935 -0.180773 
-0.000791 -0.175239 
0.005922 -0.191159 
0.003214 -0.186035 
0.005790 -0.187941 
0.004796 -0.182143 
0.005400 -0.184892 
0.002987 -0.180945 
0.013972 -0.220695 
0.010731 -0.209006 
0.012789 -0.214847 
0.015285 -0.217988 
0.016206 -0.213905 
0.002462 -0.191542 
0.008872 -0.196320 
0.005756 -0.194383 
0.005263 -0.197412 
0.008116 -0.203204 
0.016121 -0.196688 
0.016684 -0.208755 
0.016667 -0.202885 
0.014165 -0.197474 
0.011710 -0.197351 
0.011474 -0.205706 
0.011803 -0.201719 
0.014378 -0.207545 
-0.023563 -0.172212 
-0.021007 -0.176244 
-0.029970 -0.161764 
-0.025602 -0.169219 
-0.032810 -0.158142 
-0.018448 -0.178821 
-0.015957 -0.180171 
-0.043265 -0.126909 
-0.040778 -0.136455 
-0.046840 -0.125193 
-0.027781 -0.157116 
-0.034344 -0.147210 
-0.030972 -0.148135 
-0.040839 -0.142542 
-0.037658 -0.145419 
-0.034021 -0.153843 
-0.009376 -0.179062 
-0.007589 -0.177630 
-0.013587 -0.180522 
-0.011382 -0.180086 
-0.018561 -0.165669 
-0.015102 -0.173259 
-0.021301 -0.165881 
-0.027063 -0.164124 
-0.024153 -0.165429 
-0.020182 -0.173103 
-0.014403 -0.017949 
-0.026646 -0.036478 
-0.021229 -0.025076 
-0.030483 -0.063432 
-0.029635 -0.049749 
-0.025064 -0.047933 
-0.040493 -0.058321 
-0.034972 -0.053055 
-0.040462 -0.067994 
-0.021616 -0.114429 
-0.024954 -0.102706 
-0.021440 -0.102062 
-0.032843 -0.104092 
-0.028764 -0.103386 
-0.028819 -0.115801 
-0.025669 -0.076224 
-0.027749 -0.090176 
-0.029709 -0.077010 
-0.049829 -0.105806 
-0.045790 -0.105850 
-0.044988 -0.116729 
-0.043812 -0.081625 
-0.045479 -0.094188 
-0.048446 -0.083899 
-0.036839 -0.116824 
-0.041492 -0.105432 
-0.037123 -0.104798 
-0.034159 -0.078118 
-0.036297 -0.091907 
-0.038932 -0.079649 
-0.000843 -0.167324 
-0.000431 -0.166863 
-0.001928 -0.169329 
-0.001330 -0.168162 
-0.003354 -0.156688 
-0.002396 -0.162956 
-0.004626 -0.157594 
-0.006031 -0.175954 
-0.004700 -0.174174 
-0.009398 -0.161313 
-0.007155 -0.168228 
-0.011382 -0.162663 
-0.003587 -0.172411 
-0.002671 -0.170768 
-0.015113 -0.124410 
-0.014284 -0.134965 
-0.017985 -0.125213 
-0.007440 -0.151164 
-0.010710 -0.143624 
-0.008598 -0.142661 
-0.015541 -0.145701 
-0.013019 -0.144656 
-0.011372 -0.153448 
-0.004435 -0.165249 
-0.007622 -0.159967 
-0.006039 -0.158705 
-0.039490 -0.127773 
-0.031772 -0.127857 
-0.035623 -0.128027 
-0.033624 -0.138451 
-0.027618 -0.148390 
-0.021100 -0.126012 
-0.018279 -0.146688 
-0.019963 -0.136773 
-0.024455 -0.126760 
-0.028027 -0.127400 
-0.010706 -0.171216 
-0.021672 -0.157302 
-0.015975 -0.164965 
-0.013576 -0.163918 
-0.016125 -0.155740 
-0.026501 -0.138179 
-0.021224 -0.147536 
-0.024350 -0.148143 
0.000000 0.000000 
-0.011267 -0.016319 
-0.007789 -0.015618 
-0.009271 -0.015797 
0.000000 0.000000 
-0.017878 -0.031900 
-0.021283 -0.047005 
-0.003981 -0.015616 
-0.004736 -0.015591 
0.000000 0.000000 
-0.013050 -0.046110 
-0.009147 -0.030981 
-0.010984 -0.046006 
0.000000 0.000000 
-0.005598 -0.015571 
-0.006599 -0.015568 
-0.020514 -0.088964 
-0.018222 -0.101454 
-0.022455 -0.061624 
-0.022044 -0.075651 
-0.015897 -0.074845 
-0.018801 -0.075209 
-0.016299 -0.060889 
-0.012748 -0.031113 
-0.015401 -0.046265 
-0.018111 -0.046525 
-0.000000 -0.015668 
-0.000396 -0.015675 
0.000000 0.000000 
-0.001104 -0.045595 
-0.000769 -0.030881 
-0.000000 -0.045566 
0.000000 0.000000 
-0.000803 -0.015679 
-0.001229 -0.015679 
-0.001875 -0.098742 
-0.001781 -0.086407 
-0.000000 -0.098661 
-0.004295 -0.059931 
-0.003271 -0.073498 
-0.004994 -0.073632 
-0.000000 -0.073349 
-0.001618 -0.073403 
-0.001390 -0.059783 
0.000000 0.000000 
-0.002715 -0.015656 
-0.003313 -0.015638 
-0.001684 -0.015675 
-0.002176 -0.015668 
0.000000 0.000000 
-0.006027 -0.045787 
-0.004209 -0.030941 
-0.004671 -0.045728 
-0.002235 -0.045631 
-0.003416 -0.045676 
-0.002382 -0.030913 
-0.000774 -0.161774 
-0.000000 -0.166783 
-0.004185 -0.149394 
-0.002187 -0.156022 
-0.000000 -0.155481 
-0.001083 -0.155618 
-0.001353 -0.148437 
-0.015460 -0.113033 
-0.012474 -0.123639 
-0.007809 -0.122314 
-0.010049 -0.122931 
-0.010280 -0.111800 
-0.009479 -0.133235 
-0.006662 -0.141814 
-0.000000 -0.121073 
-0.001856 -0.121179 
-0.001900 -0.110351 
-0.001577 -0.140273 
-0.001747 -0.131171 
-0.000000 -0.140146 
-0.005856 -0.110873 
-0.003750 -0.121425 
-0.005721 -0.121806 
-0.004870 -0.141119 
-0.005388 -0.131906 
-0.003188 -0.140600 
-0.006401 -0.030960 
-0.007569 -0.060163 
-0.007511 -0.045852 
-0.009151 -0.045924 
-0.011470 -0.060472 
-0.003789 -0.098909 
-0.007889 -0.099492 
-0.005781 -0.099160 
-0.005493 -0.086727 
-0.006821 -0.073805 
-0.015286 -0.100886 
-0.013288 -0.074532 
-0.014565 -0.088029 
-0.012607 -0.100363 
-0.010152 -0.099896 
-0.008788 -0.074014 
-0.009655 -0.087280 
-0.010932 -0.074257 
0.000000 0.000000 
0.000396 -0.015675 
0.001229 -0.015679 
0.000803 -0.015679 
0.000000 0.000000 
0.000769 -0.030881 
0.001104 -0.045595 
0.003313 -0.015638 
0.002715 -0.015656 
0.000000 0.000000 
0.004671 -0.045728 
0.004209 -0.030941 
0.006027 -0.045787 
0.000000 0.000000 
0.002176 -0.015668 
0.001684 -0.015675 
0.001781 -0.086407 
0.001875 -0.098742 
0.001390 -0.059783 
0.001618 -0.073403 
0.004994 -0.073632 
0.003271 -0.073498 
0.004295 -0.059931 
0.002382 -0.030913 
0.003416 -0.045676 
0.002235 -0.045631 
0.014403 -0.017949 
0.011267 -0.016319 
0.000000 0.000000 
0.021283 -0.047005 
0.017878 -0.031900 
0.025064 -0.047933 
0.000000 0.000000 
0.009271 -0.015797 
0.007789 -0.015618 
0.018222 -0.101454 
0.020514 -0.088964 
0.021440 -0.102062 
0.016299 -0.060889 
0.018801 -0.075209 
0.015897 -0.074845 
0.025669 -0.076224 
0.022044 -0.075651 
0.022455 -0.061624 
0.000000 0.000000 
0.004736 -0.015591 
0.003981 -0.015616 
0.006599 -0.015568 
0.005598 -0.015571 
0.000000 0.000000 
0.010984 -0.046006 
0.009147 -0.030981 
0.013050 -0.046110 
0.018111 -0.046525 
0.015401 -0.046265 
0.012748 -0.031113 
0.000774 -0.161774 
0.000431 -0.166863 
0.001353 -0.148437 
0.001083 -0.155618 
0.003354 -0.156688 
0.002187 -0.156022 
0.004185 -0.149394 
0.001900 -0.110351 
0.001856 -0.121179 
0.005721 -0.121806 
0.003750 -0.121425 
0.005856 -0.110873 
0.001747 -0.131171 
0.001577 -0.140273 
0.015113 -0.124410 
0.012474 -0.123639 
0.015460 -0.113033 
0.006662 -0.141814 
0.009479 -0.133235 
0.008598 -0.142661 
0.010280 -0.111800 
0.010049 -0.122931 
0.007809 -0.122314 
0.003188 -0.140600 
0.005388 -0.131906 
0.004870 -0.141119 
0.006401 -0.030960 
0.011470 -0.060472 
0.009151 -0.045924 
0.007511 -0.045852 
0.007569 -0.060163 
0.015286 -0.100886 
0.010152 -0.099896 
0.012607 -0.100363 
0.014565 -0.088029 
0.013288 -0.074532 
0.003789 -0.098909 
0.006821 -0.073805 
0.005493 -0.086727 
0.005781 -0.099160 
0.007889 -0.099492 
0.010932 -0.074257 
0.009655 -0.087280 
0.008788 -0.074014 
0.021229 -0.025076 
0.026646 -0.036478 
0.040462 -0.067994 
0.034972 -0.053055 
0.040493 -0.058321 
0.029635 -0.049749 
0.030483 -0.063432 
0.044988 -0.116729 
0.045790 -0.105850 
0.049829 -0.105806 
0.037123 -0.104798 
0.041492 -0.105432 
0.036839 -0.116824 
0.048446 -0.083899 
0.045479 -0.094188 
0.043812 -0.081625 
0.024954 -0.102706 
0.021616 -0.114429 
0.029709 -0.077010 
0.027749 -0.090176 
0.028819 -0.115801 
0.028764 -0.103386 
0.032843 -0.104092 
0.038932 -0.079649 
0.036297 -0.091907 
0.034159 -0.078118 
0.016267 -0.182881 
0.021007 -0.176244 
0.023563 -0.172212 
0.015957 -0.180171 
0.018448 -0.178821 
0.011565 -0.186661 
0.032810 -0.158142 
0.025602 -0.169219 
0.029970 -0.161764 
0.007589 -0.177630 
0.009376 -0.179062 
0.004298 -0.183158 
0.021301 -0.165881 
0.015102 -0.173259 
0.018561 -0.165669 
0.007484 -0.186162 
0.011382 -0.180086 
0.013587 -0.180522 
0.046840 -0.125193 
0.040778 -0.136455 
0.043265 -0.126909 
0.034021 -0.153843 
0.037658 -0.145419 
0.040839 -0.142542 
0.030972 -0.148135 
0.034344 -0.147210 
0.027781 -0.157116 
0.020182 -0.173103 
0.024153 -0.165429 
0.027063 -0.164124 
0.000843 -0.167324 
0.000004 -0.170821 
0.004626 -0.157594 
0.002396 -0.162956 
0.000179 -0.172282 
0.001330 -0.168162 
0.001928 -0.169329 
0.017985 -0.125213 
0.014284 -0.134965 
0.011372 -0.153448 
0.013019 -0.144656 
0.015541 -0.145701 
0.010710 -0.143624 
0.007440 -0.151164 
0.002096 -0.179134 
0.004700 -0.174174 
0.006031 -0.175954 
0.002671 -0.170768 
0.003587 -0.172411 
0.000791 -0.175239 
0.011382 -0.162663 
0.007155 -0.168228 