# vtk DataFile Version 2.0
Unstructured Grid Example
ASCII
DATASET UNSTRUCTURED_GRID

POINTS 9 float
-0.030259 -0.228194 0.000000 
1.030259 -0.228194 0.000000 
1.000000 1.000000 0.000000 
0.000000 1.000000 0.000000 
0.500000 0.009808 0.000000 
0.970610 0.335276 0.000000 
0.500000 1.000000 0.000000 
0.029390 0.335276 0.000000 
0.500000 0.360406 0.000000 

CELLS 8 32
3  0 4 8 
3  4 1 8 
3  1 5 8 
3  5 2 8 
3  2 6 8 
3  6 3 8 
3  3 7 8 
3  7 0 8 

CELL_TYPES 8
5
5
5
5
5
5
5
5

POINT_DATA 9

SCALARS u_h float 2
LOOKUP_TABLE default
-0.030259 -0.228194 
0.030259 -0.228194 
0.000000 0.000000 
0.000000 0.000000 
0.000000 0.009808 
-0.029390 -0.164724 
0.000000 0.000000 
0.029390 -0.164724 
0.000000 -0.139594 

CELL_DATA 8

SCALARS epsilon float 4
LOOKUP_TABLE default
0.058692 -0.130470 0.000000 0.338318
0.058692 -0.130470 0.000000 -0.338318
-0.059749 0.114522 0.000000 -0.084835
-0.057054 0.281527 0.000000 0.010447
0.000000 0.242072 0.000000 -0.000000
0.000000 0.242072 0.000000 -0.000000
-0.057054 0.281527 0.000000 -0.010447
-0.059749 0.114522 0.000000 0.084835

SCALARS sigma float 4
LOOKUP_TABLE default
-2.754849 -10.679309 -3.690703 5.248884
-2.754849 -10.679309 -3.690703 -5.248884
-0.732208 2.155660 0.391058 -1.318260
0.913131 5.989408 1.896302 0.055714
2.182545 5.761918 2.182545 -0.000000
2.182545 5.761918 2.182545 -0.000000
0.913131 5.989408 1.896302 -0.055714
-0.732208 2.155660 0.391058 1.318260

