# vtk DataFile Version 2.0
Unstructured Grid Example
ASCII
DATASET UNSTRUCTURED_GRID

POINTS 16641 float
0.021163 -0.246431 0.000000 
0.978837 -0.246431 0.000000 
1.000000 1.000000 0.000000 
0.000000 1.000000 0.000000 
0.500000 -0.100000 0.000000 
0.982398 0.327952 0.000000 
0.500000 1.000000 0.000000 
0.017602 0.327952 0.000000 
0.500000 0.332372 0.000000 
0.268102 -0.100000 0.000000 
0.500000 0.090526 0.000000 
0.234405 0.069868 0.000000 
0.731898 -0.100000 0.000000 
0.765595 0.069868 0.000000 
1.015113 0.035654 0.000000 
0.746601 0.323350 0.000000 
0.951884 0.637341 0.000000 
0.731491 0.638445 0.000000 
0.750000 1.000000 0.000000 
0.500000 0.641388 0.000000 
0.250000 1.000000 0.000000 
0.268509 0.638445 0.000000 
0.048116 0.637341 0.000000 
0.253399 0.323350 0.000000 
-0.015113 0.035654 0.000000 
0.151124 -0.206213 0.000000 
0.239123 -0.029105 0.000000 
0.109650 -0.079495 0.000000 
0.500000 -0.008870 0.000000 
0.372992 -0.011292 0.000000 
0.380384 -0.100000 0.000000 
0.370308 0.199088 0.000000 
0.367920 0.086031 0.000000 
0.500000 0.203003 0.000000 
0.619616 -0.100000 0.000000 
0.627008 -0.011292 0.000000 
0.890350 -0.079495 0.000000 
0.760877 -0.029105 0.000000 
0.848876 -0.206213 0.000000 
0.632080 0.086031 0.000000 
0.629692 0.199088 0.000000 
1.009651 -0.110755 0.000000 
0.894538 0.045472 0.000000 
0.865848 0.319080 0.000000 
0.882722 0.177333 0.000000 
1.001909 0.181168 0.000000 
0.758211 0.188368 0.000000 
0.624190 0.329743 0.000000 
0.963805 0.479234 0.000000 
0.850555 0.471659 0.000000 
0.848675 0.813822 0.000000 
0.842407 0.636206 0.000000 
0.954698 0.804732 0.000000 
0.736221 0.473711 0.000000 
0.619098 0.477497 0.000000 
0.875000 1.000000 0.000000 
0.736131 0.815380 0.000000 
0.500000 0.816084 0.000000 
0.619046 0.815890 0.000000 
0.625000 1.000000 0.000000 
0.616898 0.640545 0.000000 
0.500000 0.479139 0.000000 
0.375000 1.000000 0.000000 
0.380954 0.815890 0.000000 
0.151325 0.813822 0.000000 
0.263869 0.815380 0.000000 
0.125000 1.000000 0.000000 
0.383102 0.640545 0.000000 
0.380902 0.477497 0.000000 
0.045302 0.804732 0.000000 
0.157593 0.636206 0.000000 
0.134152 0.319080 0.000000 
0.149445 0.471659 0.000000 
0.036195 0.479234 0.000000 
0.263779 0.473711 0.000000 
0.375810 0.329743 0.000000 
-0.001909 0.181168 0.000000 
0.117278 0.177333 0.000000 
0.105462 0.045472 0.000000 
-0.009651 -0.110755 0.000000 
0.241789 0.188368 0.000000 
0.084422 -0.229147 0.000000 
0.124080 -0.142768 0.000000 
0.064525 -0.165198 0.000000 
0.250704 -0.067632 0.000000 
0.182705 -0.104526 0.000000 
0.220487 -0.161759 0.000000 
0.168026 0.000508 0.000000 
0.171737 -0.053199 0.000000 
0.234589 0.017523 0.000000 
0.500000 -0.055435 0.000000 
0.438949 -0.055593 0.000000 
0.439927 -0.100000 0.000000 
0.435022 0.038705 0.000000 
0.436848 -0.009373 0.000000 
0.500000 0.039573 0.000000 
0.322238 -0.100000 0.000000 
0.377855 -0.056247 0.000000 
0.316151 -0.058354 0.000000 
0.436374 0.264658 0.000000 
0.435119 0.202016 0.000000 
0.500000 0.265495 0.000000 
0.301155 0.079640 0.000000 
0.368449 0.140393 0.000000 
0.302590 0.134732 0.000000 
0.500000 0.144796 0.000000 
0.434283 0.143711 0.000000 
0.434163 0.089459 0.000000 
0.307356 -0.016379 0.000000 
0.369332 0.035704 0.000000 
0.302392 0.029258 0.000000 
0.560073 -0.100000 0.000000 
0.561051 -0.055593 0.000000 
0.683849 -0.058354 0.000000 
0.622145 -0.056247 0.000000 
0.677762 -0.100000 0.000000 
0.563152 -0.009373 0.000000 
0.564978 0.038705 0.000000 
0.935475 -0.165198 0.000000 
0.875920 -0.142768 0.000000 
0.915578 -0.229147 0.000000 
0.765411 0.017523 0.000000 
0.828263 -0.053199 0.000000 
0.831974 0.000508 0.000000 
0.779513 -0.161759 0.000000 
0.817295 -0.104526 0.000000 
0.749296 -0.067632 0.000000 
0.564881 0.202016 0.000000 
0.563626 0.264658 0.000000 
0.565837 0.089459 0.000000 
0.565717 0.143711 0.000000 
0.697410 0.134732 0.000000 
0.631551 0.140393 0.000000 
0.698845 0.079640 0.000000 
0.692644 -0.016379 0.000000 
0.697608 0.029258 0.000000 
0.630668 0.035704 0.000000 
0.996103 -0.181361 0.000000 
0.950180 -0.098496 0.000000 
0.955744 0.037083 0.000000 
0.956369 -0.031005 0.000000 
1.015714 -0.037623 0.000000 
0.895415 -0.017413 0.000000 
0.831148 0.057570 0.000000 
0.924319 0.321015 0.000000 
0.933804 0.247755 0.000000 
0.992414 0.254162 0.000000 
0.814041 0.249560 0.000000 
0.874444 0.246908 0.000000 
0.806654 0.320376 0.000000 
1.009914 0.108494 0.000000 
0.942892 0.176184 0.000000 
0.950640 0.106049 0.000000 
0.627079 0.262212 0.000000 
0.562206 0.331720 0.000000 
0.762846 0.126957 0.000000 
0.694251 0.194374 0.000000 
0.685727 0.326767 0.000000 
0.690145 0.258428 0.000000 
0.752555 0.253881 0.000000 
0.889802 0.110245 0.000000 
0.821142 0.182124 0.000000 
0.827163 0.118112 0.000000 
0.972633 0.402856 0.000000 
0.915197 0.396202 0.000000 
0.900742 0.553328 0.000000 
0.907104 0.473555 0.000000 
0.956615 0.557317 0.000000 
0.857666 0.393954 0.000000 
0.799665 0.394551 0.000000 
0.915543 0.904695 0.000000 
0.902157 0.810936 0.000000 
0.966929 0.894251 0.000000 
0.787402 0.637241 0.000000 
0.843168 0.723383 0.000000 
0.788469 0.724687 0.000000 
0.950699 0.719618 0.000000 
0.896851 0.721490 0.000000 
0.896947 0.635830 0.000000 
0.621417 0.401567 0.000000 
0.560831 0.403132 0.000000 
0.740969 0.396662 0.000000 
0.681524 0.399249 0.000000 
0.675575 0.555919 0.000000 
0.678002 0.475706 0.000000 
0.732889 0.554370 0.000000 
0.845202 0.552351 0.000000 
0.789385 0.552993 0.000000 
0.793699 0.472088 0.000000 
0.937500 1.000000 0.000000 
0.859774 0.906687 0.000000 
0.742228 0.907050 0.000000 
0.801582 0.907021 0.000000 
0.812500 1.000000 0.000000 
0.793189 0.814903 0.000000 
0.732487 0.725619 0.000000 
0.500000 0.907052 0.000000 
0.560913 0.907047 0.000000 
0.562500 1.000000 0.000000 
0.558845 0.727267 0.000000 
0.559642 0.816031 0.000000 
0.500000 0.727396 0.000000 
0.687500 1.000000 0.000000 
0.621689 0.907040 0.000000 
0.682184 0.907040 0.000000 
0.559683 0.478711 0.000000 
0.500000 0.403678 0.000000 
0.674609 0.639597 0.000000 
0.617515 0.557270 0.000000 
0.500000 0.558496 0.000000 
0.558902 0.558176 0.000000 
0.558600 0.641168 0.000000 
0.677968 0.815674 0.000000 
0.617400 0.726906 0.000000 
0.675376 0.726347 0.000000 
0.437500 1.000000 0.000000 
0.439087 0.907047 0.000000 
0.317816 0.907040 0.000000 
0.378311 0.907040 0.000000 
0.312500 1.000000 0.000000 
0.440358 0.816031 0.000000 
0.441155 0.727267 0.000000 
0.084457 0.904695 0.000000 
0.140226 0.906687 0.000000 
0.062500 1.000000 0.000000 
0.267513 0.725619 0.000000 
0.206811 0.814903 0.000000 
0.211531 0.724687 0.000000 
0.187500 1.000000 0.000000 
0.198418 0.907021 0.000000 
0.257772 0.907050 0.000000 
0.440317 0.478711 0.000000 
0.439169 0.403132 0.000000 
0.441400 0.641168 0.000000 
0.441098 0.558176 0.000000 
0.324425 0.555919 0.000000 
0.382485 0.557270 0.000000 
0.325391 0.639597 0.000000 
0.322032 0.815674 0.000000 
0.324624 0.726347 0.000000 
0.382600 0.726906 0.000000 
0.033071 0.894251 0.000000 
0.097843 0.810936 0.000000 
0.103053 0.635830 0.000000 
0.103149 0.721490 0.000000 
0.049301 0.719618 0.000000 
0.156832 0.723383 0.000000 
0.212598 0.637241 0.000000 
0.075681 0.321015 0.000000 
0.084803 0.396202 0.000000 
0.027367 0.402856 0.000000 
0.200335 0.394551 0.000000 
0.142334 0.393954 0.000000 
0.193346 0.320376 0.000000 
0.043385 0.557317 0.000000 
0.092896 0.473555 0.000000 
0.099258 0.553328 0.000000 
0.378583 0.401567 0.000000 
0.437794 0.331720 0.000000 
0.267111 0.554370 0.000000 
0.321998 0.475706 0.000000 
0.314273 0.326767 0.000000 
0.318476 0.399249 0.000000 
0.259031 0.396662 0.000000 
0.154798 0.552351 0.000000 
0.206301 0.472088 0.000000 
0.210615 0.552993 0.000000 
0.007586 0.254162 0.000000 
0.066196 0.247755 0.000000 
0.049360 0.106049 0.000000 
0.057108 0.176184 0.000000 
-0.009914 0.108494 0.000000 
0.125556 0.246908 0.000000 
0.185959 0.249560 0.000000 
0.049820 -0.098496 0.000000 
0.003897 -0.181361 0.000000 
0.168852 0.057570 0.000000 
0.104585 -0.017413 0.000000 
-0.015714 -0.037623 0.000000 
0.043631 -0.031005 0.000000 
0.044256 0.037083 0.000000 
0.372921 0.262212 0.000000 
0.247445 0.253881 0.000000 
0.309855 0.258428 0.000000 
0.305749 0.194374 0.000000 
0.237154 0.126957 0.000000 
0.110198 0.110245 0.000000 
0.172837 0.118112 0.000000 
0.178858 0.182124 0.000000 
0.052455 -0.237903 0.000000 
0.074443 -0.197710 0.000000 
0.043382 -0.206241 0.000000 
0.136308 -0.174981 0.000000 
0.105535 -0.187763 0.000000 
0.117327 -0.219035 0.000000 
0.085857 -0.122656 0.000000 
0.094560 -0.155375 0.000000 
0.115388 -0.110858 0.000000 
0.260629 -0.083193 0.000000 
0.225726 -0.096830 0.000000 
0.251780 -0.089821 0.000000 
0.209072 -0.062219 0.000000 
0.215498 -0.081969 0.000000 
0.243751 -0.049610 0.000000 
0.185666 -0.188688 0.000000 
0.194501 -0.131346 0.000000 
0.166127 -0.157346 0.000000 
0.200743 0.036141 0.000000 
0.200982 0.009498 0.000000 
0.234055 0.043061 0.000000 
0.140129 -0.066966 0.000000 
0.169208 -0.026745 0.000000 
0.137229 -0.037961 0.000000 
0.236195 -0.006608 0.000000 
0.202288 -0.015925 0.000000 
0.204875 -0.039947 0.000000 
0.153117 -0.126058 0.000000 
0.175970 -0.078982 0.000000 
0.145098 -0.096123 0.000000 
0.500000 -0.078016 0.000000 
0.469811 -0.078026 0.000000 
0.469933 -0.100000 0.000000 
0.468994 -0.032445 0.000000 
0.469474 -0.055471 0.000000 
0.500000 -0.032372 0.000000 
0.410049 -0.100000 0.000000 
0.439667 -0.078073 0.000000 
0.409610 -0.078162 0.000000 
0.467268 0.064438 0.000000 
0.467556 0.039360 0.000000 
0.500000 0.064684 0.000000 
0.405063 -0.010092 0.000000 
0.435836 0.014389 0.000000 
0.403516 0.013420 0.000000 
0.500000 0.015088 0.000000 
0.467965 0.014918 0.000000 
0.468464 -0.008991 0.000000 
0.294297 -0.100000 0.000000 
0.320420 -0.079089 0.000000 
0.290953 -0.080160 0.000000 
0.379691 -0.078317 0.000000 
0.349955 -0.078588 0.000000 
0.351051 -0.100000 0.000000 
0.343730 -0.035282 0.000000 
0.347170 -0.056982 0.000000 
0.375437 -0.033932 0.000000 
0.437943 -0.032683 0.000000 
0.406789 -0.033141 0.000000 
0.408420 -0.055830 0.000000 
[...]
POINT_DATA 16641

SCALARS u_h float 2
LOOKUP_TABLE default
0.021163 -0.246431 
-0.021163 -0.246431 
0.000000 0.000000 
0.000000 0.000000 
0.000000 -0.100000 
-0.017602 -0.172048 
0.000000 0.000000 
0.017602 -0.172048 
-0.000000 -0.167628 
0.018102 -0.100000 
-0.000000 -0.159474 
-0.015595 -0.180132 
-0.018102 -0.100000 
0.015595 -0.180132 
0.015113 -0.214346 
-0.003399 -0.176650 
-0.048116 -0.112659 
-0.018509 -0.111555 
0.000000 0.000000 
-0.000000 -0.108612 
0.000000 0.000000 
0.018509 -0.111555 
0.048116 -0.112659 
0.003399 -0.176650 
-0.015113 -0.214346 
0.026124 -0.206213 
-0.010877 -0.154105 
-0.015350 -0.204495 
0.000000 -0.133870 
-0.002008 -0.136292 
0.005384 -0.100000 
-0.004692 -0.175912 
-0.007080 -0.163969 
-0.000000 -0.171997 
-0.005384 -0.100000 
0.002008 -0.136292 
0.015350 -0.204495 
0.010877 -0.154105 
-0.026124 -0.206213 
0.007080 -0.163969 
0.004692 -0.175912 
0.009651 -0.235755 
0.019538 -0.204528 
-0.009152 -0.180920 
0.007722 -0.197667 
0.001909 -0.193832 
0.008211 -0.186632 
-0.000810 -0.170257 
-0.036195 -0.145766 
-0.024445 -0.153341 
-0.026325 -0.061178 
-0.032593 -0.113794 
-0.045302 -0.070268 
-0.013779 -0.151289 
-0.005902 -0.147503 
0.000000 0.000000 
-0.013869 -0.059620 
-0.000000 -0.058916 
-0.005954 -0.059110 
0.000000 0.000000 
-0.008102 -0.109455 
-0.000000 -0.145861 
0.000000 0.000000 
0.005954 -0.059110 
0.026325 -0.061178 
0.013869 -0.059620 
0.000000 0.000000 
0.008102 -0.109455 
0.005902 -0.147503 
0.045302 -0.070268 
0.032593 -0.113794 
0.009152 -0.180920 
0.024445 -0.153341 
0.036195 -0.145766 
0.013779 -0.151289 
0.000810 -0.170257 
-0.001909 -0.193832 
-0.007722 -0.197667 
-0.019538 -0.204528 
-0.009651 -0.235755 
-0.008211 -0.186632 
0.021922 -0.229147 
-0.000920 -0.205268 
0.002025 -0.227698 
0.000704 -0.130132 
-0.004795 -0.167026 
0.032987 -0.161759 
-0.019474 -0.186992 
-0.015763 -0.178199 
-0.015411 -0.169977 
0.000000 -0.117935 
0.001449 -0.118093 
0.002427 -0.100000 
-0.002478 -0.148795 
-0.000652 -0.134373 
0.000000 -0.147927 
0.009738 -0.100000 
0.002855 -0.118747 
0.003651 -0.120854 
-0.001126 -0.172842 
-0.002381 -0.172984 
-0.000000 -0.172005 
-0.011345 -0.170360 
-0.006551 -0.172107 
-0.009910 -0.177768 
-0.000000 -0.167704 
-0.003217 -0.168789 
-0.003337 -0.160541 
-0.005144 -0.141379 
-0.005668 -0.151796 
-0.010108 -0.158242 
-0.002427 -0.100000 
-0.001449 -0.118093 
-0.003651 -0.120854 
-0.002855 -0.118747 
-0.009738 -0.100000 
0.000652 -0.134373 
0.002478 -0.148795 
-0.002025 -0.227698 
0.000920 -0.205268 
-0.021922 -0.229147 
0.015411 -0.169977 
0.015763 -0.178199 
0.019474 -0.186992 
-0.032987 -0.161759 
0.004795 -0.167026 
-0.000704 -0.130132 
0.002381 -0.172984 
0.001126 -0.172842 
0.003337 -0.160541 
0.003217 -0.168789 
0.009910 -0.177768 
0.006551 -0.172107 
0.011345 -0.170360 
0.005144 -0.141379 
0.010108 -0.158242 
0.005668 -0.151796 
-0.003897 -0.243861 
0.012680 -0.223496 
0.018244 -0.212917 
0.018869 -0.218505 
0.015714 -0.225123 
0.020415 -0.204913 
0.018648 -0.192430 
-0.013181 -0.178985 
-0.003696 -0.189745 
-0.007586 -0.183338 
0.001541 -0.187940 
-0.000556 -0.190592 
-0.005846 -0.179624 
0.009914 -0.204006 
0.005392 -0.198816 
0.013140 -0.206451 
0.002079 -0.175288 
-0.000294 -0.168280 
0.012846 -0.185543 
0.006751 -0.180626 
-0.001773 -0.173233 
0.002645 -0.179072 
0.002555 -0.183619 
0.014802 -0.202255 
0.008642 -0.192876 
0.014663 -0.194388 
-0.027367 -0.159644 
-0.022303 -0.166298 
-0.036758 -0.134172 
-0.030396 -0.151445 
-0.043385 -0.130183 
-0.017334 -0.168546 
-0.012835 -0.167949 
-0.021957 -0.032805 
-0.035343 -0.064064 
-0.033071 -0.043249 
-0.025098 -0.112759 
-0.031832 -0.089117 
-0.024031 -0.087813 
-0.049301 -0.092882 
-0.040649 -0.091010 
-0.040553 -0.114170 
-0.003583 -0.160933 
-0.001669 -0.159368 
-0.009031 -0.165838 
-0.005976 -0.163251 
-0.011925 -0.131581 
-0.009498 -0.149294 
-0.017111 -0.133130 
-0.029798 -0.135149 
-0.023115 -0.134507 
-0.018801 -0.152912 
0.000000 0.000000 
-0.015226 -0.030813 
-0.007772 -0.030450 
-0.010918 -0.030479 
0.000000 0.000000 
-0.019311 -0.060097 
-0.017513 -0.086881 
-0.000000 -0.030448 
-0.001587 -0.030453 
0.000000 0.000000 
-0.003655 -0.085233 
-0.002858 -0.058969 
-0.000000 -0.085104 
0.000000 0.000000 
-0.003311 -0.030460 
-0.005316 -0.030460 
-0.002817 -0.146289 
-0.000000 -0.158822 
-0.012891 -0.110403 
-0.007485 -0.130230 
-0.000000 -0.129004 
-0.003598 -0.129324 
-0.003900 -0.108832 
-0.009532 -0.059326 
-0.007600 -0.085594 
-0.012124 -0.086153 
0.000000 0.000000 
0.001587 -0.030453 
0.005316 -0.030460 
0.003311 -0.030460 
0.000000 0.000000 
0.002858 -0.058969 
0.003655 -0.085233 
0.021957 -0.032805 
0.015226 -0.030813 
0.000000 0.000000 
0.017513 -0.086881 
0.019311 -0.060097 
0.024031 -0.087813 
0.000000 0.000000 
0.010918 -0.030479 
0.007772 -0.030450 
0.002817 -0.146289 
0.001669 -0.159368 
0.003900 -0.108832 
0.003598 -0.129324 
0.011925 -0.131581 
0.007485 -0.130230 
0.012891 -0.110403 
0.009532 -0.059326 
0.012124 -0.086153 
0.007600 -0.085594 
0.033071 -0.043249 
0.035343 -0.064064 
0.040553 -0.114170 
0.040649 -0.091010 
0.049301 -0.092882 
0.031832 -0.089117 
0.025098 -0.112759 
0.013181 -0.178985 
0.022303 -0.166298 
0.027367 -0.159644 
0.012835 -0.167949 
0.017334 -0.168546 
0.005846 -0.179624 
0.043385 -0.130183 
0.030396 -0.151445 
0.036758 -0.134172 
0.003583 -0.160933 
0.000294 -0.168280 
0.017111 -0.133130 
0.009498 -0.149294 
0.001773 -0.173233 
0.005976 -0.163251 
0.009031 -0.165838 
0.029798 -0.135149 
0.018801 -0.152912 
0.023115 -0.134507 
0.007586 -0.183338 
0.003696 -0.189745 
-0.013140 -0.206451 
-0.005392 -0.198816 
-0.009914 -0.204006 
0.000556 -0.190592 
-0.001541 -0.187940 
-0.012680 -0.223496 
0.003897 -0.243861 
-0.018648 -0.192430 
-0.020415 -0.204913 
-0.015714 -0.225123 
-0.018869 -0.218505 
-0.018244 -0.212917 
-0.002079 -0.175288 
-0.002555 -0.183619 
-0.002645 -0.179072 
-0.006751 -0.180626 
-0.012846 -0.185543 
-0.014802 -0.202255 
-0.014663 -0.194388 
-0.008642 -0.192876 
0.021205 -0.237903 
0.011943 -0.228960 
0.012132 -0.237491 
0.011308 -0.206231 
0.011785 -0.219013 
0.023577 -0.219035 
-0.007893 -0.216406 
0.000810 -0.217875 
-0.009612 -0.204608 
0.010629 -0.114443 
0.006976 -0.128080 
0.033030 -0.089821 
-0.009678 -0.155969 
-0.003252 -0.144469 
-0.006249 -0.143360 
0.029416 -0.188688 
0.007001 -0.162596 
0.009877 -0.188596 
-0.018007 -0.182609 
-0.017768 -0.178002 
-0.015945 -0.175689 
-0.016121 -0.191966 
-0.018292 -0.182995 
-0.019021 -0.194211 
-0.013805 -0.162858 
-0.016462 -0.172175 
-0.013875 -0.164947 
-0.003133 -0.188558 
-0.011530 -0.172732 
-0.011152 -0.189873 
0.000000 -0.109266 
0.001061 -0.109276 
0.001183 -0.100000 
0.000244 -0.126195 
0.000724 -0.117971 
0.000000 -0.126122 
0.003799 -0.100000 
0.002167 -0.109323 
0.003360 -0.109412 
-0.001482 -0.154312 
-0.001194 -0.148140 
0.000000 -0.154066 
-0.001187 -0.135092 
-0.001664 -0.141861 
-0.002734 -0.142830 
0.000000 -0.141162 
-0.000785 -0.141332 
-0.000286 -0.133991 
0.013047 -0.100000 
0.007920 -0.110339 
0.009703 -0.111410 
0.004691 -0.109567 
0.006205 -0.109838 
0.007301 -0.100000 
-0.000020 -0.129032 
0.003420 -0.119482 
0.000437 -0.127682 
0.000443 -0.126433 
0.000539 -0.126891 
0.002170 -0.118330 
-0.000225 -0.170545 
-0.000574 -0.172215 
-0.000000 -0.170358 
-0.003553 -0.174210 
-0.001788 -0.173464 
-0.002644 -0.174596 
-0.000000 -0.172549 
-0.000902 -0.172779 
-0.001193 -0.172245 
-0.013537 -0.174833 
-0.010898 -0.174642 
-0.012791 -0.178714 
-0.007021 -0.168567 
-0.008947 -0.171257 
-0.009162 -0.166753 
-0.007158 -0.176915 
-0.008247 -0.174645 
-0.005750 -0.174561 
-0.000000 -0.164048 
-0.001674 -0.164321 
-0.001640 -0.159739 
-0.001432 -0.170633 
-0.001598 -0.167975 
-0.000000 -0.170370 
-0.005139 -0.161927 
-0.003385 -0.165144 
-0.005163 -0.166545 
-0.004312 -0.172725 
-0.004868 -0.170160 
-0.002869 -0.171416 
0.003046 -0.123679 
-0.003270 -0.138239 
-0.001089 -0.131398 
-0.003114 -0.135671 
-0.007738 -0.146395 
-0.003040 -0.155059 
-0.006651 -0.158356 
-0.004744 -0.156373 
-0.003942 -0.149969 
-0.004105 -0.144393 
-0.013573 -0.169737 
-0.010872 -0.155611 
-0.012745 -0.163360 
-0.011126 -0.164899 
-0.008786 -0.161147 
-0.005885 -0.146793 
-0.007720 -0.154471 
-0.008151 -0.150385 
-0.001183 -0.100000 
-0.001061 -0.109276 
-0.003360 -0.109412 
-0.002167 -0.109323 
-0.003799 -0.100000 
-0.000724 -0.117971 
-0.000244 -0.126195 
-0.009703 -0.111410 
-0.007920 -0.110339 
-0.013047 -0.100000 
-0.000437 -0.127682 
-0.003420 -0.119482 
0.000020 -0.129032 
-0.007301 -0.100000 
-0.006205 -0.109838 
-0.004691 -0.109567 
0.001194 -0.148140 
0.001482 -0.154312 
0.000286 -0.133991 
0.000785 -0.141332 
0.002734 -0.142830 
0.001664 -0.141861 
0.001187 -0.135092 
-0.002170 -0.118330 
-0.000539 -0.126891 
-0.000443 -0.126433 
-0.012132 -0.237491 
-0.011943 -0.228960 
-0.021205 -0.237903 
0.009612 -0.204608 
-0.000810 -0.217875 
0.007893 -0.216406 
-0.023577 -0.219035 
-0.011785 -0.219013 
-0.011308 -0.206231 
0.015945 -0.175689 
0.017768 -0.178002 
0.018007 -0.182609 
0.013875 -0.164947 
0.016462 -0.172175 
0.013805 -0.162858 
0.019021 -0.194211 
0.018292 -0.182995 
0.016121 -0.191966 
-0.033030 -0.089821 
-0.006976 -0.128080 
-0.010629 -0.114443 
-0.009877 -0.188596 
-0.007001 -0.162596 
-0.029416 -0.188688 
0.006249 -0.143360 
0.003252 -0.144469 
0.009678 -0.155969 
0.011152 -0.189873 
0.011530 -0.172732 
0.003133 -0.188558 
0.000574 -0.172215 
0.000225 -0.170545 
0.001193 -0.172245 
0.000902 -0.172779 
0.002644 -0.174596 
0.001788 -0.173464 
0.003553 -0.174210 
0.001640 -0.159739 
0.001674 -0.164321 
0.005163 -0.166545 
0.003385 -0.165144 
0.005139 -0.161927 
0.001598 -0.167975 
0.001432 -0.170633 
0.012791 -0.178714 
0.010898 -0.174642 
0.013537 -0.174833 
0.005750 -0.174561 
0.008247 -0.174645 
0.007158 -0.176915 
0.009162 -0.166753 
0.008947 -0.171257 
0.007021 -0.168567 
0.002869 -0.171416 
0.004868 -0.170160 
0.004312 -0.172725 
-0.003046 -0.123679 
0.007738 -0.146395 
0.003114 -0.135671 
0.001089 -0.131398 
0.003270 -0.138239 
0.013573 -0.169737 
0.008786 -0.161147 
0.011126 -0.164899 
0.012745 -0.163360 
0.010872 -0.155611 
0.003040 -0.155059 
0.004105 -0.144393 
0.003942 -0.149969 
0.004744 -0.156373 
0.006651 -0.158356 
0.008151 -0.150385 
0.007720 -0.154471 
0.005885 -0.146793 
-0.012507 -0.245870 
-0.002957 -0.235952 
0.011275 -0.230273 
0.005088 -0.233453 
0.003723 -0.240352 
0.006387 -0.225762 
0.014070 -0.215012 
0.016897 -0.214710 
0.017914 -0.218803 
0.016118 -0.219685 
0.020159 -0.211058 
0.019254 -0.215802 
0.019138 -0.209394 
0.013629 -0.230555 
0.017508 -0.222803 
0.015380 -0.226663 
0.019534 -0.190143 
0.017352 -0.186097 
0.018791 -0.204696 
0.020344 -0.196221 
0.019386 -0.198725 
0.020391 -0.197768 
0.020571 -0.204911 
0.016776 -0.221064 
0.019864 -0.212466 
0.017947 -0.213737 
-0.015371 -0.176260 
-0.010466 -0.181987 
-0.012580 -0.177822 
-0.006555 -0.185877 
-0.008438 -0.184591 
-0.011092 -0.180463 
-0.002719 -0.188656 
-0.005576 -0.187368 
-0.000795 -0.192443 
-0.001175 -0.182532 
-0.002162 -0.184203 
-0.004514 -0.178261 
0.003673 -0.194448 
0.000630 -0.189582 
0.004581 -0.192955 
-0.007396 -0.180572 
-0.003392 -0.185455 
-0.004862 -0.186087 
0.012964 -0.209128 
0.011698 -0.206256 
0.014741 -0.210534 
0.003766 -0.197253 
0.007980 -0.201843 
0.006170 -0.198928 
0.010683 -0.202154 
0.009505 -0.202796 
0.006725 -0.198848 
-0.002008 -0.190731 
0.002454 -0.195048 
0.000950 -0.194476 
0.000422 -0.171113 
-0.000133 -0.167770 
0.003447 -0.176154 
0.001635 -0.173875 
-0.000511 -0.169120 
0.000570 -0.172047 
0.000642 -0.173318 
0.014517 -0.183397 
0.011472 -0.181432 
0.007583 -0.183518 
0.009700 -0.183024 
0.010706 -0.186611 
0.008494 -0.179757 
0.005771 -0.178066 
-0.002491 -0.174933 
0.000105 -0.178628 
-0.000425 -0.180622 
0.000609 -0.174882 
0.000440 -0.176680 
-0.001222 -0.171648 
0.005462 -0.185628 
0.002700 -0.181301 
0.005220 -0.182937 
0.004169 -0.178105 
0.004774 -0.180392 
0.002426 -0.177040 
0.016123 -0.209813 
0.011476 -0.200264 
0.014187 -0.204992 
0.017071 -0.207391 
0.017547 -0.203663 
0.002177 -0.185888 
0.008580 -0.189815 
0.005459 -0.188320 
0.005173 -0.190833 
0.008362 -0.195581 
0.015950 -0.188526 
0.017519 -0.199017 
0.016976 -0.193845 
0.013938 -0.189938 
0.011442 -0.190361 
0.011862 -0.197461 
0.011843 -0.194063 
0.014960 -0.198603 
-0.022561 -0.166018 
-0.020193 -0.170151 
-0.029263 -0.156645 
-0.024851 -0.163624 
-0.031940 -0.152904 
-0.017830 -0.172897 
-0.015528 -0.174469 
-0.042676 -0.123537 
-0.040154 -0.132664 
-0.046117 -0.121680 
-0.027409 -0.152767 
-0.033841 -0.143128 
-0.030611 -0.144208 
-0.040042 -0.138201 
-0.037008 -0.141198 
-0.033345 -0.149181 
-0.009430 -0.174206 
-0.007760 -0.173085 
-0.013336 -0.175078 
-0.011294 -0.174928 
-0.018457 -0.161320 
-0.015008 -0.168513 
-0.021065 -0.161306 
-0.026520 -0.159157 
-0.023769 -0.160646 
-0.019781 -0.167871 
-0.015105 -0.018157 
-0.027069 -0.036165 
-0.021628 -0.026380 
-0.030582 -0.062278 
-0.029863 -0.048958 
-0.025289 -0.047135 
-0.040520 -0.057501 
-0.035141 -0.052285 
-0.040405 -0.066760 
-0.021680 -0.112161 
-0.024990 -0.100668 
-0.021522 -0.100107 
-0.032728 -0.101876 
-0.028735 -0.101260 
-0.028749 -0.113317 
-0.025750 -0.074789 
-0.027772 -0.088402 
-0.029748 -0.075531 
-0.049236 -0.103079 
-0.045319 -0.103309 
-0.044447 -0.113772 
-0.043575 -0.079940 
-0.045107 -0.092069 
-0.048088 -0.081988 
-0.036561 -0.114117 
-0.041152 -0.103019 
-0.036904 -0.102488 
-0.034131 -0.076588 
-0.036162 -0.089990 
-0.038812 -0.078057 
-0.001001 -0.164359 
-0.000487 -0.163902 
-0.002234 -0.166121 
-0.001573 -0.165109 
-0.003502 -0.153924 
-0.002580 -0.160035 
-0.004818 -0.154716 
-0.006291 -0.171718 
-0.005019 -0.170235 
-0.009608 -0.157898 
-0.007412 -0.164551 
-0.011549 -0.159023 
-0.003932 -0.168750 
-0.003012 -0.167354 
-0.015239 -0.122067 
-0.014416 -0.132351 
-0.018083 -0.122754 
-0.007623 -0.148346 
-0.010872 -0.140891 
-0.008757 -0.140062 
-0.015655 -0.142651 
-0.013167 -0.141772 
-0.011546 -0.150297 
-0.004707 -0.162022 
-0.007849 -0.156757 
-0.006259 -0.155677 
-0.039038 -0.124535 
-0.031572 -0.124878 
-0.035304 -0.124919 
-0.033279 -0.134936 
-0.027388 -0.144629 
-0.021153 -0.123428 
-0.018338 -0.143463 
-0.020014 -0.133870 
-0.024443 -0.124046 
-0.027930 -0.124554 
-0.010839 -0.167010 
-0.021561 -0.153339 
-0.015984 -0.160851 
-0.013676 -0.160044 
-0.016200 -0.152192 
-0.026390 -0.134965 
-0.021205 -0.144130 
-0.024235 -0.144557 
0.000000 0.000000 
-0.011555 -0.016134 
-0.007888 -0.015342 
-0.009423 -0.015536 
0.000000 0.000000 
-0.018145 -0.031400 
-0.021469 -0.046193 
-0.004027 -0.015356 
-0.004787 -0.015325 
0.000000 0.000000 
-0.013167 -0.045316 
-0.009238 -0.030452 
-0.011092 -0.045229 
0.000000 0.000000 
-0.005658 -0.015299 
-0.006672 -0.015292 
-0.020617 -0.087315 
-0.018333 -0.099578 
-0.022587 -0.060512 
-0.022151 -0.074258 
-0.016023 -0.073534 
-0.018922 -0.073856 
-0.016426 -0.059821 
-0.012878 -0.030571 
-0.015532 -0.045456 
-0.018264 -0.045709 
-0.000000 -0.015458 
-0.000406 -0.015458 
0.000000 0.000000 
-0.001125 -0.044952 
-0.000785 -0.030450 
-0.000000 -0.044945 
0.000000 0.000000 
-0.000820 -0.015455 
-0.001253 -0.015450 
-0.001905 -0.097265 
-0.001809 -0.085138 
-0.000000 -0.097221 
-0.004361 -0.059029 
-0.003323 -0.072406 
-0.005068 -0.072510 
-0.000000 -0.072319 
-0.001645 -0.072342 
-0.001414 -0.058931 
0.000000 0.000000 
-0.002753 -0.015409 
-0.003354 -0.015385 
-0.001713 -0.015441 
-0.002209 -0.015427 
0.000000 0.000000 
-0.006108 -0.045071 
-0.004269 -0.030462 
-0.004740 -0.045030 
-0.002274 -0.044970 
-0.003471 -0.044996 
-0.002423 -0.030457 
-0.000820 -0.158959 
-0.000000 -0.163752 
-0.004310 -0.146807 
-0.002281 -0.153334 
-0.000000 -0.152848 
-0.001124 -0.152971 
-0.001392 -0.145969 
-0.015584 -0.110962 
-0.012611 -0.121403 
-0.007927 -0.120256 
-0.010182 -0.120791 
-0.010407 -0.109895 
-0.009622 -0.130863 
-0.006802 -0.139327 
-0.000000 -0.119225 
-0.001888 -0.119294 
-0.001931 -0.108669 
-0.001613 -0.137993 
-0.001781 -0.129086 
-0.000000 -0.137898 
-0.005945 -0.109097 
-0.003815 -0.119494 
-0.005815 -0.119818 
-0.004980 -0.138722 
-0.005488 -0.129710 
-0.003261 -0.138271 
-0.006475 -0.030455 
-0.007666 -0.059210 
-0.007601 -0.045116 
-0.009251 -0.045167 
-0.011586 -0.059461 
-0.003848 -0.097393 
-0.007996 -0.097882 
-0.005866 -0.097601 
-0.005573 -0.085386 
-0.006915 -0.072650 
-0.015412 -0.099085 
-0.013414 -0.073263 
-0.014693 -0.086496 
-0.012736 -0.098633 
-0.010274 -0.098229 
-0.008897 -0.072823 
-0.009771 -0.085851 
-0.011051 -0.073028 
0.000000 0.000000 
0.000406 -0.015458 
0.001253 -0.015450 
0.000820 -0.015455 
0.000000 0.000000 
0.000785 -0.030450 
0.001125 -0.044952 
0.003354 -0.015385 
0.002753 -0.015409 
0.000000 0.000000 
0.004740 -0.045030 
0.004269 -0.030462 
0.006108 -0.045071 
0.000000 0.000000 
0.002209 -0.015427 
0.001713 -0.015441 
0.001809 -0.085138 
0.001905 -0.097265 
0.001414 -0.058931 
0.001645 -0.072342 
0.005068 -0.072510 
0.003323 -0.072406 
0.004361 -0.059029 
0.002423 -0.030457 
0.003471 -0.044996 
0.002274 -0.044970 
0.015105 -0.018157 
0.011555 -0.016134 
0.000000 0.000000 
0.021469 -0.046193 
0.018145 -0.031400 
0.025289 -0.047135 
0.000000 0.000000 
0.009423 -0.015536 
0.007888 -0.015342 
0.018333 -0.099578 
0.020617 -0.087315 
0.021522 -0.100107 
0.016426 -0.059821 
0.018922 -0.073856 
0.016023 -0.073534 
0.025750 -0.074789 
0.022151 -0.074258 
0.022587 -0.060512 
0.000000 0.000000 
0.004787 -0.015325 
0.004027 -0.015356 
0.006672 -0.015292 
0.005658 -0.015299 
0.000000 0.000000 
0.011092 -0.045229 
0.009238 -0.030452 
0.013167 -0.045316 
0.018264 -0.045709 
0.015532 -0.045456 
0.012878 -0.030571 
0.000820 -0.158959 
0.000487 -0.163902 
0.001392 -0.145969 
0.001124 -0.152971 
0.003502 -0.153924 
0.002281 -0.153334 
0.004310 -0.146807 
0.001931 -0.108669 
0.001888 -0.119294 
0.005815 -0.119818 
0.003815 -0.119494 
0.005945 -0.109097 
0.001781 -0.129086 
0.001613 -0.137993 
0.015239 -0.122067 
0.012611 -0.121403 
0.015584 -0.110962 
0.006802 -0.139327 
0.009622 -0.130863 
0.008757 -0.140062 
0.010407 -0.109895 
0.010182 -0.120791 
0.007927 -0.120256 
0.003261 -0.138271 
0.005488 -0.129710 
0.004980 -0.138722 
0.006475 -0.030455 
0.011586 -0.059461 
0.009251 -0.045167 
0.007601 -0.045116 
0.007666 -0.059210 
0.015412 -0.099085 
0.010274 -0.098229 
0.012736 -0.098633 
0.014693 -0.086496 
0.013414 -0.073263 
0.003848 -0.097393 
0.006915 -0.072650 
0.005573 -0.085386 
0.005866 -0.097601 
0.007996 -0.097882 
0.011051 -0.073028 
0.009771 -0.085851 
0.008897 -0.072823 
0.021628 -0.026380 
0.027069 -0.036165 
0.040405 -0.066760 
0.035141 -0.052285 
0.040520 -0.057501 
0.029863 -0.048958 
0.030582 -0.062278 
0.044447 -0.113772 
0.045319 -0.103309 
0.049236 -0.103079 
0.036904 -0.102488 
0.041152 -0.103019 
0.036561 -0.114117 
0.048088 -0.081988 
0.045107 -0.092069 
0.043575 -0.079940 
0.024990 -0.100668 
0.021680 -0.112161 
0.029748 -0.075531 
0.027772 -0.088402 
0.028749 -0.113317 
0.028735 -0.101260 
0.032728 -0.101876 
0.038812 -0.078057 
0.036162 -0.089990 
0.034131 -0.076588 
0.015371 -0.176260 
0.020193 -0.170151 
0.022561 -0.166018 
0.015528 -0.174469 
0.017830 -0.172897 
0.011092 -0.180463 
0.031940 -0.152904 
0.024851 -0.163624 
0.029263 -0.156645 
0.007760 -0.173085 
0.009430 -0.174206 
0.004514 -0.178261 
0.021065 -0.161306 
0.015008 -0.168513 
0.018457 -0.161320 
0.007396 -0.180572 
0.011294 -0.174928 
0.013336 -0.175078 
0.046117 -0.121680 
0.040154 -0.132664 
0.042676 -0.123537 
0.033345 -0.149181 
0.037008 -0.141198 
0.040042 -0.138201 
0.030611 -0.144208 
0.033841 -0.143128 
0.027409 -0.152767 
0.019781 -0.167871 
0.023769 -0.160646 
0.026520 -0.159157 
0.001001 -0.164359 
0.000133 -0.167770 
0.004818 -0.154716 
0.002580 -0.160035 
0.000511 -0.169120 
0.001573 -0.165109 
0.002234 -0.166121 
0.018083 -0.122754 
0.014416 -0.132351 
0.011546 -0.150297 
0.013167 -0.141772 
0.015655 -0.142651 
0.010872 -0.140891 
0.007623 -0.148346 
0.002491 -0.174933 
0.005019 -0.170235 
0.006291 -0.171718 
0.003012 -0.167354 
0.003932 -0.168750 
0.001222 -0.171648 
0.011549 -0.159023 
0.007412 -0.164551 