# vtk DataFile Version 2.0
Unstructured Grid Example
ASCII
DATASET UNSTRUCTURED_GRID

POINTS 25 float
0.006072 -0.295347 0.000000 
0.993928 -0.295347 0.000000 
1.000000 1.000000 0.000000 
0.000000 1.000000 0.000000 
0.500000 -0.100000 0.000000 
0.961157 0.286885 0.000000 
0.500000 1.000000 0.000000 
0.038843 0.286885 0.000000 
0.500000 0.300277 0.000000 
0.251473 -0.250000 0.000000 
0.500000 0.059016 0.000000 
0.245352 -0.003953 0.000000 
0.748527 -0.250000 0.000000 
0.754648 -0.003953 0.000000 
0.991231 -0.020883 0.000000 
0.734222 0.285223 0.000000 
0.946136 0.613246 0.000000 
0.729937 0.623580 0.000000 
0.750000 1.000000 0.000000 
0.500000 0.631058 0.000000 
0.250000 1.000000 0.000000 
0.270063 0.623580 0.000000 
0.053864 0.613246 0.000000 
0.265778 0.285223 0.000000 
0.008769 -0.020883 0.000000 

CELLS 32 128
3  0 9 11 
3  4 10 9 
3  8 11 10 
3  9 10 11 
3  4 12 10 
3  1 13 12 
3  8 10 13 
3  12 13 10 
3  1 14 13 
3  5 15 14 
3  8 13 15 
3  14 15 13 
3  5 16 15 
3  2 17 16 
3  8 15 17 
3  16 17 15 
3  2 18 17 
3  6 19 18 
3  8 17 19 
3  18 19 17 
3  6 20 19 
3  3 21 20 
3  8 19 21 
3  20 21 19 
3  3 22 21 
3  7 23 22 
3  8 21 23 
3  22 23 21 
3  7 24 23 
3  0 11 24 
3  8 23 11 
3  24 11 23 

CELL_TYPES 32
5
5
5
5
5
5
5
5
5
5
5
5
5
5
5
5
5
5
5
5
5
5
5
5
5
5
5
5
5
5
5
5

POINT_DATA 25

SCALARS u_h float 2
LOOKUP_TABLE default
0.006072 -0.295347 
-0.006072 -0.295347 
0.000000 0.000000 
0.000000 0.000000 
-0.000000 -0.100000 
-0.038843 -0.213115 
0.000000 0.000000 
0.038843 -0.213115 
-0.000000 -0.199723 
0.001473 -0.250000 
-0.000000 -0.190984 
-0.004648 -0.253953 
-0.001473 -0.250000 
0.004648 -0.253953 
-0.008769 -0.270883 
-0.015778 -0.214777 
-0.053864 -0.136754 
-0.020063 -0.126420 
0.000000 0.000000 
-0.000000 -0.118942 
0.000000 0.000000 
0.020063 -0.126420 
0.053864 -0.136754 
0.015778 -0.214777 
0.008769 -0.270883 

CELL_DATA 32

SCALARS epsilon float 4
LOOKUP_TABLE default
-0.013660 0.006113 0.000000 0.079662
-0.005911 0.041719 0.000000 0.471635
0.018420 -0.002737 0.000000 0.130456
0.024845 0.021373 0.000000 0.115868
-0.005911 0.041719 0.000000 -0.471635
-0.013660 0.006113 0.000000 -0.079662
0.018420 -0.002737 0.000000 -0.130456
0.024845 0.021373 0.000000 -0.115868
-0.055752 0.094536 0.000000 -0.036395
-0.089978 0.206024 0.000000 -0.061239
-0.066756 0.141739 0.000000 -0.068745
-0.057340 0.141606 0.000000 -0.071587
-0.094854 0.261682 0.000000 -0.028756
-0.124840 0.422376 0.000000 0.095550
-0.065815 0.295604 0.000000 -0.030669
-0.144601 0.295293 0.000000 -0.024132
0.001420 0.392245 0.000000 0.035601
0.000000 0.374354 0.000000 0.000000
-0.083449 0.274334 0.000000 -0.011217
-0.080057 0.394013 0.000000 0.028814
0.000000 0.374354 0.000000 0.000000
0.001420 0.392245 0.000000 -0.035601
-0.083449 0.274334 0.000000 0.011217
-0.080057 0.394013 0.000000 -0.028814
-0.124840 0.422376 0.000000 -0.095550
-0.094854 0.261682 0.000000 0.028756
-0.065815 0.295604 0.000000 0.030669
-0.144601 0.295293 0.000000 0.024132
-0.089978 0.206024 0.000000 0.061239
-0.055752 0.094536 0.000000 0.036395
-0.066756 0.141739 0.000000 0.068745
-0.057340 0.141606 0.000000 0.071587

SCALARS sigma float 4
LOOKUP_TABLE default
-0.485817 -0.442190 -0.254947 1.325673
-5.878217 -15.164606 -5.780995 7.780938
0.119674 -0.773706 -0.179679 2.101128
0.541818 -0.017594 0.144018 1.848603
-5.878217 -15.164606 -5.780995 -7.780938
-0.485817 -0.442190 -0.254947 -1.325673
0.119674 -0.773706 -0.179679 -2.101128
0.541818 -0.017594 0.144018 -1.848603
-0.631920 1.761667 0.310370 -0.620064
-0.779613 3.962133 0.874319 -0.833317
-0.591639 2.750087 0.592980 -1.078788
-0.328135 2.839744 0.690003 -1.125043
-0.331097 5.171099 1.329671 -0.369596
-0.346741 7.960855 2.091790 1.060134
0.803963 6.195780 1.923006 -0.500669
-1.538923 5.311813 1.036508 -0.409942
3.358480 8.866386 3.358480 0.437064
3.223876 8.511033 3.223876 0.000000
0.138559 5.574633 1.569558 -0.201536
1.116077 8.042976 2.516223 0.297584
3.223876 8.511033 3.223876 0.000000
3.358480 8.866386 3.358480 -0.437064
0.138559 5.574633 1.569558 0.201536
1.116077 8.042976 2.516223 -0.297584
-0.346741 7.960855 2.091790 -1.060134
-0.331097 5.171099 1.329671 0.369596
0.803963 6.195780 1.923006 0.500669
-1.538923 5.311813 1.036508 0.409942
-0.779613 3.962133 0.874319 0.833317
-0.631920 1.761667 0.310370 0.620064
-0.591639 2.750087 0.592980 1.078788
-0.328135 2.839744 0.690003 1.125043

