# vtk DataFile Version 2.0
Unstructured Grid Example
ASCII
DATASET UNSTRUCTURED_GRID

POINTS 256 float
0.000000 0.000000 0.000000 
0.007812 0.000000 0.000000 
0.007812 0.000000 0.000000 
0.015625 0.000000 0.000000 
0.015625 0.000000 0.000000 
0.023438 0.000000 0.000000 
0.023438 0.000000 0.000000 
0.031250 0.000000 0.000000 
0.046875 0.000000 0.000000 
0.054688 0.000000 0.000000 
0.054688 0.000000 0.000000 
0.062500 0.000000 0.000000 
0.031250 0.000000 0.000000 
0.039062 0.000000 0.000000 
0.039062 0.000000 0.000000 
0.046875 0.000000 0.000000 
0.109375 0.000000 0.000000 
0.117188 0.000000 0.000000 
0.117188 0.000000 0.000000 
0.125000 0.000000 0.000000 
0.093750 0.000000 0.000000 
0.101562 0.000000 0.000000 
0.101562 0.000000 0.000000 
0.109375 0.000000 0.000000 
0.062500 0.000000 0.000000 
0.070312 0.000000 0.000000 
0.070312 0.000000 0.000000 
0.078125 0.000000 0.000000 
0.078125 0.000000 0.000000 
0.085938 0.000000 0.000000 
0.085938 0.000000 0.000000 
0.093750 0.000000 0.000000 
0.234375 0.000000 0.000000 
0.242188 0.000000 0.000000 
0.242188 0.000000 0.000000 
0.250000 0.000000 0.000000 
0.218750 0.000000 0.000000 
0.226562 0.000000 0.000000 
0.226562 0.000000 0.000000 
0.234375 0.000000 0.000000 
0.187500 0.000000 0.000000 
0.195312 0.000000 0.000000 
0.195312 0.000000 0.000000 
0.203125 0.000000 0.000000 
0.203125 0.000000 0.000000 
0.210938 0.000000 0.000000 
0.210938 0.000000 0.000000 
0.218750 0.000000 0.000000 
0.125000 0.000000 0.000000 
0.132812 0.000000 0.000000 
0.132812 0.000000 0.000000 
0.140625 0.000000 0.000000 
0.140625 0.000000 0.000000 
0.148438 0.000000 0.000000 
0.148438 0.000000 0.000000 
0.156250 0.000000 0.000000 
0.171875 0.000000 0.000000 
0.179688 0.000000 0.000000 
0.179688 0.000000 0.000000 
0.187500 0.000000 0.000000 
0.156250 0.000000 0.000000 
0.164062 0.000000 0.000000 
0.164062 0.000000 0.000000 
0.171875 0.000000 0.000000 
0.484375 -39.067823 0.000000 
0.492188 19.533912 0.000000 
0.492188 347.518306 0.000000 
0.500000 -695.036612 0.000000 
0.468750 -10.409024 0.000000 
0.476562 -20.202639 0.000000 
0.476562 -14.342291 0.000000 
0.484375 -22.129722 0.000000 
0.437500 -7.436727 0.000000 
0.445312 -10.124183 0.000000 
0.445312 -8.136755 0.000000 
0.453125 -11.411583 0.000000 
0.453125 -8.922440 0.000000 
0.460938 -13.115041 0.000000 
0.460938 -9.761452 0.000000 
0.468750 -15.629618 0.000000 
0.375000 -3.749564 0.000000 
0.382812 -4.877959 0.000000 
0.382812 -4.099398 0.000000 
0.390625 -5.306686 0.000000 
0.390625 -4.469919 0.000000 
0.398438 -5.772933 0.000000 
0.398438 -4.865283 0.000000 
0.406250 -6.285218 0.000000 
0.421875 -6.256465 0.000000 
0.429688 -8.231887 0.000000 
0.429688 -6.814280 0.000000 
0.437500 -9.091679 0.000000 
0.406250 -5.290497 0.000000 
0.414062 -6.854724 0.000000 
0.414062 -5.751692 0.000000 
0.421875 -7.496562 0.000000 
0.250000 0.000000 0.000000 
0.257812 0.000000 0.000000 
0.257812 0.000000 0.000000 
0.265625 0.000000 0.000000 
0.265625 0.000000 0.000000 
0.273438 0.000000 0.000000 
0.273438 0.336440 0.000000 
0.281250 -0.672880 0.000000 
0.296875 -0.741848 0.000000 
0.304688 -1.634451 0.000000 
0.304688 -1.045718 0.000000 
0.312500 -1.919314 0.000000 
0.281250 0.052778 0.000000 
0.289062 -1.114876 0.000000 
0.289062 -0.411934 0.000000 
0.296875 -1.353106 0.000000 
0.359375 -3.098342 0.000000 
0.367188 -4.107772 0.000000 
0.367188 -3.416895 0.000000 
0.375000 -4.480095 0.000000 
0.343750 -2.492907 0.000000 
0.351562 -3.423047 0.000000 
0.351562 -2.791182 0.000000 
0.359375 -3.756637 0.000000 
0.312500 -1.338938 0.000000 
0.320312 -2.206469 0.000000 
0.320312 -1.626917 0.000000 
0.328125 -2.498043 0.000000 
0.328125 -1.913309 0.000000 
0.335938 -2.796384 0.000000 
0.335938 -2.201098 0.000000 
0.343750 -3.103881 0.000000 
0.500000 -695.036612 0.000000 
0.507812 347.518306 0.000000 
0.507812 19.459345 0.000000 
0.515625 -38.918689 0.000000 
0.515625 -21.979544 0.000000 
0.523438 -14.418947 0.000000 
0.523438 -20.207321 0.000000 
0.531250 -10.402794 0.000000 
0.546875 -11.408314 0.000000 
0.554688 -8.134171 0.000000 
0.554688 -10.121148 0.000000 
0.562500 -7.434362 0.000000 
0.531250 -15.627594 0.000000 
0.539062 -9.757723 0.000000 
0.539062 -13.111760 0.000000 
0.546875 -8.919520 0.000000 
0.609375 -5.304885 0.000000 
0.617188 -4.097895 0.000000 
0.617188 -4.876265 0.000000 
0.625000 -3.748144 0.000000 
0.593750 -6.283167 0.000000 
0.601562 -4.863592 0.000000 
0.601562 -5.771013 0.000000 
0.609375 -4.468325 0.000000 
0.562500 -9.088891 0.000000 
0.570312 -6.812088 0.000000 
0.570312 -8.229323 0.000000 
0.578125 -6.254421 0.000000 
0.578125 -7.494193 0.000000 
0.585938 -5.749778 0.000000 
0.585938 -6.852525 0.000000 
0.593750 -5.288701 0.000000 
0.734375 0.000000 0.000000 
0.742188 0.000000 0.000000 
0.742188 0.000000 0.000000 
0.750000 0.000000 0.000000 
0.718750 -0.670814 0.000000 
0.726562 0.335407 0.000000 
0.726562 0.000000 0.000000 
0.734375 0.000000 0.000000 
0.687500 -1.918315 0.000000 
0.695312 -1.044885 0.000000 
0.695312 -1.633513 0.000000 
0.703125 -0.741058 0.000000 
0.703125 -1.352245 0.000000 
0.710938 -0.411139 0.000000 
0.710938 -1.114275 0.000000 
0.718750 0.054027 0.000000 
0.625000 -4.478499 0.000000 
0.632812 -3.415555 0.000000 
0.632812 -4.106266 0.000000 
0.640625 -3.097076 0.000000 
0.640625 -3.755215 0.000000 
0.648438 -2.789988 0.000000 
0.648438 -3.421705 0.000000 
0.656250 -2.491780 0.000000 
0.671875 -2.496915 0.000000 
0.679688 -1.625976 0.000000 
0.679688 -2.205407 0.000000 
0.687500 -1.338053 0.000000 
0.656250 -3.102615 0.000000 
0.664062 -2.200036 0.000000 
0.664062 -2.795189 0.000000 
0.671875 -1.912309 0.000000 
0.984375 0.000000 0.000000 
0.992188 0.000000 0.000000 
0.992188 0.000000 0.000000 
1.000000 0.000000 0.000000 
0.968750 0.000000 0.000000 
0.976562 0.000000 0.000000 
0.976562 0.000000 0.000000 
0.984375 0.000000 0.000000 
0.937500 0.000000 0.000000 
0.945312 0.000000 0.000000 
0.945312 0.000000 0.000000 
0.953125 0.000000 0.000000 
0.953125 0.000000 0.000000 
0.960938 0.000000 0.000000 
0.960938 0.000000 0.000000 
0.968750 0.000000 0.000000 
0.875000 0.000000 0.000000 
0.882812 0.000000 0.000000 
0.882812 0.000000 0.000000 
0.890625 0.000000 0.000000 
0.890625 0.000000 0.000000 
0.898438 0.000000 0.000000 
0.898438 0.000000 0.000000 
0.906250 0.000000 0.000000 
0.921875 0.000000 0.000000 
0.929688 0.000000 0.000000 
0.929688 0.000000 0.000000 
0.937500 0.000000 0.000000 
0.906250 0.000000 0.000000 
0.914062 0.000000 0.000000 
0.914062 0.000000 0.000000 
0.921875 0.000000 0.000000 
0.750000 0.000000 0.000000 
0.757812 0.000000 0.000000 
0.757812 0.000000 0.000000 
0.765625 0.000000 0.000000 
0.765625 0.000000 0.000000 
0.773438 0.000000 0.000000 
0.773438 0.000000 0.000000 
0.781250 0.000000 0.000000 
0.796875 0.000000 0.000000 
0.804688 0.000000 0.000000 
0.804688 0.000000 0.000000 
0.812500 0.000000 0.000000 
0.781250 0.000000 0.000000 
0.789062 0.000000 0.000000 
0.789062 0.000000 0.000000 
0.796875 0.000000 0.000000 
0.859375 0.000000 0.000000 
0.867188 0.000000 0.000000 
0.867188 0.000000 0.000000 
0.875000 0.000000 0.000000 
0.843750 0.000000 0.000000 
0.851562 0.000000 0.000000 
0.851562 0.000000 0.000000 
0.859375 0.000000 0.000000 
0.812500 0.000000 0.000000 
0.820312 0.000000 0.000000 
0.820312 0.000000 0.000000 
0.828125 0.000000 0.000000 
0.828125 0.000000 0.000000 
0.835938 0.000000 0.000000 
0.835938 0.000000 0.000000 
0.843750 0.000000 0.000000 

CELLS 128 384
2  0 1 
2  2 3 
2  4 5 
2  6 7 
2  8 9 
2  10 11 
2  12 13 
2  14 15 
2  16 17 
2  18 19 
2  20 21 
2  22 23 
2  24 25 
2  26 27 
2  28 29 
2  30 31 
2  32 33 
2  34 35 
2  36 37 
2  38 39 
2  40 41 
2  42 43 
2  44 45 
2  46 47 
2  48 49 
2  50 51 
2  52 53 
2  54 55 
2  56 57 
2  58 59 
2  60 61 
2  62 63 
2  64 65 
2  66 67 
2  68 69 
2  70 71 
2  72 73 
2  74 75 
2  76 77 
2  78 79 
2  80 81 
2  82 83 
2  84 85 
2  86 87 
2  88 89 
2  90 91 
2  92 93 
2  94 95 
2  96 97 
2  98 99 
2  100 101 
2  102 103 
2  104 105 
2  106 107 
2  108 109 
2  110 111 
2  112 113 
2  114 115 
2  116 117 
2  118 119 
2  120 121 
2  122 123 
2  124 125 
2  126 127 
2  128 129 
2  130 131 
2  132 133 
2  134 135 
2  136 137 
2  138 139 
2  140 141 
2  142 143 
2  144 145 
2  146 147 
2  148 149 
2  150 151 
2  152 153 
2  154 155 
2  156 157 
2  158 159 
2  160 161 
2  162 163 
2  164 165 
2  166 167 
2  168 169 
2  170 171 
2  172 173 
2  174 175 
2  176 177 
2  178 179 
2  180 181 
2  182 183 
2  184 185 
2  186 187 
2  188 189 
2  190 191 
2  192 193 
2  194 195 
2  196 197 
2  198 199 
2  200 201 
2  202 203 
2  204 205 
2  206 207 
2  208 209 
2  210 211 
2  212 213 
2  214 215 
2  216 217 
2  218 219 
2  220 221 
2  222 223 
2  224 225 
2  226 227 
2  228 229 
2  230 231 
2  232 233 
2  234 235 
2  236 237 
2  238 239 
2  240 241 
2  242 243 
2  244 245 
2  246 247 
2  248 249 
2  250 251 
2  252 253 
2  254 255 

CELL_TYPES 128
3
3
3
3
3
3
3
3
3
3
3
3
3
3
3
3
3
3
3
3
3
3
3
3
3
3
3
3
3
3
3
3
3
3
3
3
3
3
3
3
3
3
3
3
3
3
3
3
3
3
3
3
3
3
3
3
3
3
3
3
3
3
3
3
3
3
3
3
3
3
3
3
3
3
3
3
3
3
3
3
3
3
3
3
3
3
3
3
3
3
3
3
3
3
3
3
3
3
3
3
3
3
3
3
3
3
3
3
3
3
3
3
3
3
3
3
3
3
3
3
3
3
3
3
3
3
3
3

POINT_DATA 256

SCALARS lambda_h float 1
LOOKUP_TABLE default
0.000000 
0.000000 
0.000000 
0.000000 
0.000000 
0.000000 
0.000000 
0.000000 
0.000000 
0.000000 
0.000000 
0.000000 
0.000000 
0.000000 
0.000000 
0.000000 
0.000000 
0.000000 
0.000000 
0.000000 
0.000000 
0.000000 
0.000000 
0.000000 
0.000000 
0.000000 
0.000000 
0.000000 
0.000000 
0.000000 
0.000000 
0.000000 
0.000000 
0.000000 
0.000000 
0.000000 
0.000000 
0.000000 
0.000000 
0.000000 
0.000000 
0.000000 
0.000000 
0.000000 
0.000000 
0.000000 
0.000000 
0.000000 
0.000000 
0.000000 
0.000000 
0.000000 
0.000000 
0.000000 
0.000000 
0.000000 
0.000000 
0.000000 
0.000000 
0.000000 
0.000000 
0.000000 
0.000000 
0.000000 
-39.067823 
19.533912 
347.518306 
-695.036612 
-10.409024 
-20.202639 
-14.342291 
-22.129722 
-7.436727 
-10.124183 
-8.136755 
-11.411583 
-8.922440 
-13.115041 
-9.761452 
-15.629618 
-3.749564 
-4.877959 
-4.099398 
-5.306686 
-4.469919 
-5.772933 
-4.865283 
-6.285218 
-6.256465 
-8.231887 
-6.814280 
-9.091679 
-5.290497 
-6.854724 
-5.751692 
-7.496562 
0.000000 
0.000000 
0.000000 
0.000000 
0.000000 
0.000000 
0.336440 
-0.672880 
-0.741848 
-1.634451 
-1.045718 
-1.919314 
0.052778 
-1.114876 
-0.411934 
-1.353106 
-3.098342 
-4.107772 
-3.416895 
-4.480095 
-2.492907 
-3.423047 
-2.791182 
-3.756637 
-1.338938 
-2.206469 
-1.626917 
-2.498043 
-1.913309 
-2.796384 
-2.201098 
-3.103881 
-695.036612 
347.518306 
19.459345 
-38.918689 
-21.979544 
-14.418947 
-20.207321 
-10.402794 
-11.408314 
-8.134171 
-10.121148 
-7.434362 
-15.627594 
-9.757723 
-13.111760 
-8.919520 
-5.304885 
-4.097895 
-4.876265 
-3.748144 
-6.283167 
-4.863592 
-5.771013 
-4.468325 
-9.088891 
-6.812088 
-8.229323 
-6.254421 
-7.494193 
-5.749778 
-6.852525 
-5.288701 
0.000000 
0.000000 
0.000000 
0.000000 
-0.670814 
0.335407 
0.000000 
0.000000 
-1.918315 
-1.044885 
-1.633513 
-0.741058 
-1.352245 
-0.411139 
-1.114275 
0.054027 
-4.478499 
-3.415555 
-4.106266 
-3.097076 
-3.755215 
-2.789988 
-3.421705 
-2.491780 
-2.496915 
-1.625976 
-2.205407 
-1.338053 
-3.102615 
-2.200036 
-2.795189 
-1.912309 
0.000000 
0.000000 
0.000000 
0.000000 
0.000000 
0.000000 
0.000000 
0.000000 
0.000000 
0.000000 
0.000000 
0.000000 
0.000000 
0.000000 
0.000000 
0.000000 
0.000000 
0.000000 
0.000000 
0.000000 
0.000000 
0.000000 
0.000000 
0.000000 
0.000000 
0.000000 
0.000000 
0.000000 
0.000000 
0.000000 
0.000000 
0.000000 
0.000000 
0.000000 
0.000000 
0.000000 
0.000000 
0.000000 
0.000000 
0.000000 
0.000000 
0.000000 
0.000000 
0.000000 
0.000000 
0.000000 
0.000000 
0.000000 
0.000000 
0.000000 
0.000000 
0.000000 
0.000000 
0.000000 
0.000000 
0.000000 
0.000000 
0.000000 
0.000000 
0.000000 
0.000000 
0.000000 
0.000000 
0.000000 

