# vtk DataFile Version 2.0
Unstructured Grid Example
ASCII
DATASET UNSTRUCTURED_GRID

POINTS 32 float
0.000000 0.000000 0.000000 
0.062500 0.000000 0.000000 
0.062500 0.000000 0.000000 
0.125000 0.000000 0.000000 
0.125000 0.000000 0.000000 
0.187500 0.000000 0.000000 
0.187500 0.000000 0.000000 
0.250000 0.000000 0.000000 
0.375000 -5.016588 0.000000 
0.437500 -2.173191 0.000000 
0.437500 60.638398 0.000000 
0.500000 -130.639767 0.000000 
0.250000 1.340821 0.000000 
0.312500 -2.681642 0.000000 
0.312500 1.387147 0.000000 
0.375000 -6.796757 0.000000 
0.500000 -130.639767 0.000000 
0.562500 60.638398 0.000000 
0.562500 -2.173191 0.000000 
0.625000 -5.016588 0.000000 
0.625000 -6.796757 0.000000 
0.687500 1.387147 0.000000 
0.687500 -2.681642 0.000000 
0.750000 1.340821 0.000000 
0.875000 0.000000 0.000000 
0.937500 0.000000 0.000000 
0.937500 0.000000 0.000000 
1.000000 0.000000 0.000000 
0.750000 0.000000 0.000000 
0.812500 0.000000 0.000000 
0.812500 0.000000 0.000000 
0.875000 0.000000 0.000000 

CELLS 16 48
2  0 1 
2  2 3 
2  4 5 
2  6 7 
2  8 9 
2  10 11 
2  12 13 
2  14 15 
2  16 17 
2  18 19 
2  20 21 
2  22 23 
2  24 25 
2  26 27 
2  28 29 
2  30 31 

CELL_TYPES 16
3
3
3
3
3
3
3
3
3
3
3
3
3
3
3
3

POINT_DATA 32

SCALARS lambda_h float 1
LOOKUP_TABLE default
0.000000 
0.000000 
0.000000 
0.000000 
0.000000 
0.000000 
0.000000 
0.000000 
-5.016588 
-2.173191 
60.638398 
-130.639767 
1.340821 
-2.681642 
1.387147 
-6.796757 
-130.639767 
60.638398 
-2.173191 
-5.016588 
-6.796757 
1.387147 
-2.681642 
1.340821 
0.000000 
0.000000 
0.000000 
0.000000 
0.000000 
0.000000 
0.000000 
0.000000 

