# vtk DataFile Version 2.0
Unstructured Grid Example
ASCII
DATASET UNSTRUCTURED_GRID

POINTS 16641 float
0.064018 -0.396041 0.000000 
0.936000 -0.396093 0.000000 
1.000000 1.000000 0.000000 
0.000000 1.000000 0.000000 
0.500013 -0.100000 0.000000 
0.966676 0.222656 0.000000 
0.500000 1.000000 0.000000 
0.033464 0.222668 0.000000 
0.500090 0.243181 0.000000 
0.301579 -0.295179 0.000000 
0.500053 0.009763 0.000000 
0.236146 -0.058069 0.000000 
0.698448 -0.295204 0.000000 
0.763938 -0.058096 0.000000 
0.993541 -0.112970 0.000000 
0.743597 0.222266 0.000000 
0.915150 0.574367 0.000000 
0.711488 0.573180 0.000000 
0.750000 1.000000 0.000000 
0.500106 0.581032 0.000000 
0.250000 1.000000 0.000000 
0.288728 0.573105 0.000000 
0.085032 0.574269 0.000000 
0.256565 0.222257 0.000000 
0.006528 -0.112908 0.000000 
0.184839 -0.356444 0.000000 
0.251596 -0.183189 0.000000 
0.141680 -0.232845 0.000000 
0.500033 -0.067349 0.000000 
0.363410 -0.116708 0.000000 
0.390898 -0.209102 0.000000 
0.366674 0.101957 0.000000 
0.360264 -0.013910 0.000000 
0.500072 0.114100 0.000000 
0.609121 -0.209121 0.000000 
0.636642 -0.116733 0.000000 
0.858364 -0.232883 0.000000 
0.748451 -0.183218 0.000000 
0.815186 -0.356478 0.000000 
0.639833 -0.013931 0.000000 
0.633464 0.101949 0.000000 
0.972220 -0.266464 0.000000 
0.880061 -0.094474 0.000000 
0.858088 0.212199 0.000000 
0.877196 0.054198 0.000000 
0.989102 0.053291 0.000000 
0.759125 0.075833 0.000000 
0.623766 0.236728 0.000000 
0.938506 0.395049 0.000000 
0.833359 0.382103 0.000000 
0.813676 0.776575 0.000000 
0.813420 0.568486 0.000000 
0.909824 0.764331 0.000000 
0.725117 0.386573 0.000000 
0.613713 0.394876 0.000000 
0.875000 1.000000 0.000000 
0.714120 0.782379 0.000000 
0.500081 0.786038 0.000000 
0.608681 0.785096 0.000000 
0.625000 1.000000 0.000000 
0.606902 0.578734 0.000000 
0.500103 0.398623 0.000000 
0.375000 1.000000 0.000000 
0.391494 0.785071 0.000000 
0.186594 0.776379 0.000000 
0.286098 0.782301 0.000000 
0.125000 1.000000 0.000000 
0.393312 0.578700 0.000000 
0.386490 0.394855 0.000000 
0.090408 0.764182 0.000000 
0.186783 0.568378 0.000000 
0.142062 0.212192 0.000000 
0.166819 0.382054 0.000000 
0.061657 0.395011 0.000000 
0.275077 0.386533 0.000000 
0.376409 0.236723 0.000000 
0.011006 0.053337 0.000000 
0.122918 0.054220 0.000000 
0.120015 -0.094438 0.000000 
0.027818 -0.266405 0.000000 
0.241000 0.075846 0.000000 
0.123903 -0.377395 0.000000 
0.161626 -0.296911 0.000000 
0.103738 -0.316249 0.000000 
0.270686 -0.241868 0.000000 
0.217737 -0.272867 0.000000 
0.245328 -0.329881 0.000000 
0.184059 -0.145670 0.000000 
0.197232 -0.210813 0.000000 
0.240649 -0.121689 0.000000 
0.500021 -0.091206 0.000000 
0.429533 -0.123510 0.000000 
0.438433 -0.161567 0.000000 
0.426649 -0.042984 0.000000 
0.426128 -0.084707 0.000000 
0.500043 -0.032694 0.000000 
0.347135 -0.252865 0.000000 
0.373339 -0.164262 0.000000 
0.321451 -0.204300 0.000000 
0.435271 0.173172 0.000000 
0.432704 0.110858 0.000000 
0.500081 0.175508 0.000000 
0.296583 -0.035721 0.000000 
0.362830 0.041997 0.000000 
0.298370 0.025354 0.000000 
0.500063 0.058837 0.000000 
0.430352 0.054257 0.000000 
0.428287 0.003087 0.000000 
0.306254 -0.150851 0.000000 
0.359868 -0.066576 0.000000 
0.298638 -0.094403 0.000000 
0.561580 -0.161580 0.000000 
0.570500 -0.123528 0.000000 
0.678582 -0.204326 0.000000 
0.626694 -0.164285 0.000000 
0.652888 -0.252888 0.000000 
0.573931 -0.084726 0.000000 
0.573433 -0.043000 0.000000 
0.896292 -0.316293 0.000000 
0.838407 -0.296948 0.000000 
0.876118 -0.377437 0.000000 
0.759416 -0.121719 0.000000 
0.802814 -0.210845 0.000000 
0.816002 -0.145703 0.000000 
0.754700 -0.329908 0.000000 
0.782297 -0.272897 0.000000 
0.729348 -0.241896 0.000000 
0.567439 0.110853 0.000000 
0.564890 0.173171 0.000000 
0.571816 0.003075 0.000000 
0.569771 0.054249 0.000000 
0.701741 0.025336 0.000000 
0.637288 0.041982 0.000000 
0.703507 -0.035745 0.000000 
0.693795 -0.150879 0.000000 
0.701431 -0.094430 0.000000 
0.640207 -0.066599 0.000000 
0.954518 -0.334190 0.000000 
0.915159 -0.250572 0.000000 
0.937227 -0.106185 0.000000 
0.929373 -0.180313 0.000000 
0.985983 -0.192272 0.000000 
0.872508 -0.165166 0.000000 
0.822444 -0.078205 0.000000 
0.913188 0.213687 0.000000 
0.925061 0.131047 0.000000 
0.979353 0.137749 0.000000 
0.811373 0.138004 0.000000 
0.869000 0.131939 0.000000 
0.801534 0.215759 0.000000 
0.994320 -0.030569 0.000000 
0.933996 0.050105 0.000000 
0.938498 -0.029114 0.000000 
0.628840 0.166664 0.000000 
0.562214 0.241527 0.000000 
0.763416 0.007623 0.000000 
0.697392 0.089452 0.000000 
0.684310 0.229827 0.000000 
0.691350 0.157370 0.000000 
0.752188 0.147150 0.000000 
0.881308 -0.021271 0.000000 
0.818948 0.063406 0.000000 
0.823047 -0.008544 0.000000 
0.952640 0.308235 0.000000 
0.899833 0.298297 0.000000 
0.873905 0.475389 0.000000 
0.886308 0.385341 0.000000 
0.925556 0.483602 0.000000 
0.845789 0.295405 0.000000 
0.790583 0.297263 0.000000 
0.878356 0.882152 0.000000 
0.861380 0.770934 0.000000 
0.922234 0.866130 0.000000 
0.762700 0.570321 0.000000 
0.809486 0.669522 0.000000 
0.760036 0.672466 0.000000 
0.909025 0.667765 0.000000 
0.858794 0.667230 0.000000 
0.864073 0.569088 0.000000 
0.618586 0.312660 0.000000 
0.559540 0.316257 0.000000 
0.734270 0.301864 0.000000 
0.676901 0.307482 0.000000 
0.663704 0.480425 0.000000 
0.669786 0.390889 0.000000 
0.717125 0.476908 0.000000 
0.822073 0.472909 0.000000 
0.769876 0.473980 0.000000 
0.779639 0.383136 0.000000 
0.937500 1.000000 0.000000 
0.832163 0.889204 0.000000 
0.726989 0.892073 0.000000 
0.780930 0.891239 0.000000 
0.812500 1.000000 0.000000 
0.764749 0.780110 0.000000 
0.709782 0.675298 0.000000 
0.500048 0.893074 0.000000 
0.557601 0.892995 0.000000 
0.562500 1.000000 0.000000 
0.553385 0.680901 0.000000 
0.554581 0.785788 0.000000 
0.500099 0.681333 0.000000 
0.687500 1.000000 0.000000 
0.614839 0.892816 0.000000 
0.671434 0.892525 0.000000 
0.557065 0.397640 0.000000 
0.500097 0.317534 0.000000 
0.659561 0.576181 0.000000 
0.609621 0.483600 0.000000 
0.500107 0.486543 0.000000 
0.555009 0.485772 0.000000 
0.553663 0.580433 0.000000 
0.661985 0.783972 0.000000 
0.606300 0.679674 0.000000 
0.658512 0.677757 0.000000 
0.437500 1.000000 0.000000 
0.442498 0.892991 0.000000 
0.328696 0.892506 0.000000 
0.385270 0.892807 0.000000 
0.312500 1.000000 0.000000 
0.445583 0.785777 0.000000 
0.446814 0.680886 0.000000 
0.122115 0.881802 0.000000 
0.168194 0.889020 0.000000 
0.062500 1.000000 0.000000 
0.290442 0.675213 0.000000 
0.235500 0.779980 0.000000 
0.240193 0.672346 0.000000 
0.187500 1.000000 0.000000 
0.219307 0.891157 0.000000 
0.273178 0.892035 0.000000 
0.443141 0.397629 0.000000 
0.440653 0.316250 0.000000 
0.446550 0.580417 0.000000 
0.445204 0.485758 0.000000 
0.336506 0.480382 0.000000 
0.390592 0.483572 0.000000 
0.340655 0.576127 0.000000 
0.338208 0.783927 0.000000 
0.341702 0.677701 0.000000 
0.393905 0.679641 0.000000 
0.078128 0.866084 0.000000 
0.138876 0.770718 0.000000 
0.136119 0.568980 0.000000 
0.141416 0.667079 0.000000 
0.091172 0.667635 0.000000 
0.190738 0.669373 0.000000 
0.237513 0.570226 0.000000 
0.086956 0.213687 0.000000 
0.100326 0.298276 0.000000 
0.047513 0.308223 0.000000 
0.209589 0.297236 0.000000 
0.154376 0.295380 0.000000 
0.198622 0.215749 0.000000 
0.074617 0.483535 0.000000 
0.113862 0.385295 0.000000 
0.126276 0.475314 0.000000 
0.381604 0.312647 0.000000 
0.437964 0.241525 0.000000 
0.283081 0.476850 0.000000 
0.330414 0.390858 0.000000 
0.315859 0.229819 0.000000 
0.323284 0.307463 0.000000 
0.265910 0.301840 0.000000 
0.178118 0.472833 0.000000 
0.220547 0.383089 0.000000 
0.230323 0.473911 0.000000 
0.020772 0.137780 0.000000 
0.075067 0.131065 0.000000 
0.061592 -0.029074 0.000000 
0.066114 0.050136 0.000000 
0.005768 -0.030513 0.000000 
0.131133 0.131948 0.000000 
0.188765 0.138008 0.000000 
0.084882 -0.250525 0.000000 
0.045509 -0.334135 0.000000 
0.177636 -0.078175 0.000000 
0.127551 -0.165127 0.000000 
0.014069 -0.192211 0.000000 
0.070682 -0.180265 0.000000 
0.062845 -0.106139 0.000000 
0.371317 0.166666 0.000000 
0.247957 0.147153 0.000000 
0.308801 0.157372 0.000000 
0.302740 0.089464 0.000000 
0.236689 0.007644 0.000000 
0.118786 -0.021240 0.000000 
0.177053 -0.008519 0.000000 
0.181172 0.063423 0.000000 
0.093840 -0.386791 0.000000 
0.113930 -0.347357 0.000000 
0.084322 -0.356515 0.000000 
0.173087 -0.327297 0.000000 
0.143569 -0.337766 0.000000 
0.154279 -0.367427 0.000000 
0.122599 -0.275081 0.000000 
0.132806 -0.306987 0.000000 
0.151031 -0.265387 0.000000 
0.284234 -0.269555 0.000000 
0.258213 -0.286939 0.000000 
0.274341 -0.313663 0.000000 
0.233491 -0.228459 0.000000 
0.244646 -0.258322 0.000000 
0.259981 -0.212963 0.000000 
0.215317 -0.344045 0.000000 
0.230754 -0.302196 0.000000 
0.202251 -0.315553 0.000000 
0.208740 -0.101623 0.000000 
0.212278 -0.134207 0.000000 
0.237682 -0.090130 0.000000 
0.169638 -0.222487 0.000000 
0.189757 -0.178564 0.000000 
0.161891 -0.189594 0.000000 
0.245225 -0.152728 0.000000 
0.217484 -0.166254 0.000000 
0.224502 -0.197707 0.000000 
0.190004 -0.285645 0.000000 
0.206547 -0.242308 0.000000 
0.179049 -0.254554 0.000000 
0.500015 -0.097376 0.000000 
0.463741 -0.118017 0.000000 
0.466397 -0.133603 0.000000 
0.460954 -0.088686 0.000000 
0.461263 -0.103745 0.000000 
0.500027 -0.080944 0.000000 
0.413894 -0.186106 0.000000 
0.433714 -0.142201 0.000000 
0.406577 -0.165023 0.000000 
0.463290 -0.014492 0.000000 
0.462697 -0.035443 0.000000 
0.500048 -0.012342 0.000000 
0.393775 -0.100070 0.000000 
0.426149 -0.064309 0.000000 
0.392608 -0.077263 0.000000 
0.500038 -0.051121 0.000000 
0.462079 -0.054773 0.000000 
0.461446 -0.072477 0.000000 
0.325626 -0.274374 0.000000 
0.332699 -0.229337 0.000000 
0.308773 -0.250036 0.000000 
0.381153 -0.186951 0.000000 
0.356692 -0.208317 0.000000 
0.368767 -0.231233 0.000000 
0.339723 -0.159534 0.000000 
0.347087 -0.184418 0.000000 
0.367447 -0.140846 0.000000 
0.427044 -0.104393 0.000000 
0.396334 -0.122295 0.000000 
[...]
POINT_DATA 16641

SCALARS u_h float 2
LOOKUP_TABLE default
0.064018 -0.396041 
-0.064000 -0.396093 
0.000000 0.000000 
0.000000 0.000000 
0.000013 -0.100000 
-0.033324 -0.277344 
0.000000 0.000000 
0.033464 -0.277332 
0.000090 -0.256819 
0.051579 -0.295179 
0.000053 -0.240237 
-0.013854 -0.308069 
-0.051552 -0.295204 
0.013938 -0.308096 
-0.006459 -0.362970 
-0.006403 -0.277734 
-0.084850 -0.175633 
-0.038512 -0.176820 
0.000000 0.000000 
0.000106 -0.168968 
0.000000 0.000000 
0.038728 -0.176895 
0.085032 -0.175731 
0.006565 -0.277743 
0.006528 -0.362908 
0.059839 -0.356444 
0.001596 -0.308189 
0.016680 -0.357845 
0.000033 -0.192349 
-0.011590 -0.241708 
0.015898 -0.209102 
-0.008326 -0.273043 
-0.014736 -0.263910 
0.000072 -0.260900 
-0.015879 -0.209121 
0.011642 -0.241733 
-0.016636 -0.357883 
-0.001549 -0.308218 
-0.059814 -0.356478 
0.014833 -0.263931 
0.008464 -0.273051 
-0.027780 -0.391464 
0.005061 -0.344474 
-0.016912 -0.287801 
0.002196 -0.320802 
-0.010898 -0.321709 
0.009125 -0.299167 
-0.001234 -0.263272 
-0.061494 -0.229951 
-0.041641 -0.242897 
-0.061324 -0.098425 
-0.061580 -0.181514 
-0.090176 -0.110669 
-0.024883 -0.238427 
-0.011287 -0.230124 
0.000000 0.000000 
-0.035880 -0.092621 
0.000081 -0.088962 
-0.016319 -0.089904 
0.000000 0.000000 
-0.018098 -0.171266 
0.000103 -0.226377 
0.000000 0.000000 
0.016494 -0.089929 
0.061594 -0.098621 
0.036098 -0.092699 
0.000000 0.000000 
0.018312 -0.171300 
0.011490 -0.230145 
0.090408 -0.110818 
0.061783 -0.181622 
0.017062 -0.287808 
0.041819 -0.242946 
0.061657 -0.229989 
0.025077 -0.238467 
0.001409 -0.263277 
0.011006 -0.321663 
-0.002082 -0.320780 
-0.004985 -0.344438 
0.027818 -0.391405 
-0.009000 -0.299154 
0.061403 -0.377395 
0.036626 -0.359411 
0.041238 -0.378749 
0.020686 -0.304368 
0.030237 -0.335367 
0.057828 -0.329881 
-0.003441 -0.333170 
0.009732 -0.335813 
-0.009351 -0.309189 
0.000021 -0.153706 
-0.007967 -0.186010 
0.000933 -0.161567 
-0.010851 -0.230484 
-0.011372 -0.209707 
0.000043 -0.220194 
0.034635 -0.252865 
-0.001661 -0.226762 
0.008951 -0.266800 
-0.002229 -0.264328 
-0.004796 -0.264142 
0.000081 -0.261992 
-0.015917 -0.285721 
-0.012170 -0.270503 
-0.014130 -0.287146 
0.000063 -0.253663 
-0.007148 -0.258243 
-0.009213 -0.246913 
-0.006246 -0.275851 
-0.015132 -0.254076 
-0.013862 -0.281903 
-0.000920 -0.161580 
0.008000 -0.186028 
-0.008918 -0.266826 
0.001694 -0.226785 
-0.034612 -0.252888 
0.011431 -0.209726 
0.010933 -0.230500 
-0.041208 -0.378793 
-0.036593 -0.359448 
-0.061382 -0.377437 
0.009416 -0.309219 
-0.009686 -0.335845 
0.003502 -0.333203 
-0.057800 -0.329908 
-0.030203 -0.335397 
-0.020652 -0.304396 
0.004939 -0.264147 
0.002390 -0.264329 
0.009316 -0.246925 
0.007271 -0.258251 
0.014241 -0.287164 
0.012288 -0.270518 
0.016007 -0.285745 
0.006295 -0.275879 
0.013931 -0.281930 
0.015207 -0.254099 
-0.045482 -0.396690 
-0.022341 -0.375572 
-0.000273 -0.356185 
-0.008127 -0.367813 
-0.014017 -0.379772 
-0.002492 -0.352666 
0.009944 -0.328205 
-0.024312 -0.286313 
-0.012439 -0.306453 
-0.020647 -0.299751 
-0.001127 -0.299496 
-0.006000 -0.305561 
-0.010966 -0.284241 
-0.005680 -0.343069 
-0.003504 -0.324895 
0.000998 -0.341614 
0.003840 -0.270836 
-0.000286 -0.258473 
0.013416 -0.304877 
0.009892 -0.285548 
-0.003190 -0.270173 
0.003850 -0.280130 
0.002188 -0.290350 
0.006308 -0.333771 
0.006448 -0.311594 
0.010547 -0.321044 
-0.047360 -0.254265 
-0.037667 -0.264203 
-0.063595 -0.212111 
-0.051192 -0.239659 
-0.074444 -0.203898 
-0.029211 -0.267095 
-0.021917 -0.265237 
-0.059144 -0.055348 
-0.076120 -0.104066 
-0.077766 -0.071370 
-0.049800 -0.179679 
-0.065514 -0.142978 
-0.052464 -0.140034 
-0.090975 -0.144735 
-0.078706 -0.145270 
-0.073427 -0.180912 
-0.006414 -0.249840 
-0.002960 -0.246243 
-0.015730 -0.260636 
-0.010599 -0.255018 
-0.023796 -0.207075 
-0.017714 -0.234111 
-0.032875 -0.210592 
-0.052927 -0.214591 
-0.042624 -0.213520 
-0.032861 -0.241864 
0.000000 0.000000 
-0.042837 -0.048296 
-0.023011 -0.045427 
-0.031570 -0.046261 
0.000000 0.000000 
-0.047751 -0.094890 
-0.040218 -0.137202 
0.000048 -0.044426 
-0.004899 -0.044505 
0.000000 0.000000 
-0.009115 -0.131599 
-0.007919 -0.089212 
0.000099 -0.131167 
0.000000 0.000000 
-0.010161 -0.044684 
-0.016066 -0.044975 
-0.005435 -0.227360 
0.000097 -0.244966 
-0.027939 -0.173819 
-0.015379 -0.203900 
0.000107 -0.200957 
-0.007491 -0.201728 
-0.008837 -0.169567 
-0.025515 -0.091028 
-0.018700 -0.132826 
-0.028988 -0.134743 
0.000000 0.000000 
0.004998 -0.044509 
0.016196 -0.044994 
0.010270 -0.044693 
0.000000 0.000000 
0.008083 -0.089223 
0.009314 -0.131614 
0.059615 -0.055698 
0.043194 -0.048480 
0.000000 0.000000 
0.040442 -0.137287 
0.048000 -0.095020 
0.052693 -0.140154 
0.000000 0.000000 
0.031807 -0.046343 
0.023178 -0.045465 
0.005641 -0.227371 
0.003153 -0.246250 
0.009050 -0.169583 
0.007704 -0.201742 
0.024006 -0.207118 
0.015592 -0.203928 
0.028155 -0.173873 
0.025708 -0.091073 
0.029202 -0.134799 
0.018905 -0.132859 
0.078128 -0.071416 
0.076376 -0.104282 
0.073619 -0.181020 
0.078916 -0.145421 
0.091172 -0.144865 
0.065738 -0.143127 
0.050013 -0.179774 
0.024456 -0.286313 
0.037826 -0.264224 
0.047513 -0.254277 
0.022089 -0.265264 
0.029376 -0.267120 
0.011122 -0.284251 
0.074617 -0.203965 
0.051362 -0.239705 
0.063776 -0.212186 
0.006604 -0.249853 
0.000464 -0.258475 
0.033081 -0.210650 
0.017914 -0.234142 
0.003359 -0.270181 
0.010784 -0.255037 
0.015910 -0.260660 
0.053118 -0.214667 
0.033047 -0.241911 
0.042823 -0.213589 
0.020772 -0.299720 
0.012567 -0.306435 
-0.000908 -0.341574 
0.003614 -0.324864 
0.005768 -0.343013 
0.006133 -0.305552 
0.001265 -0.299492 
0.022382 -0.375525 
0.045509 -0.396635 
-0.009864 -0.328175 
0.002551 -0.352627 
0.014069 -0.379711 
0.008182 -0.367765 
0.000345 -0.356139 
-0.003683 -0.270834 
-0.002043 -0.290347 
-0.003699 -0.280128 
-0.009760 -0.285536 
-0.013311 -0.304856 
-0.006214 -0.333740 
-0.010447 -0.321019 
-0.006328 -0.311577 
0.062590 -0.386791 
0.051430 -0.378607 
0.053072 -0.387765 
0.048087 -0.358547 
0.049819 -0.369016 
0.060529 -0.367427 
0.028849 -0.368831 
0.039056 -0.369487 
0.026031 -0.359137 
0.034234 -0.300805 
0.039463 -0.318189 
0.055591 -0.313663 
0.014741 -0.322209 
0.025896 -0.320822 
0.009981 -0.306713 
0.059067 -0.344045 
0.043254 -0.333446 
0.046001 -0.346803 
-0.010010 -0.320373 
-0.006472 -0.321707 
-0.012318 -0.308880 
0.013388 -0.347487 
0.002257 -0.334814 
0.005641 -0.345844 
-0.004775 -0.308978 
-0.001266 -0.322504 
0.005752 -0.322707 
0.033754 -0.348145 
0.019047 -0.336058 
0.022799 -0.348304 
0.000015 -0.128626 
-0.005009 -0.149267 
-0.002353 -0.133603 
-0.007796 -0.182436 
-0.007487 -0.166245 
0.000027 -0.174694 
0.007644 -0.186106 
-0.003786 -0.173451 
0.000327 -0.196273 
-0.005460 -0.233242 
-0.006053 -0.222943 
0.000048 -0.231092 
-0.012475 -0.225070 
-0.011351 -0.220559 
-0.013642 -0.233513 
0.000038 -0.207371 
-0.006671 -0.211023 
-0.007304 -0.197477 
0.044376 -0.274374 
0.020199 -0.260587 
0.027523 -0.281286 
0.006153 -0.218201 
0.012942 -0.239567 
0.025017 -0.231233 
-0.004027 -0.253284 
0.003337 -0.246918 
-0.007553 -0.234596 
-0.010456 -0.198143 
-0.009916 -0.216045 
-0.005631 -0.206416 
-0.000452 -0.260690 
-0.001133 -0.262583 
0.000085 -0.260193 
-0.006793 -0.267995 
-0.003535 -0.264968 
-0.004995 -0.268250 
0.000077 -0.262220 
-0.001802 -0.262917 
-0.002455 -0.261723 
-0.015206 -0.297032 
-0.015414 -0.286766 
-0.015090 -0.296839 
-0.013654 -0.267665 
-0.014972 -0.276894 
-0.015816 -0.274521 
-0.011619 -0.279230 
-0.013533 -0.278497 
-0.010373 -0.272325 
0.000058 -0.247739 
-0.004297 -0.249151 
-0.004880 -0.241964 
-0.003088 -0.259024 
-0.003702 -0.254833 
0.000067 -0.258046 
-0.012547 -0.254476 
-0.008221 -0.253240 
-0.011395 -0.259593 
-0.008478 -0.266425 
-0.010023 -0.263602 
-0.006004 -0.261888 
0.014865 -0.286155 
-0.009376 -0.258797 
0.000267 -0.271792 
0.005039 -0.289762 
-0.002497 -0.292453 
-0.010104 -0.239306 
-0.015290 -0.259346 
-0.013405 -0.248344 
-0.013841 -0.241312 
-0.014006 -0.248185 
-0.014202 -0.296683 
-0.008058 -0.294432 
-0.011887 -0.295820 
-0.015467 -0.284084 
-0.015905 -0.271473 
-0.012952 -0.263609 
-0.015034 -0.267825 
-0.010870 -0.279178 
0.002358 -0.133608 
0.005029 -0.149278 
-0.000304 -0.196292 
0.003806 -0.173467 
-0.007627 -0.186123 
0.007524 -0.166258 
0.007847 -0.182449 
-0.027495 -0.281312 
-0.020172 -0.260611 
-0.044351 -0.274399 
0.007595 -0.234621 
-0.003304 -0.246942 
0.004069 -0.253310 
-0.024996 -0.231254 
-0.012915 -0.239590 
-0.006128 -0.218222 
0.006138 -0.222952 
0.005556 -0.233250 
0.007367 -0.197489 
0.006746 -0.211033 
0.013709 -0.233535 
0.011422 -0.220577 
0.012530 -0.225093 
0.005663 -0.206437 
0.009959 -0.216068 
0.010502 -0.198162 
-0.053048 -0.387813 
-0.051404 -0.378650 
-0.062571 -0.386838 
-0.025993 -0.359175 
-0.039024 -0.369527 
-0.028813 -0.368873 
-0.060506 -0.367464 
-0.049793 -0.369054 
-0.048059 -0.358582 
0.012392 -0.308908 
0.006535 -0.321738 
0.010082 -0.320403 
-0.005706 -0.322738 
0.001320 -0.322535 
0.004831 -0.309008 
-0.005589 -0.345879 
-0.002204 -0.334847 
-0.013344 -0.347522 
-0.055563 -0.313689 
-0.039433 -0.318216 
-0.034205 -0.300831 
-0.045972 -0.346835 
-0.043224 -0.333475 
-0.059041 -0.344075 
-0.009941 -0.306742 
-0.025862 -0.320850 
-0.014701 -0.322239 
-0.022761 -0.348338 
-0.019008 -0.336089 
-0.033721 -0.348178 
0.001294 -0.262584 
0.000623 -0.260690 
0.002598 -0.261726 
0.001954 -0.262919 
0.005145 -0.268254 
0.003687 -0.264971 
0.006933 -0.268002 
0.004985 -0.241970 
0.004412 -0.249156 
0.011505 -0.259607 
0.008335 -0.253250 
0.012647 -0.254492 
0.003826 -0.254838 
0.003222 -0.259028 
0.015188 -0.296863 
0.015515 -0.286788 
0.015293 -0.297057 
0.010501 -0.272337 
0.013648 -0.278514 
0.011744 -0.279244 
0.015909 -0.274544 
0.015076 -0.276914 
0.013761 -0.267682 
0.006136 -0.261895 
0.010143 -0.263614 
0.008608 -0.266434 
-0.014831 -0.286182 
0.002545 -0.292482 
-0.004999 -0.289790 
-0.000226 -0.271820 
0.009427 -0.258824 
0.014278 -0.296710 
0.015987 -0.271498 
0.015547 -0.284110 
0.011954 -0.295849 
0.008115 -0.294461 
0.010197 -0.239320 
0.014069 -0.248211 
0.013920 -0.241333 
0.013495 -0.248363 
0.015376 -0.259368 
0.010929 -0.279206 
0.015106 -0.267851 
0.013013 -0.263636 
-0.054784 -0.396974 
-0.043316 -0.387681 
-0.024999 -0.383531 
-0.033813 -0.386278 
-0.036338 -0.394906 
-0.031364 -0.377771 
-0.019602 -0.367140 
-0.003197 -0.360223 
-0.006232 -0.367634 
-0.009387 -0.371884 
-0.000611 -0.356204 
-0.003361 -0.362426 
0.002453 -0.350922 
-0.020225 -0.386373 
-0.010957 -0.374098 
-0.017279 -0.379444 
0.007516 -0.330978 
0.012106 -0.318556 
-0.008758 -0.355683 
0.000464 -0.343515 
0.007569 -0.336880 
0.004830 -0.340499 
0.002110 -0.348908 
-0.014507 -0.372228 
-0.005342 -0.360724 
-0.011709 -0.364397 
-0.028602 -0.282936 
-0.022176 -0.293731 
-0.026713 -0.288617 
-0.014451 -0.297597 
-0.018100 -0.296607 
-0.020423 -0.287830 
-0.015308 -0.310781 
-0.016301 -0.304224 
-0.011163 -0.314439 
-0.003711 -0.288683 
-0.005836 -0.292300 
-0.008513 -0.281234 
-0.001477 -0.313476 
-0.003372 -0.303041 
0.000960 -0.310207 
-0.013764 -0.286515 
-0.008333 -0.295164 
-0.011201 -0.297020 
-0.005247 -0.353288 
-0.002125 -0.343258 
-0.001853 -0.352043 
-0.006958 -0.324374 
-0.003882 -0.334002 
-0.007623 -0.332499 
0.002285 -0.331259 
-0.000608 -0.333487 
-0.000468 -0.323611 
-0.009016 -0.306794 
-0.004295 -0.315457 
-0.007510 -0.315879 
0.001062 -0.262177 
-0.000060 -0.257199 
0.006229 -0.272577 
0.003267 -0.267131 
-0.000657 -0.260534 
0.001324 -0.264576 
0.001338 -0.267757 
0.014225 -0.306766 
0.014133 -0.296069 
0.009770 -0.292369 
0.012283 -0.294600 
0.011668 -0.302369 
0.012327 -0.286783 
0.009459 -0.279004 
-0.004631 -0.273974 
-0.000584 -0.280175 
-0.001959 -0.284561 
0.001048 -0.271552 
0.000415 -0.275763 
-0.002066 -0.266542 
0.005923 -0.295190 
0.003230 -0.285249 
0.006716 -0.289283 
0.006871 -0.277701 
0.007036 -0.283362 
0.004047 -0.275245 
0.001153 -0.349211 
0.004847 -0.327564 
0.003790 -0.338387 
0.003890 -0.344960 
0.006425 -0.339415 
0.000731 -0.295183 
0.008002 -0.305662 
0.004681 -0.300816 
0.003018 -0.305905 
0.004503 -0.316718 
0.012758 -0.316192 
0.008774 -0.332687 
0.010908 -0.324897 
0.012189 -0.313287 
0.010554 -0.309796 
0.007093 -0.322616 
0.009009 -0.316623 
0.008568 -0.327934 
-0.040244 -0.265932 
-0.035381 -0.271799 
-0.049364 -0.248279 
-0.042354 -0.260269 
-0.054496 -0.242293 
-0.030889 -0.275529 
-0.026757 -0.277444 
-0.074530 -0.194361 
-0.069006 -0.208875 
-0.080060 -0.190069 
-0.046322 -0.241942 
-0.057618 -0.226299 
-0.052501 -0.228420 
-0.068197 -0.217173 
-0.062852 -0.222651 
-0.056250 -0.235762 
-0.016372 -0.275247 
-0.013548 -0.272755 
-0.022968 -0.277848 
-0.019510 -0.277027 
-0.031353 -0.255241 
-0.025423 -0.266627 
-0.035487 -0.255469 
-0.044488 -0.252269 
-0.039864 -0.254570 
-0.033290 -0.266379 
-0.055871 -0.036240 
-0.068699 -0.062968 
-0.068932 -0.043677 
-0.068655 -0.100962 
-0.070062 -0.080864 
-0.061985 -0.076737 
-0.085837 -0.092043 
-0.078176 -0.086165 
-0.083413 -0.107486 
-0.044075 -0.178313 
-0.051848 -0.160585 
-0.045816 -0.159164 
-0.064307 -0.162970 
-0.058032 -0.161892 
-0.055651 -0.180796 
-0.057871 -0.119676 
-0.058918 -0.141519 
-0.064730 -0.121471 
-0.088583 -0.160540 
-0.082822 -0.162805 
-0.079218 -0.179033 
-0.085418 -0.127197 
-0.085027 -0.145572 
-0.091666 -0.128150 
-0.067527 -0.181636 
-0.076797 -0.163706 
-0.070593 -0.163653 
-0.071728 -0.123441 
-0.072153 -0.144296 
-0.078695 -0.125453 
-0.001637 -0.253175 
-0.000744 -0.252078 
-0.003836 -0.257318 
-0.002650 -0.254954 
-0.006511 -0.238994 
-0.004614 -0.247787 
-0.008916 -0.240787 
-0.011031 -0.269786 
-0.008815 -0.266561 
-0.017201 -0.247789 
-0.013037 -0.257856 
-0.020387 -0.250206 
-0.006889 -0.263283 
-0.005238 -0.260145 
-0.031037 -0.192828 
-0.028249 -0.208842 
-0.036075 -0.194455 
-0.014416 -0.232013 
-0.020936 -0.221373 
-0.017121 -0.219505 
-0.029092 -0.225239 
-0.024924 -0.223326 
-0.021200 -0.236296 
-0.008399 -0.252294 
-0.014237 -0.245312 
-0.011482 -0.242932 
-0.068938 -0.197013 
-0.057693 -0.198692 
-0.063313 -0.198357 
-0.058228 -0.213921 
-0.047512 -0.229298 
-0.041281 -0.195992 
-0.033443 -0.226968 
-0.037670 -0.212200 
-0.046639 -0.197313 
-0.052121 -0.198273 
-0.018688 -0.263165 
-0.037152 -0.242789 
-0.027460 -0.254135 
-0.023806 -0.252386 
-0.028770 -0.240343 
-0.047717 -0.214382 
-0.037970 -0.228349 
-0.042664 -0.229196 
0.000000 0.000000 
-0.038698 -0.025136 
-0.024990 -0.022725 
-0.030269 -0.023277 
0.000000 0.000000 
-0.050185 -0.050643 
-0.054429 -0.073918 
-0.012769 -0.022149 
-0.015110 -0.022190 
0.000000 0.000000 
-0.035776 -0.069834 
-0.027039 -0.045769 
-0.030659 -0.069125 
0.000000 0.000000 
-0.017811 -0.022272 
-0.021018 -0.022431 
-0.046219 -0.138583 
-0.039975 -0.157712 
-0.054327 -0.096442 
-0.051258 -0.118084 
-0.038958 -0.115428 
-0.044947 -0.116676 
-0.041609 -0.093646 
-0.036757 -0.047023 
-0.041386 -0.070764 
-0.047575 -0.072048 
0.000026 -0.022049 
-0.001308 -0.022062 
0.000000 0.000000 
-0.003269 -0.066883 
-0.002406 -0.044454 
0.000066 -0.066835 
0.000000 0.000000 
-0.002667 -0.022070 
-0.004074 -0.022080 
-0.004494 -0.150855 
-0.004485 -0.131279 
0.000103 -0.150723 
-0.012044 -0.089503 
-0.008726 -0.110842 
-0.013259 -0.111250 
0.000091 -0.110500 
-0.004293 -0.110590 
-0.003894 -0.089031 
0.000000 0.000000 
-0.008831 -0.022113 
-0.010697 -0.022127 
-0.005552 -0.022090 
-0.007128 -0.022101 
0.000000 0.000000 
-0.017559 -0.067722 
-0.013011 -0.044814 
-0.013748 -0.067413 
-0.006651 -0.066994 
-0.010128 -0.067171 
-0.007471 -0.044581 
-0.001407 -0.245288 
0.000094 -0.251713 
-0.008304 -0.228546 
-0.004234 -0.237645 
0.000100 -0.236527 
-0.002045 -0.236810 
-0.002646 -0.226626 
-0.033131 -0.175296 
-0.026175 -0.191214 
-0.016953 -0.188361 
-0.021485 -0.189700 
-0.022933 -0.172458 
-0.019510 -0.205397 
-0.013465 -0.217829 
0.000107 -0.185750 
-0.004064 -0.185923 
-0.004345 -0.169121 
-0.003194 -0.214734 
-0.003674 -0.201153 
0.000105 -0.214514 
-0.013409 -0.170291 
-0.008274 -0.186432 
-0.012559 -0.187256 
-0.009944 -0.216432 
-0.011382 -0.202658 
-0.006532 -0.215383 
-0.019379 -0.045174 
-0.020794 -0.090412 
-0.021612 -0.068101 
-0.025959 -0.068562 
-0.030529 -0.091759 
-0.009135 -0.151239 
-0.018716 -0.152708 
-0.013862 -0.151863 
-0.013839 -0.132118 
-0.017938 -0.111809 
-0.034346 -0.156292 
-0.033287 -0.114323 
-0.034476 -0.135915 
-0.028934 -0.154957 
-0.023730 -0.153750 
-0.022809 -0.112511 
-0.023738 -0.133707 
-0.027913 -0.113351 
0.000000 0.000000 
0.001360 -0.022062 
0.004129 -0.022081 
0.002720 -0.022071 
0.000000 0.000000 
0.002503 -0.044456 
0.003403 -0.066886 
0.010782 -0.022135 
0.008905 -0.022118 
0.000000 0.000000 
0.013895 -0.067430 
0.013129 -0.044827 
0.017716 -0.067746 
0.000000 0.000000 
0.007193 -0.022105 
0.005612 -0.022092 
0.004682 -0.131287 
0.004701 -0.150863 
0.004056 -0.089036 
0.004476 -0.110597 
0.013447 -0.111271 
0.008911 -0.110855 
0.012213 -0.089521 
0.007574 -0.044587 
0.010269 -0.067183 
0.006787 -0.067002 
0.056751 -0.036596 
0.039495 -0.025472 
0.000000 0.000000 
0.054742 -0.074127 
0.050616 -0.050916 
0.062313 -0.076994 
0.000000 0.000000 
0.030766 -0.023440 
0.025314 -0.022814 
0.040196 -0.157793 
0.046446 -0.138686 
0.046037 -0.159259 
0.041843 -0.093747 
0.045179 -0.116782 
0.039182 -0.115514 
0.058114 -0.119829 
0.051497 -0.118213 
0.054590 -0.096605 
0.000000 0.000000 
0.015236 -0.022209 
0.012871 -0.022161 
0.021243 -0.022481 
0.017975 -0.022302 
0.000000 0.000000 
0.030862 -0.069188 
0.027236 -0.045824 
0.036002 -0.069919 
0.047859 -0.072206 
0.041640 -0.070880 
0.037047 -0.047145 
0.001601 -0.245291 
0.000930 -0.252080 
0.002852 -0.226631 
0.002245 -0.236814 
0.006710 -0.239006 
0.004434 -0.237654 
0.008508 -0.228562 
0.004557 -0.169129 
0.004278 -0.185931 
0.012773 -0.187279 
0.008488 -0.186447 
0.013623 -0.170315 
0.003887 -0.201159 
0.003405 -0.214740 
0.031251 -0.192886 
0.026389 -0.191263 
0.033347 -0.175360 
0.013673 -0.217854 
0.019722 -0.205433 
0.017328 -0.219536 
0.023149 -0.172501 
0.021699 -0.189740 
0.017167 -0.188393 
0.006742 -0.215396 
0.011595 -0.202679 
0.010154 -0.216450 
0.019525 -0.045200 
0.030734 -0.091819 
0.026143 -0.068607 
0.021780 -0.068135 
0.020977 -0.090446 
0.034565 -0.156361 
0.023945 -0.153795 
0.029151 -0.155013 
0.034695 -0.135985 
0.033502 -0.114391 
0.009342 -0.151255 
0.018131 -0.111839 
0.014040 -0.132142 
0.014071 -0.151888 
0.018927 -0.152743 
0.028120 -0.113404 
0.023948 -0.133751 
0.023009 -0.112552 
0.069821 -0.043410 
0.069120 -0.063250 
0.083653 -0.107673 
0.078463 -0.086384 
0.086107 -0.092177 
0.070380 -0.081136 
0.068923 -0.101180 
0.079405 -0.179137 
0.083015 -0.162926 
0.088771 -0.160654 
0.070799 -0.163784 
0.076996 -0.163834 
0.067725 -0.181746 
0.091877 -0.128292 
0.085230 -0.145713 
0.085634 -0.127359 
0.052068 -0.160693 
0.044290 -0.178399 
0.064972 -0.121643 
0.059146 -0.141655 
0.055860 -0.180900 
0.058248 -0.162012 
0.064519 -0.163098 
0.078921 -0.125632 
0.072370 -0.144450 
0.071963 -0.123624 
0.028744 -0.282931 
0.035530 -0.271805 
0.040391 -0.265932 
0.026911 -0.277457 
0.031041 -0.275539 
0.020570 -0.287834 
0.054654 -0.242318 
0.042510 -0.260286 
0.049526 -0.248308 
0.013716 -0.272772 
0.016537 -0.275264 
0.008673 -0.281243 
0.035659 -0.255506 
0.025591 -0.266654 
0.031529 -0.255278 
0.013917 -0.286524 
0.019671 -0.277044 
0.023126 -0.277864 
0.080238 -0.190151 
0.069183 -0.208946 
0.074712 -0.194448 
0.056417 -0.235804 
0.063024 -0.222707 
0.068365 -0.217225 
0.052681 -0.228481 
0.057793 -0.226359 
0.046496 -0.241990 
0.033451 -0.266403 
0.040032 -0.254605 
0.044653 -0.252302 
0.001823 -0.253180 
0.000238 -0.257201 
0.009113 -0.240804 
0.004806 -0.247797 
0.000833 -0.260538 
0.002835 -0.254960 
0.004019 -0.257327 
0.036287 -0.194522 
0.028458 -0.208893 
0.021397 -0.236332 
0.025127 -0.223369 
0.029292 -0.225288 
0.021141 -0.221411 
0.014617 -0.232039 
0.004797 -0.273982 
0.008989 -0.266575 
0.011202 -0.269803 
0.005418 -0.260156 
0.007067 -0.263296 
0.002238 -0.266548 
0.020574 -0.250238 
0.013220 -0.257878 