# vtk DataFile Version 2.0
Unstructured Grid Example
ASCII
DATASET UNSTRUCTURED_GRID

POINTS 1089 float
0.067948 -0.394419 0.000000 
0.932052 -0.394419 0.000000 
1.000000 1.000000 0.000000 
0.000000 1.000000 0.000000 
0.500000 -0.100000 0.000000 
0.966154 0.224390 0.000000 
0.500000 1.000000 0.000000 
0.033846 0.224390 0.000000 
0.500000 0.246130 0.000000 
0.303496 -0.292160 0.000000 
0.500000 0.013956 0.000000 
0.237731 -0.055671 0.000000 
0.696504 -0.292160 0.000000 
0.762269 -0.055671 0.000000 
0.991749 -0.111195 0.000000 
0.743455 0.225251 0.000000 
0.916786 0.576358 0.000000 
0.712820 0.576061 0.000000 
0.750000 1.000000 0.000000 
0.500000 0.583872 0.000000 
0.250000 1.000000 0.000000 
0.287180 0.576061 0.000000 
0.083214 0.576358 0.000000 
0.256545 0.225251 0.000000 
0.008251 -0.111195 0.000000 
0.187686 -0.353403 0.000000 
0.254175 -0.180578 0.000000 
0.143879 -0.230308 0.000000 
0.500000 -0.062238 0.000000 
0.365753 -0.113834 0.000000 
0.395276 -0.204724 0.000000 
0.366814 0.105259 0.000000 
0.361150 -0.010982 0.000000 
0.500000 0.117882 0.000000 
0.604724 -0.204724 0.000000 
0.634247 -0.113834 0.000000 
0.856121 -0.230308 0.000000 
0.745825 -0.180578 0.000000 
0.812314 -0.353403 0.000000 
0.638850 -0.010982 0.000000 
0.633186 0.105259 0.000000 
0.970078 -0.264358 0.000000 
0.878249 -0.092312 0.000000 
0.857714 0.214605 0.000000 
0.876098 0.056351 0.000000 
0.987949 0.054705 0.000000 
0.758326 0.078475 0.000000 
0.623805 0.240173 0.000000 
0.939150 0.396752 0.000000 
0.833855 0.384772 0.000000 
0.817380 0.779901 0.000000 
0.815019 0.571462 0.000000 
0.913321 0.767342 0.000000 
0.725560 0.389660 0.000000 
0.613920 0.398124 0.000000 
0.875000 1.000000 0.000000 
0.716341 0.784263 0.000000 
0.500000 0.787609 0.000000 
0.609629 0.786434 0.000000 
0.625000 1.000000 0.000000 
0.607583 0.581408 0.000000 
0.500000 0.401941 0.000000 
0.375000 1.000000 0.000000 
0.390371 0.786434 0.000000 
0.182620 0.779901 0.000000 
0.283659 0.784263 0.000000 
0.125000 1.000000 0.000000 
0.392417 0.581408 0.000000 
0.386080 0.398124 0.000000 
0.086679 0.767342 0.000000 
0.184981 0.571462 0.000000 
0.142286 0.214605 0.000000 
0.166145 0.384772 0.000000 
0.060850 0.396752 0.000000 
0.274440 0.389660 0.000000 
0.376195 0.240173 0.000000 
0.012051 0.054705 0.000000 
0.123902 0.056351 0.000000 
0.121751 -0.092312 0.000000 
0.029922 -0.264358 0.000000 
0.241674 0.078475 0.000000 
0.127235 -0.374788 0.000000 
0.164003 -0.294060 0.000000 
0.106214 -0.313820 0.000000 
0.273587 -0.238950 0.000000 
0.220181 -0.269806 0.000000 
0.247611 -0.326607 0.000000 
0.186148 -0.143284 0.000000 
0.199617 -0.208150 0.000000 
0.242734 -0.119251 0.000000 
0.500000 -0.086403 0.000000 
0.432659 -0.119829 0.000000 
0.444593 -0.155407 0.000000 
0.427415 -0.039648 0.000000 
0.427901 -0.081600 0.000000 
0.500000 -0.028146 0.000000 
0.350544 -0.249456 0.000000 
0.376624 -0.160902 0.000000 
0.324617 -0.201352 0.000000 
0.435105 0.176739 0.000000 
0.432648 0.114505 0.000000 
0.500000 0.179019 0.000000 
0.297908 -0.033132 0.000000 
0.363267 0.045138 0.000000 
0.299189 0.028096 0.000000 
0.500000 0.062811 0.000000 
0.430427 0.057922 0.000000 
0.428579 0.006665 0.000000 
0.308788 -0.148170 0.000000 
0.361410 -0.063804 0.000000 
0.300550 -0.091849 0.000000 
0.555407 -0.155407 0.000000 
0.567341 -0.119829 0.000000 
0.675383 -0.201352 0.000000 
0.623376 -0.160902 0.000000 
0.649456 -0.249456 0.000000 
0.572099 -0.081600 0.000000 
0.572585 -0.039648 0.000000 
0.893786 -0.313820 0.000000 
0.835997 -0.294060 0.000000 
0.872765 -0.374788 0.000000 
0.757266 -0.119251 0.000000 
0.800383 -0.208150 0.000000 
0.813852 -0.143284 0.000000 
0.752389 -0.326607 0.000000 
0.779819 -0.269806 0.000000 
0.726413 -0.238950 0.000000 
0.567352 0.114505 0.000000 
0.564895 0.176739 0.000000 
0.571421 0.006665 0.000000 
0.569573 0.057922 0.000000 
0.700811 0.028096 0.000000 
0.636733 0.045138 0.000000 
0.702092 -0.033132 0.000000 
0.691212 -0.148170 0.000000 
0.699450 -0.091849 0.000000 
0.638590 -0.063804 0.000000 
0.951826 -0.332319 0.000000 
0.912999 -0.248291 0.000000 
0.935413 -0.104208 0.000000 
0.927366 -0.178196 0.000000 
0.984026 -0.190233 0.000000 
0.870440 -0.162855 0.000000 
0.820660 -0.075907 0.000000 
0.912733 0.215752 0.000000 
0.924285 0.132978 0.000000 
0.978567 0.139236 0.000000 
0.810765 0.140538 0.000000 
0.868279 0.134192 0.000000 
0.801268 0.218464 0.000000 
0.992806 -0.029047 0.000000 
0.932844 0.051972 0.000000 
0.936980 -0.027230 0.000000 
0.628750 0.170067 0.000000 
0.562238 0.245005 0.000000 
0.762206 0.010119 0.000000 
0.696842 0.092398 0.000000 
0.684282 0.233071 0.000000 
0.691090 0.160486 0.000000 
0.751741 0.149966 0.000000 
0.879832 -0.019154 0.000000 
0.817965 0.065797 0.000000 
0.821663 -0.006244 0.000000 
0.952801 0.309880 0.000000 
0.899885 0.300473 0.000000 
0.874924 0.477821 0.000000 
0.886843 0.387618 0.000000 
0.926661 0.485420 0.000000 
0.845838 0.297957 0.000000 
0.790674 0.300103 0.000000 
0.885929 0.887158 0.000000 
0.865271 0.774873 0.000000 
0.928485 0.870724 0.000000 
0.764221 0.573312 0.000000 
0.811938 0.672726 0.000000 
0.762288 0.675381 0.000000 
0.911376 0.670071 0.000000 
0.861227 0.670375 0.000000 
0.865674 0.571781 0.000000 
0.618646 0.316035 0.000000 
0.559486 0.319627 0.000000 
0.734397 0.304938 0.000000 
0.677026 0.310742 0.000000 
0.664370 0.483462 0.000000 
0.670138 0.394079 0.000000 
0.717966 0.479939 0.000000 
0.823060 0.475708 0.000000 
0.770819 0.476953 0.000000 
0.780120 0.386060 0.000000 
0.937500 1.000000 0.000000 
0.836775 0.891432 0.000000 
0.728744 0.892899 0.000000 
0.783726 0.892499 0.000000 
0.812500 1.000000 0.000000 
0.767745 0.782602 0.000000 
0.711653 0.677852 0.000000 
0.500000 0.893832 0.000000 
0.557902 0.893544 0.000000 
0.562500 1.000000 0.000000 
0.553779 0.683003 0.000000 
0.555002 0.787122 0.000000 
0.500000 0.683629 0.000000 
0.687500 1.000000 0.000000 
0.615497 0.893353 0.000000 
0.672539 0.893148 0.000000 
0.557103 0.400916 0.000000 
0.500000 0.320809 0.000000 
0.660602 0.578934 0.000000 
0.610049 0.486637 0.000000 
0.500000 0.489717 0.000000 
0.555168 0.488845 0.000000 
0.553950 0.583126 0.000000 
0.663521 0.785489 0.000000 
0.607198 0.681779 0.000000 
0.659911 0.680023 0.000000 
0.437500 1.000000 0.000000 
0.442098 0.893544 0.000000 
0.327461 0.893148 0.000000 
0.384503 0.893353 0.000000 
0.312500 1.000000 0.000000 
0.444998 0.787122 0.000000 
0.446221 0.683003 0.000000 
0.114071 0.887158 0.000000 
0.163225 0.891432 0.000000 
0.062500 1.000000 0.000000 
0.288347 0.677852 0.000000 
0.232255 0.782602 0.000000 
0.237712 0.675381 0.000000 
0.187500 1.000000 0.000000 
0.216274 0.892499 0.000000 
0.271256 0.892899 0.000000 
0.442897 0.400916 0.000000 
0.440514 0.319627 0.000000 
0.446050 0.583126 0.000000 
0.444832 0.488845 0.000000 
0.335630 0.483462 0.000000 
0.389951 0.486637 0.000000 
0.339398 0.578934 0.000000 
0.336479 0.785489 0.000000 
0.340089 0.680023 0.000000 
0.392802 0.681779 0.000000 
0.071515 0.870724 0.000000 
0.134729 0.774873 0.000000 
0.134326 0.571781 0.000000 
0.138773 0.670375 0.000000 
0.088624 0.670071 0.000000 
0.188062 0.672726 0.000000 
0.235779 0.573312 0.000000 
0.087267 0.215752 0.000000 
0.100115 0.300473 0.000000 
0.047199 0.309880 0.000000 
0.209326 0.300103 0.000000 
0.154162 0.297957 0.000000 
0.198732 0.218464 0.000000 
0.073339 0.485420 0.000000 
0.113157 0.387618 0.000000 
0.125076 0.477821 0.000000 
0.381354 0.316035 0.000000 
0.437762 0.245005 0.000000 
0.282034 0.479939 0.000000 
0.329862 0.394079 0.000000 
0.315718 0.233071 0.000000 
0.322974 0.310742 0.000000 
0.265603 0.304938 0.000000 
0.176940 0.475708 0.000000 
0.219880 0.386060 0.000000 
0.229181 0.476953 0.000000 
0.021433 0.139236 0.000000 
0.075715 0.132978 0.000000 
0.063020 -0.027230 0.000000 
0.067156 0.051972 0.000000 
0.007194 -0.029047 0.000000 
0.131721 0.134192 0.000000 
0.189235 0.140538 0.000000 
0.087001 -0.248291 0.000000 
0.048174 -0.332319 0.000000 
0.179340 -0.075907 0.000000 
0.129560 -0.162855 0.000000 
0.015974 -0.190233 0.000000 
0.072634 -0.178196 0.000000 
0.064587 -0.104208 0.000000 
0.371250 0.170067 0.000000 
0.248259 0.149966 0.000000 
0.308910 0.160486 0.000000 
0.303158 0.092398 0.000000 
0.237794 0.010119 0.000000 
0.120168 -0.019154 0.000000 
0.178337 -0.006244 0.000000 
0.182035 0.065797 0.000000 
0.097431 -0.384503 0.000000 
0.116762 -0.344824 0.000000 
0.087305 -0.354319 0.000000 
0.175627 -0.324328 0.000000 
0.146255 -0.334993 0.000000 
0.157374 -0.364583 0.000000 
0.124854 -0.272550 0.000000 
0.135225 -0.304323 0.000000 
0.153310 -0.262689 0.000000 
0.286963 -0.266470 0.000000 
0.260623 -0.283717 0.000000 
0.276352 -0.310428 0.000000 
0.236115 -0.225632 0.000000 
0.247271 -0.255283 0.000000 
0.262772 -0.210215 0.000000 
0.217892 -0.340852 0.000000 
0.233096 -0.298977 0.000000 
0.204664 -0.312430 0.000000 
0.210625 -0.099270 0.000000 
0.214383 -0.131795 0.000000 
0.239516 -0.087728 0.000000 
0.171918 -0.219858 0.000000 
0.192011 -0.176060 0.000000 
0.164072 -0.187125 0.000000 
0.247560 -0.150221 0.000000 
0.219798 -0.163746 0.000000 
0.227001 -0.195061 0.000000 
0.192377 -0.282656 0.000000 
0.209006 -0.239451 0.000000 
0.181392 -0.251743 0.000000 
0.500000 -0.094426 0.000000 
0.467313 -0.113866 0.000000 
0.474343 -0.125657 0.000000 
0.462670 -0.085379 0.000000 
0.463975 -0.100406 0.000000 
0.500000 -0.075671 0.000000 
0.418951 -0.181049 0.000000 
0.437864 -0.137683 0.000000 
0.410707 -0.160846 0.000000 
0.463414 -0.010508 0.000000 
0.462949 -0.031499 0.000000 
0.500000 -0.007997 0.000000 
0.395931 -0.097094 0.000000 
0.427341 -0.061124 0.000000 
0.394268 -0.074345 0.000000 
0.500000 -0.046307 0.000000 
0.462569 -0.050958 0.000000 
0.462388 -0.068903 0.000000 
0.328289 -0.271711 0.000000 
0.336080 -0.226217 0.000000 
0.311991 -0.247170 0.000000 
0.385050 -0.183141 0.000000 
0.360317 -0.204850 0.000000 
0.372653 -0.227347 0.000000 
0.342550 -0.156611 0.000000 
0.350320 -0.181273 0.000000 
0.370222 -0.137783 0.000000 
0.429493 -0.101156 0.000000 
0.399006 -0.119104 0.000000 
[...]
POINT_DATA 1089

SCALARS u_h float 2
LOOKUP_TABLE default
0.067948 -0.394419 
-0.067948 -0.394419 
0.000000 0.000000 
0.000000 0.000000 
-0.000000 -0.100000 
-0.033846 -0.275610 
0.000000 0.000000 
0.033846 -0.275610 
-0.000000 -0.253870 
0.053496 -0.292160 
-0.000000 -0.236044 
-0.012269 -0.305671 
-0.053496 -0.292160 
0.012269 -0.305671 
-0.008251 -0.361195 
-0.006545 -0.274749 
-0.083214 -0.173642 
-0.037180 -0.173939 
0.000000 0.000000 
-0.000000 -0.166128 
0.000000 0.000000 
0.037180 -0.173939 
0.083214 -0.173642 
0.006545 -0.274749 
0.008251 -0.361195 
0.062686 -0.353403 
0.004175 -0.305578 
0.018879 -0.355308 
-0.000000 -0.187238 
-0.009247 -0.238834 
0.020276 -0.204724 
-0.008186 -0.269741 
-0.013850 -0.260982 
-0.000000 -0.257118 
-0.020276 -0.204724 
0.009247 -0.238834 
-0.018879 -0.355308 
-0.004175 -0.305578 
-0.062686 -0.353403 
0.013850 -0.260982 
0.008186 -0.269741 
-0.029922 -0.389358 
0.003249 -0.342312 
-0.017286 -0.285395 
0.001098 -0.318649 
-0.012051 -0.320295 
0.008326 -0.296525 
-0.001195 -0.259827 
-0.060850 -0.228248 
-0.041145 -0.240228 
-0.057620 -0.095099 
-0.059981 -0.178538 
-0.086679 -0.107658 
-0.024440 -0.235340 
-0.011080 -0.226876 
0.000000 0.000000 
-0.033659 -0.090737 
-0.000000 -0.087391 
-0.015371 -0.088566 
0.000000 0.000000 
-0.017417 -0.168592 
-0.000000 -0.223059 
0.000000 0.000000 
0.015371 -0.088566 
0.057620 -0.095099 
0.033659 -0.090737 
0.000000 0.000000 
0.017417 -0.168592 
0.011080 -0.226876 
0.086679 -0.107658 
0.059981 -0.178538 
0.017286 -0.285395 
0.041145 -0.240228 
0.060850 -0.228248 
0.024440 -0.235340 
0.001195 -0.259827 
0.012051 -0.320295 
-0.001098 -0.318649 
-0.003249 -0.342312 
0.029922 -0.389358 
-0.008326 -0.296525 
0.064735 -0.374788 
0.039003 -0.356560 
0.043714 -0.376320 
0.023587 -0.301450 
0.032681 -0.332306 
0.060111 -0.326607 
-0.001352 -0.330784 
0.012117 -0.333150 
-0.007266 -0.306751 
-0.000000 -0.148903 
-0.004841 -0.182329 
0.007093 -0.155407 
-0.010085 -0.227148 
-0.009599 -0.206600 
-0.000000 -0.215646 
0.038044 -0.249456 
0.001624 -0.223402 
0.012117 -0.263852 
-0.002395 -0.260761 
-0.004852 -0.260495 
-0.000000 -0.258481 
-0.014592 -0.283132 
-0.011733 -0.267362 
-0.013311 -0.284404 
-0.000000 -0.249689 
-0.007073 -0.254578 
-0.008921 -0.243335 
-0.003712 -0.273170 
-0.013590 -0.251304 
-0.011950 -0.279349 
-0.007093 -0.155407 
0.004841 -0.182329 
-0.012117 -0.263852 
-0.001624 -0.223402 
-0.038044 -0.249456 
0.009599 -0.206600 
0.010085 -0.227148 
-0.043714 -0.376320 
-0.039003 -0.356560 
-0.064735 -0.374788 
0.007266 -0.306751 
-0.012117 -0.333150 
0.001352 -0.330784 
-0.060111 -0.326607 
-0.032681 -0.332306 
-0.023587 -0.301450 
0.004852 -0.260495 
0.002395 -0.260761 
0.008921 -0.243335 
0.007073 -0.254578 
0.013311 -0.284404 
0.011733 -0.267362 
0.014592 -0.283132 
0.003712 -0.273170 
0.011950 -0.279349 
0.013590 -0.251304 
-0.048174 -0.394819 
-0.024501 -0.373291 
-0.002087 -0.354208 
-0.010134 -0.365696 
-0.015974 -0.377733 
-0.004560 -0.350355 
0.008160 -0.325907 
-0.024767 -0.284248 
-0.013215 -0.304522 
-0.021433 -0.298264 
-0.001735 -0.296962 
-0.006721 -0.303308 
-0.011232 -0.281536 
-0.007194 -0.341547 
-0.004656 -0.323028 
-0.000520 -0.339730 
0.003750 -0.267433 
-0.000262 -0.254995 
0.012206 -0.302381 
0.009342 -0.282602 
-0.003218 -0.266929 
0.003590 -0.277014 
0.001741 -0.287534 
0.004832 -0.331654 
0.005465 -0.309203 
0.009163 -0.318744 
-0.047199 -0.252620 
-0.037615 -0.262027 
-0.062576 -0.209679 
-0.050657 -0.237382 
-0.073339 -0.202080 
-0.029162 -0.264543 
-0.021826 -0.262397 
-0.051571 -0.050342 
-0.072229 -0.100127 
-0.071515 -0.066776 
-0.048279 -0.176688 
-0.063062 -0.139774 
-0.050212 -0.137119 
-0.088624 -0.142429 
-0.076273 -0.142125 
-0.071826 -0.178219 
-0.006354 -0.246465 
-0.003014 -0.242873 
-0.015603 -0.257562 
-0.010474 -0.251758 
-0.023130 -0.204038 
-0.017362 -0.230921 
-0.032034 -0.207561 
-0.051940 -0.211792 
-0.041681 -0.210547 
-0.032380 -0.238940 
0.000000 0.000000 
-0.038225 -0.046068 
-0.021256 -0.044601 
-0.028774 -0.045001 
0.000000 0.000000 
-0.044755 -0.092398 
-0.038347 -0.134648 
-0.000000 -0.043668 
-0.004598 -0.043956 
0.000000 0.000000 
-0.008721 -0.129497 
-0.007498 -0.087878 
-0.000000 -0.128871 
0.000000 0.000000 
-0.009503 -0.044147 
-0.014961 -0.044352 
-0.005397 -0.224084 
-0.000000 -0.241691 
-0.026898 -0.171066 
-0.014951 -0.200863 
-0.000000 -0.197783 
-0.007332 -0.198655 
-0.008550 -0.166874 
-0.023979 -0.089511 
-0.017802 -0.130721 
-0.027589 -0.132477 
0.000000 0.000000 
0.004598 -0.043956 
0.014961 -0.044352 
0.009503 -0.044147 
0.000000 0.000000 
0.007498 -0.087878 
0.008721 -0.129497 
0.051571 -0.050342 
0.038225 -0.046068 
0.000000 0.000000 
0.038347 -0.134648 
0.044755 -0.092398 
0.050212 -0.137119 
0.000000 0.000000 
0.028774 -0.045001 
0.021256 -0.044601 
0.005397 -0.224084 
0.003014 -0.242873 
0.008550 -0.166874 
0.007332 -0.198655 
0.023130 -0.204038 
0.014951 -0.200863 
0.026898 -0.171066 
0.023979 -0.089511 
0.027589 -0.132477 
0.017802 -0.130721 
0.071515 -0.066776 
0.072229 -0.100127 
0.071826 -0.178219 
0.076273 -0.142125 
0.088624 -0.142429 
0.063062 -0.139774 
0.048279 -0.176688 
0.024767 -0.284248 
0.037615 -0.262027 
0.047199 -0.252620 
0.021826 -0.262397 
0.029162 -0.264543 
0.011232 -0.281536 
0.073339 -0.202080 
0.050657 -0.237382 
0.062576 -0.209679 
0.006354 -0.246465 
0.000262 -0.254995 
0.032034 -0.207561 
0.017362 -0.230921 
0.003218 -0.266929 
0.010474 -0.251758 
0.015603 -0.257562 
0.051940 -0.211792 
0.032380 -0.238940 
0.041681 -0.210547 
0.021433 -0.298264 
0.013215 -0.304522 
0.000520 -0.339730 
0.004656 -0.323028 
0.007194 -0.341547 
0.006721 -0.303308 
0.001735 -0.296962 
0.024501 -0.373291 
0.048174 -0.394819 
-0.008160 -0.325907 
0.004560 -0.350355 
0.015974 -0.377733 
0.010134 -0.365696 
0.002087 -0.354208 
-0.003750 -0.267433 
-0.001741 -0.287534 
-0.003590 -0.277014 
-0.009342 -0.282602 
-0.012206 -0.302381 
-0.004832 -0.331654 
-0.009163 -0.318744 
-0.005465 -0.309203 
0.066181 -0.384503 
0.054262 -0.376074 
0.056055 -0.385569 
0.050627 -0.355578 
0.052505 -0.366243 
0.063624 -0.364583 
0.031104 -0.366300 
0.041475 -0.366823 
0.028310 -0.356439 
0.036963 -0.297720 
0.041873 -0.314967 
0.057602 -0.310428 
0.017365 -0.319382 
0.028521 -0.317783 
0.012772 -0.303965 
0.061642 -0.340852 
0.045596 -0.330227 
0.048414 -0.343680 
-0.008125 -0.318020 
-0.004367 -0.319295 
-0.010484 -0.306478 
0.015668 -0.344858 
0.004511 -0.332310 
0.007822 -0.343375 
-0.002440 -0.306471 
0.001048 -0.319996 
0.008251 -0.320061 
0.036127 -0.345156 
0.021506 -0.333201 
0.025142 -0.345493 
-0.000000 -0.125676 
-0.001437 -0.145116 
0.005593 -0.125657 
-0.006080 -0.179129 
-0.004775 -0.162906 
-0.000000 -0.169421 
0.012701 -0.181049 
0.000364 -0.168933 
0.004457 -0.192096 
-0.005336 -0.229258 
-0.005801 -0.218999 
-0.000000 -0.226747 
-0.010319 -0.222094 
-0.010159 -0.217374 
-0.011982 -0.230595 
-0.000000 -0.202557 
-0.006181 -0.207208 
-0.006362 -0.193903 
0.047039 -0.271711 
0.023580 -0.257467 
0.030741 -0.278420 
0.010050 -0.214391 
0.016567 -0.236100 
0.028903 -0.227347 
-0.001200 -0.250361 
0.006570 -0.243773 
-0.004778 -0.231533 
-0.008007 -0.194906 
-0.007244 -0.212854 
-0.002367 -0.202846 
-0.000647 -0.257246 
-0.001289 -0.259019 
-0.000000 -0.256905 
-0.006770 -0.264508 
-0.003647 -0.261356 
-0.005055 -0.264746 
-0.000000 -0.258555 
-0.001920 -0.259251 
-0.002541 -0.257973 
-0.013731 -0.294550 
-0.014355 -0.284111 
-0.013873 -0.294313 
-0.013016 -0.264628 
-0.014107 -0.274073 
-0.014684 -0.271791 
-0.011177 -0.276209 
-0.012897 -0.275576 
-0.010098 -0.269096 
-0.000000 -0.243665 
-0.004291 -0.245216 
-0.004828 -0.237991 
-0.003145 -0.255202 
-0.003729 -0.250950 
-0.000000 -0.254166 
-0.011953 -0.251267 
-0.008056 -0.249601 
-0.011002 -0.256278 
-0.008356 -0.262971 
-0.009782 -0.260204 
-0.005998 -0.258222 
0.017987 -0.283341 
-0.006921 -0.256026 
0.003123 -0.268994 
0.007912 -0.287049 
0.000091 -0.289840 
-0.009624 -0.235829 
-0.014102 -0.256514 
-0.012540 -0.245258 
-0.012621 -0.238339 
-0.012073 -0.245407 
-0.012458 -0.294217 
-0.005757 -0.291897 
-0.009868 -0.293337 
-0.013855 -0.281532 
-0.014473 -0.268807 
-0.010850 -0.260931 
-0.013275 -0.265179 
-0.008651 -0.276580 
-0.005593 -0.125657 
0.001437 -0.145116 
-0.004457 -0.192096 
-0.000364 -0.168933 
-0.012701 -0.181049 
0.004775 -0.162906 
0.006080 -0.179129 
-0.030741 -0.278420 
-0.023580 -0.257467 
-0.047039 -0.271711 
0.004778 -0.231533 
-0.006570 -0.243773 
0.001200 -0.250361 
-0.028903 -0.227347 
-0.016567 -0.236100 
-0.010050 -0.214391 
0.005801 -0.218999 
0.005336 -0.229258 
0.006362 -0.193903 
0.006181 -0.207208 
0.011982 -0.230595 
0.010159 -0.217374 
0.010319 -0.222094 
0.002367 -0.202846 
0.007244 -0.212854 
0.008007 -0.194906 
-0.056055 -0.385569 
-0.054262 -0.376074 
-0.066181 -0.384503 
-0.028310 -0.356439 
-0.041475 -0.366823 
-0.031104 -0.366300 
-0.063624 -0.364583 
-0.052505 -0.366243 
-0.050627 -0.355578 
0.010484 -0.306478 
0.004367 -0.319295 
0.008125 -0.318020 
-0.008251 -0.320061 
-0.001048 -0.319996 
0.002440 -0.306471 
-0.007822 -0.343375 
-0.004511 -0.332310 
-0.015668 -0.344858 
-0.057602 -0.310428 
-0.041873 -0.314967 
-0.036963 -0.297720 
-0.048414 -0.343680 
-0.045596 -0.330227 
-0.061642 -0.340852 
-0.012772 -0.303965 
-0.028521 -0.317783 
-0.017365 -0.319382 
-0.025142 -0.345493 
-0.021506 -0.333201 
-0.036127 -0.345156 
0.001289 -0.259019 
0.000647 -0.257246 
0.002541 -0.257973 
0.001920 -0.259251 
0.005055 -0.264746 
0.003647 -0.261356 
0.006770 -0.264508 
0.004828 -0.237991 
0.004291 -0.245216 
0.011002 -0.256278 
0.008056 -0.249601 
0.011953 -0.251267 
0.003729 -0.250950 
0.003145 -0.255202 
0.013873 -0.294313 
0.014355 -0.284111 
0.013731 -0.294550 
0.010098 -0.269096 
0.012897 -0.275576 
0.011177 -0.276209 
0.014684 -0.271791 
0.014107 -0.274073 
0.013016 -0.264628 
0.005998 -0.258222 
0.009782 -0.260204 
0.008356 -0.262971 
-0.017987 -0.283341 
-0.000091 -0.289840 
-0.007912 -0.287049 
-0.003123 -0.268994 
0.006921 -0.256026 
0.012458 -0.294217 
0.014473 -0.268807 
0.013855 -0.281532 
0.009868 -0.293337 
0.005757 -0.291897 
0.009624 -0.235829 
0.012073 -0.245407 
0.012621 -0.238339 
0.012540 -0.245258 
0.014102 -0.256514 
0.008651 -0.276580 
0.013275 -0.265179 
0.010850 -0.260931 
-0.058019 -0.395262 
-0.045888 -0.385492 
-0.027148 -0.381391 
-0.036115 -0.384115 
-0.038681 -0.392885 
-0.033652 -0.375399 
-0.021792 -0.364700 
-0.005008 -0.358348 
-0.008143 -0.365673 
-0.011273 -0.369966 
-0.002546 -0.354067 
-0.005284 -0.360383 
0.000640 -0.348847 
-0.022256 -0.384264 
-0.012945 -0.372058 
-0.019336 -0.377343 
0.005543 -0.328637 
0.010365 -0.316198 
-0.010923 -0.353253 
-0.001648 -0.341136 
0.005765 -0.334645 
0.002863 -0.338209 
0.000159 -0.346686 
-0.016586 -0.370032 
-0.007374 -0.358505 
-0.013822 -0.362077 
-0.029093 -0.281055 
-0.022796 -0.291934 
-0.027345 -0.287028 
-0.015032 -0.295434 
-0.018706 -0.294618 
-0.020840 -0.285588 
-0.016273 -0.309353 
-0.017086 -0.302492 
-0.012131 -0.312749 
-0.004076 -0.285922 
-0.006270 -0.289682 
-0.008718 -0.278387 
-0.002384 -0.311279 
-0.004043 -0.300644 
0.000104 -0.307879 
-0.014086 -0.283955 
-0.008827 -0.292690 
-0.011745 -0.294696 
-0.006915 -0.351652 
-0.003649 -0.341529 
-0.003534 -0.350249 
-0.008117 -0.322700 
-0.005229 -0.332314 
-0.008962 -0.331053 
0.000964 -0.329253 
-0.001948 -0.331621 
-0.001599 -0.321589 
-0.009772 -0.304692 
-0.005236 -0.313404 
-0.008472 -0.313990 
0.001094 -0.258654 
-0.000081 -0.253850 
0.006054 -0.269214 
0.003238 -0.263621 
-0.000614 -0.257041 
0.001340 -0.261069 
0.001318 -0.264325 
0.012789 -0.304318 
0.013049 -0.293453 
0.009089 -0.289583 
0.011410 -0.291903 
0.010671 -0.299806 
0.011600 -0.283930 
0.009048 -0.275882 
-0.004713 -0.270855 
-0.000798 -0.277129 
-0.002250 -0.281658 
0.000975 -0.268232 
0.000275 -0.272576 
-0.002053 -0.263185 
0.005307 -0.292461 
0.002876 -0.282284 
0.006207 -0.286406 
0.006591 -0.274501 
0.006641 -0.280326 
0.003878 -0.271979 
-0.000525 -0.347288 
0.003557 -0.325438 
0.002288 -0.336377 
0.002222 -0.342927 
0.004773 -0.337288 
0.000198 -0.292509 
0.007102 -0.303150 
0.003970 -0.298227 
0.002227 -0.303447 
0.003455 -0.314445 
0.011234 -0.313829 
0.007148 -0.330477 
0.009322 -0.322610 
0.010880 -0.310894 
0.009454 -0.307352 
0.005849 -0.320383 
0.007827 -0.314286 
0.007130 -0.325723 
-0.040372 -0.264260 
-0.035568 -0.269882 
-0.049023 -0.246309 
-0.042266 -0.258329 
-0.054084 -0.240630 
-0.031092 -0.273402 
-0.026950 -0.275129 
-0.073219 -0.192100 
-0.067955 -0.206719 
-0.078705 -0.188175 
-0.045812 -0.239449 
-0.056846 -0.223954 
-0.051753 -0.225858 
-0.067326 -0.215418 
-0.062041 -0.220576 
-0.055671 -0.233748 
-0.016463 -0.272467 
-0.013596 -0.269842 
-0.023136 -0.275365 
-0.019642 -0.274390 
-0.031080 -0.252480 
-0.025355 -0.263923 
-0.035217 -0.252858 
-0.044191 -0.250047 
-0.039588 -0.252135 
-0.033248 -0.264002 
-0.038470 -0.026944 
-0.061201 -0.056653 
-0.055383 -0.040821 
-0.064764 -0.097244 
-0.064851 -0.076347 
-0.057002 -0.072900 
-0.081372 -0.088343 
-0.073221 -0.081510 
-0.079696 -0.103711 
-0.042635 -0.175370 
-0.049980 -0.157612 
-0.044064 -0.156298 
-0.062321 -0.159884 
-0.056085 -0.158838 
-0.054078 -0.177790 
-0.054998 -0.116622 
-0.056538 -0.138437 
-0.061708 -0.118165 
-0.086622 -0.158418 
-0.080871 -0.160215 
-0.077614 -0.176632 
-0.082482 -0.123972 
-0.082649 -0.142720 
-0.088825 -0.125568 
-0.065922 -0.178757 
-0.074826 -0.160818 
-0.068603 -0.160611 
-0.068649 -0.119963 
-0.069686 -0.141054 
-0.075656 -0.121967 
-0.001691 -0.249756 
-0.000859 -0.248768 
-0.003804 -0.253898 
-0.002652 -0.251506 
-0.006459 -0.235662 
-0.004608 -0.244396 
-0.008796 -0.237469 
-0.011040 -0.266747 
-0.008792 -0.263403 
-0.016941 -0.244621 
-0.012905 -0.254683 
-0.020111 -0.247117 
-0.006847 -0.260019 
-0.005192 -0.256790 
-0.030065 -0.189884 
-0.027486 -0.205805 
-0.035000 -0.191484 
-0.014130 -0.228789 
-0.020436 -0.218248 
-0.016710 -0.216362 
-0.028462 -0.222171 
-0.024351 -0.220224 
-0.020795 -0.233152 
-0.008298 -0.248965 
-0.014009 -0.242078 
-0.011301 -0.239647 
-0.067647 -0.194468 
-0.056422 -0.195812 
-0.062031 -0.195609 
-0.057227 -0.211276 
-0.046779 -0.226568 
-0.040125 -0.193003 
-0.032771 -0.223948 
-0.036770 -0.209188 
-0.045425 -0.194326 
-0.050870 -0.195318 
-0.018576 -0.260203 
-0.036663 -0.239979 
-0.027181 -0.251248 
-0.023523 -0.249390 
-0.028303 -0.237329 
-0.046747 -0.211477 
-0.037269 -0.225397 
-0.041945 -0.226338 
0.000000 0.000000 
-0.030562 -0.023323 
-0.021795 -0.021900 
-0.025555 -0.022253 
0.000000 0.000000 
-0.044176 -0.047430 
-0.050032 -0.070839 
-0.011777 -0.021827 
-0.013824 -0.021801 
0.000000 0.000000 
-0.033179 -0.068192 
-0.024830 -0.044767 
-0.028518 -0.067739 
0.000000 0.000000 
-0.016116 -0.021782 
-0.018730 -0.021795 
-0.044141 -0.135852 
-0.038372 -0.154963 
-0.050947 -0.093550 
-0.048606 -0.115309 
-0.036859 -0.113156 
-0.042561 -0.114168 
-0.039008 -0.091491 
-0.033186 -0.045381 
-0.038255 -0.068774 
-0.043834 -0.069588 
-0.000000 -0.021691 
-0.001224 -0.021794 
0.000000 0.000000 
-0.003111 -0.065878 
-0.002275 -0.043842 
-0.000000 -0.065667 
0.000000 0.000000 
-0.002492 -0.021839 
-0.003810 -0.021861 
-0.004375 -0.148369 
-0.004340 -0.129108 
-0.000000 -0.148129 
-0.011364 -0.088191 
-0.008304 -0.109109 
-0.012573 -0.109537 
-0.000000 -0.108548 
-0.004130 -0.108782 
-0.003726 -0.087618 
0.000000 0.000000 
-0.008226 -0.021865 
-0.009923 -0.021850 
-0.005192 -0.021871 
-0.006657 -0.021872 
0.000000 0.000000 
-0.016441 -0.066744 
-0.012147 -0.044246 
-0.012894 -0.066489 
-0.006268 -0.066066 
-0.009516 -0.066265 
-0.006998 -0.044053 
-0.001503 -0.241964 
-0.000000 -0.248555 
-0.008181 -0.225283 
-0.004249 -0.234315 
-0.000000 -0.233205 
-0.002113 -0.233486 
-0.002684 -0.223333 
-0.031934 -0.172481 
-0.025327 -0.188299 
-0.016399 -0.185482 
-0.020777 -0.186809 
-0.022066 -0.169754 
-0.018957 -0.202362 
-0.013153 -0.214672 
-0.000000 -0.182718 
-0.004009 -0.182966 
-0.004257 -0.166372 
-0.003203 -0.211510 
-0.003650 -0.198038 
-0.000000 -0.211245 
-0.012924 -0.167622 
-0.008051 -0.183524 
-0.012168 -0.184373 
-0.009739 -0.213259 
-0.011087 -0.199609 
-0.006435 -0.212190 
-0.017984 -0.044468 
-0.019562 -0.089005 
-0.020199 -0.067033 
-0.024209 -0.067361 
-0.028664 -0.090085 
-0.008789 -0.148815 
-0.017916 -0.150291 
-0.013288 -0.149461 
-0.013193 -0.130037 
-0.016983 -0.110068 
-0.032919 -0.153656 
-0.031481 -0.112246 
-0.032834 -0.133519 
-0.027703 -0.152418 
-0.022710 -0.151286 
-0.021578 -0.110700 
-0.022588 -0.131539 
-0.026398 -0.111427 
0.000000 0.000000 
0.001224 -0.021794 
0.003810 -0.021861 
0.002492 -0.021839 
0.000000 0.000000 
0.002275 -0.043842 
0.003111 -0.065878 
0.009923 -0.021850 
0.008226 -0.021865 
0.000000 0.000000 
0.012894 -0.066489 
0.012147 -0.044246 
0.016441 -0.066744 
0.000000 0.000000 
0.006657 -0.021872 
0.005192 -0.021871 
0.004340 -0.129108 
0.004375 -0.148369 
0.003726 -0.087618 
0.004130 -0.108782 
0.012573 -0.109537 
0.008304 -0.109109 
0.011364 -0.088191 
0.006998 -0.044053 
0.009516 -0.066265 
0.006268 -0.066066 
0.038470 -0.026944 
0.030562 -0.023323 
0.000000 0.000000 
0.050032 -0.070839 
0.044176 -0.047430 
0.057002 -0.072900 
0.000000 0.000000 
0.025555 -0.022253 
0.021795 -0.021900 
0.038372 -0.154963 
0.044141 -0.135852 
0.044064 -0.156298 
0.039008 -0.091491 
0.042561 -0.114168 
0.036859 -0.113156 
0.054998 -0.116622 
0.048606 -0.115309 
0.050947 -0.093550 
0.000000 0.000000 
0.013824 -0.021801 
0.011777 -0.021827 
0.018730 -0.021795 
0.016116 -0.021782 
0.000000 0.000000 
0.028518 -0.067739 
0.024830 -0.044767 
0.033179 -0.068192 
0.043834 -0.069588 
0.038255 -0.068774 
0.033186 -0.045381 
0.001503 -0.241964 
0.000859 -0.248768 
0.002684 -0.223333 
0.002113 -0.233486 
0.006459 -0.235662 
0.004249 -0.234315 
0.008181 -0.225283 
0.004257 -0.166372 
0.004009 -0.182966 
0.012168 -0.184373 
0.008051 -0.183524 
0.012924 -0.167622 
0.003650 -0.198038 
0.003203 -0.211510 
0.030065 -0.189884 
0.025327 -0.188299 
0.031934 -0.172481 
0.013153 -0.214672 
0.018957 -0.202362 
0.016710 -0.216362 
0.022066 -0.169754 
0.020777 -0.186809 
0.016399 -0.185482 
0.006435 -0.212190 
0.011087 -0.199609 
0.009739 -0.213259 
0.017984 -0.044468 
0.028664 -0.090085 
0.024209 -0.067361 
0.020199 -0.067033 
0.019562 -0.089005 
0.032919 -0.153656 
0.022710 -0.151286 
0.027703 -0.152418 
0.032834 -0.133519 
0.031481 -0.112246 
0.008789 -0.148815 
0.016983 -0.110068 
0.013193 -0.130037 
0.013288 -0.149461 
0.017916 -0.150291 
0.026398 -0.111427 
0.022588 -0.131539 
0.021578 -0.110700 
0.055383 -0.040821 
0.061201 -0.056653 
0.079696 -0.103711 
0.073221 -0.081510 
0.081372 -0.088343 
0.064851 -0.076347 
0.064764 -0.097244 
0.077614 -0.176632 
0.080871 -0.160215 
0.086622 -0.158418 
0.068603 -0.160611 
0.074826 -0.160818 
0.065922 -0.178757 
0.088825 -0.125568 
0.082649 -0.142720 
0.082482 -0.123972 
0.049980 -0.157612 
0.042635 -0.175370 
0.061708 -0.118165 
0.056538 -0.138437 
0.054078 -0.177790 
0.056085 -0.158838 
0.062321 -0.159884 
0.075656 -0.121967 
0.069686 -0.141054 
0.068649 -0.119963 
0.029093 -0.281055 
0.035568 -0.269882 
0.040372 -0.264260 
0.026950 -0.275129 
0.031092 -0.273402 
0.020840 -0.285588 
0.054084 -0.240630 
0.042266 -0.258329 
0.049023 -0.246309 
0.013596 -0.269842 
0.016463 -0.272467 
0.008718 -0.278387 
0.035217 -0.252858 
0.025355 -0.263923 
0.031080 -0.252480 
0.014086 -0.283955 
0.019642 -0.274390 
0.023136 -0.275365 
0.078705 -0.188175 
0.067955 -0.206719 
0.073219 -0.192100 
0.055671 -0.233748 
0.062041 -0.220576 
0.067326 -0.215418 
0.051753 -0.225858 
0.056846 -0.223954 
0.045812 -0.239449 
0.033248 -0.264002 
0.039588 -0.252135 
0.044191 -0.250047 
0.001691 -0.249756 
0.000081 -0.253850 
0.008796 -0.237469 
0.004608 -0.244396 
0.000614 -0.257041 
0.002652 -0.251506 
0.003804 -0.253898 
0.035000 -0.191484 
0.027486 -0.205805 
0.020795 -0.233152 
0.024351 -0.220224 
0.028462 -0.222171 
0.020436 -0.218248 
0.014130 -0.228789 
0.004713 -0.270855 
0.008792 -0.263403 
0.011040 -0.266747 
0.005192 -0.256790 
0.006847 -0.260019 
0.002053 -0.263185 