# vtk DataFile Version 2.0
Unstructured Grid Example
ASCII
DATASET UNSTRUCTURED_GRID

POINTS 81 float
0.059991 -0.374780 0.000000 
0.940009 -0.374780 0.000000 
1.000000 1.000000 0.000000 
0.000000 1.000000 0.000000 
0.500000 -0.100000 0.000000 
0.961446 0.231936 0.000000 
0.500000 1.000000 0.000000 
0.038554 0.231936 0.000000 
0.500000 0.259035 0.000000 
0.297321 -0.282800 0.000000 
0.500000 0.035084 0.000000 
0.244236 -0.046884 0.000000 
0.702679 -0.282800 0.000000 
0.755764 -0.046884 0.000000 
0.988303 -0.094654 0.000000 
0.739841 0.236377 0.000000 
0.922629 0.578043 0.000000 
0.716369 0.586021 0.000000 
0.750000 1.000000 0.000000 
0.500000 0.597253 0.000000 
0.250000 1.000000 0.000000 
0.283631 0.586021 0.000000 
0.077371 0.578043 0.000000 
0.260159 0.236377 0.000000 
0.011697 -0.094654 0.000000 
0.180335 -0.338244 0.000000 
0.258363 -0.170797 0.000000 
0.143154 -0.215633 0.000000 
0.500000 -0.043617 0.000000 
0.373143 -0.106754 0.000000 
0.402107 -0.197893 0.000000 
0.368876 0.116845 0.000000 
0.365939 -0.001867 0.000000 
0.500000 0.135983 0.000000 
0.597893 -0.197893 0.000000 
0.626857 -0.106754 0.000000 
0.856846 -0.215633 0.000000 
0.741637 -0.170797 0.000000 
0.819665 -0.338244 0.000000 
0.634061 -0.001867 0.000000 
0.631124 0.116845 0.000000 
0.974004 -0.243249 0.000000 
0.873051 -0.079960 0.000000 
0.852581 0.224756 0.000000 
0.869641 0.066898 0.000000 
0.981852 0.065050 0.000000 
0.753063 0.087975 0.000000 
0.622654 0.253341 0.000000 
0.940909 0.400302 0.000000 
0.833662 0.393685 0.000000 
0.827083 0.787421 0.000000 
0.819254 0.578772 0.000000 
0.921327 0.770555 0.000000 
0.725195 0.400875 0.000000 
0.613600 0.410855 0.000000 
0.875000 1.000000 0.000000 
0.721659 0.790427 0.000000 
0.500000 0.796219 0.000000 
0.611874 0.792543 0.000000 
0.625000 1.000000 0.000000 
0.609352 0.592286 0.000000 
0.500000 0.416336 0.000000 
0.375000 1.000000 0.000000 
0.388126 0.792543 0.000000 
0.172917 0.787421 0.000000 
0.278341 0.790427 0.000000 
0.125000 1.000000 0.000000 
0.390648 0.592286 0.000000 
0.386400 0.410855 0.000000 
0.078673 0.770555 0.000000 
0.180746 0.578772 0.000000 
0.147419 0.224756 0.000000 
0.166338 0.393685 0.000000 
0.059091 0.400302 0.000000 
0.274805 0.400875 0.000000 
0.377346 0.253341 0.000000 
0.018148 0.065050 0.000000 
0.130359 0.066898 0.000000 
0.126949 -0.079960 0.000000 
0.025996 -0.243249 0.000000 
0.246937 0.087975 0.000000 

CELLS 128 512
3  0 25 27 
3  9 26 25 
3  11 27 26 
3  25 26 27 
3  4 28 30 
3  10 29 28 
3  9 30 29 
3  28 29 30 
3  8 31 33 
3  11 32 31 
3  10 33 32 
3  31 32 33 
3  9 29 26 
3  10 32 29 
3  11 26 32 
3  29 32 26 
3  4 34 28 
3  12 35 34 
3  10 28 35 
3  34 35 28 
3  1 36 38 
3  13 37 36 
3  12 38 37 
3  36 37 38 
3  8 33 40 
3  10 39 33 
3  13 40 39 
3  33 39 40 
3  12 37 35 
3  13 39 37 
3  10 35 39 
3  37 39 35 
3  1 41 36 
3  14 42 41 
3  13 36 42 
3  41 42 36 
3  5 43 45 
3  15 44 43 
3  14 45 44 
3  43 44 45 
3  8 40 47 
3  13 46 40 
3  15 47 46 
3  40 46 47 
3  14 44 42 
3  15 46 44 
3  13 42 46 
3  44 46 42 
3  5 48 43 
3  16 49 48 
3  15 43 49 
3  48 49 43 
3  2 50 52 
3  17 51 50 
3  16 52 51 
3  50 51 52 
3  8 47 54 
3  15 53 47 
3  17 54 53 
3  47 53 54 
3  16 51 49 
3  17 53 51 
3  15 49 53 
3  51 53 49 
3  2 55 50 
3  18 56 55 
3  17 50 56 
3  55 56 50 
3  6 57 59 
3  19 58 57 
3  18 59 58 
3  57 58 59 
3  8 54 61 
3  17 60 54 
3  19 61 60 
3  54 60 61 
3  18 58 56 
3  19 60 58 
3  17 56 60 
3  58 60 56 
3  6 62 57 
3  20 63 62 
3  19 57 63 
3  62 63 57 
3  3 64 66 
3  21 65 64 
3  20 66 65 
3  64 65 66 
3  8 61 68 
3  19 67 61 
3  21 68 67 
3  61 67 68 
3  20 65 63 
3  21 67 65 
3  19 63 67 
3  65 67 63 
3  3 69 64 
3  22 70 69 
3  21 64 70 
3  69 70 64 
3  7 71 73 
3  23 72 71 
3  22 73 72 
3  71 72 73 
3  8 68 75 
3  21 74 68 
3  23 75 74 
3  68 74 75 
3  22 72 70 
3  23 74 72 
3  21 70 74 
3  72 74 70 
3  7 76 71 
3  24 77 76 
3  23 71 77 
3  76 77 71 
3  0 27 79 
3  11 78 27 
3  24 79 78 
3  27 78 79 
3  8 75 31 
3  23 80 75 
3  11 31 80 
3  75 80 31 
3  24 78 77 
3  11 80 78 
3  23 77 80 
3  78 80 77 

CELL_TYPES 128
5
5
5
5
5
5
5
5
5
5
5
5
5
5
5
5
5
5
5
5
5
5
5
5
5
5
5
5
5
5
5
5
5
5
5
5
5
5
5
5
5
5
5
5
5
5
5
5
5
5
5
5
5
5
5
5
5
5
5
5
5
5
5
5
5
5
5
5
5
5
5
5
5
5
5
5
5
5
5
5
5
5
5
5
5
5
5
5
5
5
5
5
5
5
5
5
5
5
5
5
5
5
5
5
5
5
5
5
5
5
5
5
5
5
5
5
5
5
5
5
5
5
5
5
5
5
5
5

POINT_DATA 81

SCALARS u_h float 2
LOOKUP_TABLE default
0.059991 -0.374780 
-0.059991 -0.374780 
0.000000 0.000000 
0.000000 0.000000 
-0.000000 -0.100000 
-0.038554 -0.268064 
0.000000 0.000000 
0.038554 -0.268064 
-0.000000 -0.240965 
0.047321 -0.282800 
-0.000000 -0.214916 
-0.005764 -0.296884 
-0.047321 -0.282800 
0.005764 -0.296884 
-0.011697 -0.344654 
-0.010159 -0.263623 
-0.077371 -0.171957 
-0.033631 -0.163979 
0.000000 0.000000 
-0.000000 -0.152747 
0.000000 0.000000 
0.033631 -0.163979 
0.077371 -0.171957 
0.010159 -0.263623 
0.011697 -0.344654 
0.055335 -0.338244 
0.008363 -0.295797 
0.018154 -0.340633 
-0.000000 -0.168617 
-0.001857 -0.231754 
0.027107 -0.197893 
-0.006124 -0.258155 
-0.009061 -0.251867 
-0.000000 -0.239017 
-0.027107 -0.197893 
0.001857 -0.231754 
-0.018154 -0.340633 
-0.008363 -0.295797 
-0.055335 -0.338244 
0.009061 -0.251867 
0.006124 -0.258155 
-0.025996 -0.368249 
-0.001949 -0.329960 
-0.022419 -0.275244 
-0.005359 -0.308102 
-0.018148 -0.309950 
0.003063 -0.287025 
-0.002346 -0.246659 
-0.059091 -0.224698 
-0.041338 -0.231315 
-0.047917 -0.087579 
-0.055746 -0.171228 
-0.078673 -0.104445 
-0.024805 -0.224125 
-0.011400 -0.214145 
0.000000 0.000000 
-0.028341 -0.084573 
0.000000 -0.078781 
-0.013126 -0.082457 
0.000000 0.000000 
-0.015648 -0.157714 
-0.000000 -0.208664 
0.000000 0.000000 
0.013126 -0.082457 
0.047917 -0.087579 
0.028341 -0.084573 
0.000000 0.000000 
0.015648 -0.157714 
0.011400 -0.214145 
0.078673 -0.104445 
0.055746 -0.171228 
0.022419 -0.275244 
0.041338 -0.231315 
0.059091 -0.224698 
0.024805 -0.224125 
0.002346 -0.246659 
0.018148 -0.309950 
0.005359 -0.308102 
0.001949 -0.329960 
0.025996 -0.368249 
-0.003063 -0.287025 

CELL_DATA 128

SCALARS epsilon float 4
LOOKUP_TABLE default
0.091663 0.108832 0.000000 -0.005158
0.137025 0.145868 0.000000 0.079605
-0.031116 0.105314 0.000000 0.119403
0.073283 0.154976 0.000000 0.022569
-0.238569 1.981054 0.000000 0.801543
0.014749 -0.102812 0.000000 0.401033
0.098148 0.303952 0.000000 0.327509
0.196900 0.006434 0.000000 0.228376
0.047795 -0.004712 0.000000 0.077596
-0.035581 0.016526 0.000000 0.201375
0.069874 -0.152035 0.000000 0.182268
0.044465 -0.043282 0.000000 0.091621
0.142143 0.203469 0.000000 0.114708
0.090492 -0.103271 0.000000 0.148780
0.020887 0.096657 0.000000 0.123632
-0.045066 0.068215 0.000000 0.273873
-0.238569 1.981054 0.000000 -0.801543
0.098148 0.303952 0.000000 -0.327509
0.014749 -0.102812 0.000000 -0.401033
0.196900 0.006434 0.000000 -0.228376
0.091663 0.108832 0.000000 0.005158
-0.031116 0.105314 0.000000 -0.119403
0.137025 0.145868 0.000000 -0.079605
0.073283 0.154976 0.000000 -0.022569
0.047795 -0.004712 0.000000 -0.077596
0.069874 -0.152035 0.000000 -0.182268
-0.035581 0.016526 0.000000 -0.201375
0.044465 -0.043282 0.000000 -0.091621
0.142143 0.203469 0.000000 -0.114708
0.020887 0.096657 0.000000 -0.123632
0.090492 -0.103271 0.000000 -0.148780
-0.045066 0.068215 0.000000 -0.273873
0.028127 0.131948 0.000000 0.038527
-0.063561 0.188875 0.000000 0.011072
-0.022973 0.146185 0.000000 -0.053511
-0.029329 0.131603 0.000000 -0.033221
-0.119660 0.291193 0.000000 -0.066438
-0.106547 0.222483 0.000000 -0.108924
-0.107119 0.240365 0.000000 -0.033104
-0.101961 0.228194 0.000000 -0.078543
-0.019815 0.085815 0.000000 -0.055147
-0.029324 0.095358 0.000000 -0.117964
-0.072727 0.165076 0.000000 -0.111985
-0.037488 0.097270 0.000000 -0.140138
-0.083620 0.162936 0.000000 -0.064119
-0.081053 0.166235 0.000000 -0.125973
-0.069008 0.104693 0.000000 -0.133457
-0.073505 0.167738 0.000000 -0.085650
-0.119725 0.299390 0.000000 -0.066868
-0.138581 0.347443 0.000000 -0.059346
-0.106401 0.285981 0.000000 -0.112487
-0.136725 0.301294 0.000000 -0.062905
-0.126698 0.609363 0.000000 0.284059
-0.188289 0.484372 0.000000 0.015293
-0.187324 0.412152 0.000000 -0.007335
-0.265879 0.492549 0.000000 -0.001616
-0.019888 0.225851 0.000000 -0.053434
-0.072724 0.262895 0.000000 -0.110408
-0.115682 0.375634 0.000000 -0.061979
-0.115893 0.225334 0.000000 -0.070084
-0.183403 0.376857 0.000000 -0.064241
-0.193360 0.375749 0.000000 -0.057066
-0.141258 0.264640 0.000000 -0.085065
-0.141792 0.373716 0.000000 -0.078500
0.025404 0.496847 0.000000 0.159136
0.009144 0.484976 0.000000 0.094902
-0.167265 0.464706 0.000000 0.014195
-0.126994 0.502294 0.000000 0.181134
0.000000 0.461326 0.000000 -0.000000
-0.110444 0.441063 0.000000 -0.009109
0.002002 0.476453 0.000000 0.044209
-0.105907 0.478396 0.000000 0.040596
-0.095313 0.227162 0.000000 -0.017245
-0.154880 0.358977 0.000000 -0.034711
-0.132859 0.357333 0.000000 -0.013447
-0.096099 0.358934 0.000000 -0.031847
-0.114639 0.487220 0.000000 0.102935
-0.132196 0.447310 0.000000 -0.002250
-0.151995 0.465852 0.000000 0.006068
-0.128645 0.446698 0.000000 0.004680
0.000000 0.461326 0.000000 -0.000000
0.002002 0.476453 0.000000 -0.044209
-0.110444 0.441063 0.000000 0.009109
-0.105907 0.478396 0.000000 -0.040596
0.025404 0.496847 0.000000 -0.159136
-0.167265 0.464706 0.000000 -0.014195
0.009144 0.484976 0.000000 -0.094902
-0.126994 0.502294 0.000000 -0.181134
-0.095313 0.227162 0.000000 0.017245
-0.132859 0.357333 0.000000 0.013447
-0.154880 0.358977 0.000000 0.034711
-0.096099 0.358934 0.000000 0.031847
-0.114639 0.487220 0.000000 -0.102935
-0.151995 0.465852 0.000000 -0.006068
-0.132196 0.447310 0.000000 0.002250
-0.128645 0.446698 0.000000 -0.004680
-0.126698 0.609363 0.000000 -0.284059
-0.187324 0.412152 0.000000 0.007335
-0.188289 0.484372 0.000000 -0.015293
-0.265879 0.492549 0.000000 0.001616
-0.119725 0.299390 0.000000 0.066868
-0.106401 0.285981 0.000000 0.112487
-0.138581 0.347443 0.000000 0.059346
-0.136725 0.301294 0.000000 0.062905
-0.019888 0.225851 0.000000 0.053434
-0.115682 0.375634 0.000000 0.061979
-0.072724 0.262895 0.000000 0.110408
-0.115893 0.225334 0.000000 0.070084
-0.183403 0.376857 0.000000 0.064241
-0.141258 0.264640 0.000000 0.085065
-0.193360 0.375749 0.000000 0.057066
-0.141792 0.373716 0.000000 0.078500
-0.119660 0.291193 0.000000 0.066438
-0.107119 0.240365 0.000000 0.033104
-0.106547 0.222483 0.000000 0.108924
-0.101961 0.228194 0.000000 0.078543
0.028127 0.131948 0.000000 -0.038527
-0.022973 0.146185 0.000000 0.053511
-0.063561 0.188875 0.000000 -0.011072
-0.029329 0.131603 0.000000 0.033221
-0.019815 0.085815 0.000000 0.055147
-0.072727 0.165076 0.000000 0.111985
-0.029324 0.095358 0.000000 0.117964
-0.037488 0.097270 0.000000 0.140138
-0.083620 0.162936 0.000000 0.064119
-0.069008 0.104693 0.000000 0.133457
-0.081053 0.166235 0.000000 0.125973
-0.073505 0.167738 0.000000 0.085650

SCALARS sigma float 4
LOOKUP_TABLE default
3.273426 3.505461 2.203933 0.883295
4.705460 4.207374 3.101934 2.445645
0.104866 1.251911 0.391305 2.191719
3.377538 4.130565 2.499542 1.540191
-12.155347 58.487014 -4.876911 18.179281
-3.829544 -26.566723 -4.127502 6.482027
4.360930 2.530576 2.472388 5.834284
4.080221 -0.837910 1.015571 3.061921
1.041124 0.049150 0.305908 1.215786
-1.771057 -2.254773 -1.013343 3.487956
-0.517600 -6.763447 -1.698510 2.799955
0.478140 -1.198813 -0.194551 1.467498
5.359112 5.098136 3.771389 3.215655
0.821535 -3.740709 -0.757403 2.032319
1.398647 1.660609 0.910115 2.182572
-1.680687 -3.592226 -1.330124 4.450155
-12.155347 58.487014 -4.876911 -18.179281
4.360930 2.530576 2.472388 -5.834284
-3.829544 -26.566723 -4.127502 -6.482027
4.080221 -0.837910 1.015571 -3.061921
3.273426 3.505461 2.203933 -0.883295
0.104866 1.251911 0.391305 -2.191719
4.705460 4.207374 3.101934 -2.445645
3.377538 4.130565 2.499542 -1.540191
1.041124 0.049150 0.305908 -1.215786
-0.517600 -6.763447 -1.698510 -2.799955
-1.771057 -2.254773 -1.013343 -3.487956
0.478140 -1.198813 -0.194551 -1.467498
5.359112 5.098136 3.771389 -3.215655
1.398647 1.660609 0.910115 -2.182572
0.821535 -3.740709 -0.757403 -2.032319
-1.680687 -3.592226 -1.330124 -4.450155
1.875262 3.401196 1.645288 -0.253638
-0.050978 3.496824 1.010596 -0.192727
0.831000 2.873378 1.107687 -1.270861
0.510815 2.618841 0.923480 -0.903489
-1.330760 4.559836 0.930168 -0.527908
-1.700217 3.307583 0.447970 -1.576708
-1.109018 3.889108 0.795581 -0.415434
-1.277045 3.649066 0.673609 -0.959245
0.191884 1.791873 0.565167 -0.808606
-0.198963 1.362991 0.326106 -1.965424
-1.005861 2.551754 0.432570 -1.730368
-0.656498 1.136936 0.132121 -2.318508
-1.050869 2.610983 0.438443 -1.080471
-1.381908 2.341615 0.264966 -2.019991
-1.429834 0.897797 -0.143860 -2.337285
-0.746986 2.685911 0.549017 -1.448727
-1.262557 4.689714 0.990333 -0.516904
-1.544907 5.204089 1.055204 -0.419801
-1.144103 4.403688 0.934161 -1.470538
-1.895098 4.511758 0.742655 -0.530297
-2.255100 7.947593 1.668754 1.670029
-2.487223 6.469570 1.132106 -0.055002
-2.996976 5.524655 0.703076 -0.094973
-6.866371 5.465848 -0.352514 -0.434746
1.581178 4.644900 1.912686 -0.616985
-0.064507 4.404937 1.275539 -1.508463
-0.326392 5.874138 1.653608 -0.801583
-1.710601 3.404688 0.473877 -1.062869
-3.308485 5.019084 0.469674 -0.735147
-3.731801 4.860200 0.305659 -0.836706
-2.500552 3.739669 0.341453 -1.200232
-1.522983 5.466994 1.136196 -0.943950
4.968472 9.289610 4.968472 0.515877
4.849760 9.122132 4.849760 0.322794
-1.633822 6.506969 1.415793 0.040807
-0.992570 7.120352 1.821038 1.313746
4.613259 8.783376 4.613259 -0.000000
0.587987 6.969352 2.330277 -0.169243
4.764533 9.000850 4.764533 0.155541
1.025031 7.526425 2.678618 0.152338
-0.759865 3.810461 0.879515 -0.314363
-1.985538 5.168621 0.904909 -0.515075
-1.035444 5.457136 1.291620 -0.257355
0.369699 5.946223 1.918202 -0.410621
0.383807 7.397723 2.396814 0.638676
-0.232239 6.757824 1.968396 -0.156413
-0.926521 6.734731 1.721694 -0.124481
-0.092581 6.799898 2.030788 -0.024070
4.613259 8.783376 4.613259 -0.000000
4.764533 9.000850 4.764533 -0.155541
0.587987 6.969352 2.330277 0.169243
1.025031 7.526425 2.678618 -0.152338
4.968472 9.289610 4.968472 -0.515877
-1.633822 6.506969 1.415793 -0.040807
4.849760 9.122132 4.849760 -0.322794
-0.992570 7.120352 1.821038 -1.313746
-0.759865 3.810461 0.879515 0.314363
-1.035444 5.457136 1.291620 0.257355
-1.985538 5.168621 0.904909 0.515075
0.369699 5.946223 1.918202 0.410621
0.383807 7.397723 2.396814 -0.638676
-0.926521 6.734731 1.721694 0.124481
-0.232239 6.757824 1.968396 0.156413
-0.092581 6.799898 2.030788 0.024070
-2.255100 7.947593 1.668754 -1.670029
-2.996976 5.524655 0.703076 0.094973
-2.487223 6.469570 1.132106 0.055002
-6.866371 5.465848 -0.352514 0.434746
-1.262557 4.689714 0.990333 0.516904
-1.144103 4.403688 0.934161 1.470538
-1.544907 5.204089 1.055204 0.419801
-1.895098 4.511758 0.742655 0.530297
1.581178 4.644900 1.912686 0.616985
-0.326392 5.874138 1.653608 0.801583
-0.064507 4.404937 1.275539 1.508463
-1.710601 3.404688 0.473877 1.062869
-3.308485 5.019084 0.469674 0.735147
-2.500552 3.739669 0.341453 1.200232
-3.731801 4.860200 0.305659 0.836706
-1.522983 5.466994 1.136196 0.943950
-1.330760 4.559836 0.930168 0.527908
-1.109018 3.889108 0.795581 0.415434
-1.700217 3.307583 0.447970 1.576708
-1.277045 3.649066 0.673609 0.959245
1.875262 3.401196 1.645288 0.253638
0.831000 2.873378 1.107687 1.270861
-0.050978 3.496824 1.010596 0.192727
0.510815 2.618841 0.923480 0.903489
0.191884 1.791873 0.565167 0.808606
-1.005861 2.551754 0.432570 1.730368
-0.198963 1.362991 0.326106 1.965424
-0.656498 1.136936 0.132121 2.318508
-1.050869 2.610983 0.438443 1.080471
-1.429834 0.897797 -0.143860 2.337285
-1.381908 2.341615 0.264966 2.019991
-0.746986 2.685911 0.549017 1.448727

