# vtk DataFile Version 2.0
Unstructured Grid Example
ASCII
DATASET UNSTRUCTURED_GRID

POINTS 4225 float
0.065545 -0.395084 0.000000 
0.934455 -0.395084 0.000000 
1.000000 1.000000 0.000000 
0.000000 1.000000 0.000000 
0.500000 -0.100000 0.000000 
0.966420 0.223862 0.000000 
0.500000 1.000000 0.000000 
0.033580 0.223862 0.000000 
0.500000 0.244885 0.000000 
0.302544 -0.293819 0.000000 
0.500000 0.011432 0.000000 
0.236778 -0.056787 0.000000 
0.697456 -0.293819 0.000000 
0.763222 -0.056787 0.000000 
0.992695 -0.111924 0.000000 
0.743494 0.223982 0.000000 
0.916113 0.575994 0.000000 
0.712377 0.575102 0.000000 
0.750000 1.000000 0.000000 
0.500000 0.582599 0.000000 
0.250000 1.000000 0.000000 
0.287623 0.575102 0.000000 
0.083887 0.575994 0.000000 
0.256506 0.223982 0.000000 
0.007305 -0.111924 0.000000 
0.186052 -0.355078 0.000000 
0.252653 -0.181936 0.000000 
0.142670 -0.231602 0.000000 
0.500000 -0.065654 0.000000 
0.364312 -0.115441 0.000000 
0.392626 -0.207374 0.000000 
0.366733 0.103610 0.000000 
0.360601 -0.012505 0.000000 
0.500000 0.115861 0.000000 
0.607374 -0.207374 0.000000 
0.635688 -0.115441 0.000000 
0.857330 -0.231602 0.000000 
0.747347 -0.181936 0.000000 
0.813948 -0.355078 0.000000 
0.639399 -0.012505 0.000000 
0.633267 0.103610 0.000000 
0.971191 -0.265344 0.000000 
0.879244 -0.093252 0.000000 
0.857891 0.213708 0.000000 
0.876677 0.055511 0.000000 
0.988543 0.054316 0.000000 
0.758734 0.077321 0.000000 
0.623719 0.238561 0.000000 
0.938768 0.396377 0.000000 
0.833611 0.383879 0.000000 
0.816483 0.779172 0.000000 
0.814451 0.570661 0.000000 
0.912409 0.766705 0.000000 
0.725374 0.388467 0.000000 
0.613839 0.396745 0.000000 
0.875000 1.000000 0.000000 
0.715778 0.783702 0.000000 
0.500000 0.786806 0.000000 
0.609367 0.785908 0.000000 
0.625000 1.000000 0.000000 
0.607352 0.580353 0.000000 
0.500000 0.400480 0.000000 
0.375000 1.000000 0.000000 
0.390633 0.785908 0.000000 
0.183517 0.779172 0.000000 
0.284222 0.783702 0.000000 
0.125000 1.000000 0.000000 
0.392648 0.580353 0.000000 
0.386161 0.396745 0.000000 
0.087591 0.766705 0.000000 
0.185549 0.570661 0.000000 
0.142109 0.213708 0.000000 
0.166389 0.383879 0.000000 
0.061232 0.396377 0.000000 
0.274626 0.388467 0.000000 
0.376281 0.238561 0.000000 
0.011457 0.054316 0.000000 
0.123323 0.055511 0.000000 
0.120756 -0.093252 0.000000 
0.028809 -0.265344 0.000000 
0.241266 0.077321 0.000000 
0.125238 -0.376150 0.000000 
0.162702 -0.295593 0.000000 
0.104845 -0.315053 0.000000 
0.271910 -0.240543 0.000000 
0.218827 -0.271489 0.000000 
0.246409 -0.328447 0.000000 
0.184936 -0.144439 0.000000 
0.198257 -0.209534 0.000000 
0.241489 -0.120448 0.000000 
0.500000 -0.089441 0.000000 
0.430765 -0.122008 0.000000 
0.440816 -0.159184 0.000000 
0.426922 -0.041563 0.000000 
0.426761 -0.083405 0.000000 
0.500000 -0.031051 0.000000 
0.348596 -0.251404 0.000000 
0.374689 -0.162861 0.000000 
0.322752 -0.202988 0.000000 
0.435191 0.174964 0.000000 
0.432679 0.112589 0.000000 
0.500000 0.177294 0.000000 
0.297097 -0.034395 0.000000 
0.363006 0.043532 0.000000 
0.298693 0.026792 0.000000 
0.500000 0.060552 0.000000 
0.430385 0.055911 0.000000 
0.428400 0.004642 0.000000 
0.307270 -0.149608 0.000000 
0.360444 -0.065283 0.000000 
0.299383 -0.093149 0.000000 
0.559184 -0.159184 0.000000 
0.569235 -0.122008 0.000000 
0.677248 -0.202988 0.000000 
0.625311 -0.162861 0.000000 
0.651404 -0.251404 0.000000 
0.573239 -0.083405 0.000000 
0.573078 -0.041563 0.000000 
0.895155 -0.315053 0.000000 
0.837298 -0.295593 0.000000 
0.874762 -0.376150 0.000000 
0.758511 -0.120448 0.000000 
0.801743 -0.209534 0.000000 
0.815064 -0.144439 0.000000 
0.753591 -0.328447 0.000000 
0.781173 -0.271489 0.000000 
0.728090 -0.240543 0.000000 
0.567321 0.112589 0.000000 
0.564809 0.174964 0.000000 
0.571600 0.004642 0.000000 
0.569615 0.055911 0.000000 
0.701307 0.026792 0.000000 
0.636994 0.043532 0.000000 
0.702903 -0.034395 0.000000 
0.692730 -0.149608 0.000000 
0.700617 -0.093149 0.000000 
0.639556 -0.065283 0.000000 
0.953332 -0.333123 0.000000 
0.914136 -0.249380 0.000000 
0.936389 -0.105040 0.000000 
0.928431 -0.179153 0.000000 
0.985040 -0.191173 0.000000 
0.871568 -0.163935 0.000000 
0.821662 -0.076932 0.000000 
0.912958 0.215046 0.000000 
0.924672 0.132311 0.000000 
0.978956 0.138837 0.000000 
0.811062 0.139511 0.000000 
0.868639 0.133337 0.000000 
0.801382 0.217384 0.000000 
0.993606 -0.029558 0.000000 
0.933446 0.051299 0.000000 
0.937795 -0.027959 0.000000 
0.628720 0.168420 0.000000 
0.562159 0.243368 0.000000 
0.762872 0.009009 0.000000 
0.697095 0.091025 0.000000 
0.684245 0.231613 0.000000 
0.691170 0.159055 0.000000 
0.751940 0.148751 0.000000 
0.880635 -0.020018 0.000000 
0.818482 0.064812 0.000000 
0.822424 -0.007220 0.000000 
0.952652 0.309470 0.000000 
0.899820 0.299767 0.000000 
0.874458 0.477166 0.000000 
0.886549 0.386939 0.000000 
0.926118 0.485054 0.000000 
0.845793 0.297040 0.000000 
0.790617 0.299009 0.000000 
0.884708 0.886103 0.000000 
0.864335 0.774128 0.000000 
0.927486 0.868965 0.000000 
0.763706 0.572415 0.000000 
0.811211 0.671966 0.000000 
0.761625 0.674586 0.000000 
0.910583 0.669667 0.000000 
0.860466 0.669698 0.000000 
0.865062 0.571132 0.000000 
0.618603 0.314532 0.000000 
0.559497 0.318120 0.000000 
0.734324 0.303680 0.000000 
0.676952 0.309337 0.000000 
0.664131 0.482292 0.000000 
0.669997 0.392777 0.000000 
0.717656 0.478849 0.000000 
0.822648 0.474859 0.000000 
0.770454 0.475967 0.000000 
0.779906 0.385002 0.000000 
0.937500 1.000000 0.000000 
0.835983 0.890878 0.000000 
0.728428 0.892635 0.000000 
0.783245 0.892162 0.000000 
0.812500 1.000000 0.000000 
0.767000 0.781961 0.000000 
0.711097 0.677058 0.000000 
0.500000 0.893381 0.000000 
0.557818 0.893261 0.000000 
0.562500 1.000000 0.000000 
0.553642 0.682107 0.000000 
0.554872 0.786526 0.000000 
0.500000 0.682556 0.000000 
0.687500 1.000000 0.000000 
0.615349 0.893112 0.000000 
0.672322 0.892908 0.000000 
0.557079 0.399492 0.000000 
0.500000 0.319378 0.000000 
0.660256 0.577929 0.000000 
0.609894 0.485399 0.000000 
0.500000 0.488315 0.000000 
0.555098 0.487535 0.000000 
0.553839 0.581988 0.000000 
0.663119 0.784967 0.000000 
0.606917 0.680964 0.000000 
0.659488 0.679232 0.000000 
0.437500 1.000000 0.000000 
0.442182 0.893261 0.000000 
0.327678 0.892908 0.000000 
0.384651 0.893112 0.000000 
0.312500 1.000000 0.000000 
0.445128 0.786526 0.000000 
0.446358 0.682107 0.000000 
0.115292 0.886103 0.000000 
0.164017 0.890878 0.000000 
0.062500 1.000000 0.000000 
0.288903 0.677058 0.000000 
0.233000 0.781961 0.000000 
0.238375 0.674586 0.000000 
0.187500 1.000000 0.000000 
0.216755 0.892162 0.000000 
0.271572 0.892635 0.000000 
0.442921 0.399492 0.000000 
0.440503 0.318120 0.000000 
0.446161 0.581988 0.000000 
0.444902 0.487535 0.000000 
0.335869 0.482292 0.000000 
0.390106 0.485399 0.000000 
0.339744 0.577929 0.000000 
0.336881 0.784967 0.000000 
0.340512 0.679232 0.000000 
0.393083 0.680964 0.000000 
0.072514 0.868965 0.000000 
0.135665 0.774128 0.000000 
0.134938 0.571132 0.000000 
0.139534 0.669698 0.000000 
0.089417 0.669667 0.000000 
0.188789 0.671966 0.000000 
0.236294 0.572415 0.000000 
0.087042 0.215046 0.000000 
0.100180 0.299767 0.000000 
0.047348 0.309470 0.000000 
0.209383 0.299009 0.000000 
0.154207 0.297040 0.000000 
0.198618 0.217384 0.000000 
0.073882 0.485054 0.000000 
0.113451 0.386939 0.000000 
0.125542 0.477166 0.000000 
0.381397 0.314532 0.000000 
0.437841 0.243368 0.000000 
0.282344 0.478849 0.000000 
0.330003 0.392777 0.000000 
0.315755 0.231613 0.000000 
0.323048 0.309337 0.000000 
0.265676 0.303680 0.000000 
0.177352 0.474859 0.000000 
0.220094 0.385002 0.000000 
0.229546 0.475967 0.000000 
0.021044 0.138837 0.000000 
0.075328 0.132311 0.000000 
0.062205 -0.027959 0.000000 
0.066554 0.051299 0.000000 
0.006394 -0.029558 0.000000 
0.131361 0.133337 0.000000 
0.188938 0.139511 0.000000 
0.085864 -0.249380 0.000000 
0.046668 -0.333123 0.000000 
0.178338 -0.076932 0.000000 
0.128432 -0.163935 0.000000 
0.014960 -0.191173 0.000000 
0.071569 -0.179153 0.000000 
0.063611 -0.105040 0.000000 
0.371280 0.168420 0.000000 
0.248060 0.148751 0.000000 
0.308830 0.159055 0.000000 
0.302905 0.091025 0.000000 
0.237128 0.009009 0.000000 
0.119365 -0.020018 0.000000 
0.177576 -0.007220 0.000000 
0.181518 0.064812 0.000000 
0.095252 -0.385636 0.000000 
0.115138 -0.346132 0.000000 
0.085570 -0.355386 0.000000 
0.174218 -0.325949 0.000000 
0.144738 -0.336473 0.000000 
0.155553 -0.366116 0.000000 
0.123631 -0.273850 0.000000 
0.133896 -0.305722 0.000000 
0.152064 -0.264106 0.000000 
0.285434 -0.268179 0.000000 
0.259310 -0.285518 0.000000 
0.275351 -0.312235 0.000000 
0.234607 -0.227148 0.000000 
0.245789 -0.256954 0.000000 
0.261138 -0.211682 0.000000 
0.216467 -0.342636 0.000000 
0.231831 -0.300777 0.000000 
0.203348 -0.314162 0.000000 
0.209508 -0.100379 0.000000 
0.213143 -0.132969 0.000000 
0.238416 -0.088874 0.000000 
0.170643 -0.221216 0.000000 
0.190714 -0.177317 0.000000 
0.162839 -0.188356 0.000000 
0.246173 -0.151489 0.000000 
0.218443 -0.165009 0.000000 
0.225550 -0.196438 0.000000 
0.191076 -0.284287 0.000000 
0.207621 -0.240983 0.000000 
0.180095 -0.253240 0.000000 
0.500000 -0.096216 0.000000 
0.465303 -0.116126 0.000000 
0.469912 -0.130088 0.000000 
0.461560 -0.087379 0.000000 
0.462308 -0.102362 0.000000 
0.500000 -0.079164 0.000000 
0.415847 -0.184153 0.000000 
0.435492 -0.140368 0.000000 
0.408293 -0.163345 0.000000 
0.463334 -0.012892 0.000000 
0.462784 -0.033887 0.000000 
0.500000 -0.010690 0.000000 
0.394576 -0.098787 0.000000 
0.426569 -0.062962 0.000000 
0.393214 -0.075973 0.000000 
0.500000 -0.049469 0.000000 
0.462241 -0.053280 0.000000 
0.461760 -0.071078 0.000000 
0.326847 -0.273153 0.000000 
0.334098 -0.227968 0.000000 
0.310119 -0.248734 0.000000 
0.382748 -0.185393 0.000000 
0.358178 -0.206857 0.000000 
0.370351 -0.229649 0.000000 
0.340868 -0.158249 0.000000 
0.348417 -0.183064 0.000000 
0.368553 -0.139539 0.000000 
0.427949 -0.103055 0.000000 
0.397365 -0.120962 0.000000 
[...]
POINT_DATA 4225

SCALARS u_h float 2
LOOKUP_TABLE default
0.065545 -0.395084 
-0.065545 -0.395084 
0.000000 0.000000 
0.000000 0.000000 
0.000000 -0.100000 
-0.033580 -0.276138 
0.000000 0.000000 
0.033580 -0.276138 
-0.000000 -0.255115 
0.052544 -0.293819 
-0.000000 -0.238568 
-0.013222 -0.306787 
-0.052544 -0.293819 
0.013222 -0.306787 
-0.007305 -0.361924 
-0.006506 -0.276018 
-0.083887 -0.174006 
-0.037623 -0.174898 
0.000000 0.000000 
-0.000000 -0.167401 
0.000000 0.000000 
0.037623 -0.174898 
0.083887 -0.174006 
0.006506 -0.276018 
0.007305 -0.361924 
0.061052 -0.355078 
0.002653 -0.306936 
0.017670 -0.356602 
0.000000 -0.190654 
-0.010688 -0.240441 
0.017626 -0.207374 
-0.008267 -0.271390 
-0.014399 -0.262505 
-0.000000 -0.259139 
-0.017626 -0.207374 
0.010688 -0.240441 
-0.017670 -0.356602 
-0.002653 -0.306936 
-0.061052 -0.355078 
0.014399 -0.262505 
0.008267 -0.271390 
-0.028809 -0.390344 
0.004244 -0.343252 
-0.017109 -0.286292 
0.001677 -0.319489 
-0.011457 -0.320684 
0.008734 -0.297679 
-0.001281 -0.261439 
-0.061232 -0.228623 
-0.041389 -0.241121 
-0.058517 -0.095828 
-0.060549 -0.179339 
-0.087591 -0.108295 
-0.024626 -0.236533 
-0.011161 -0.228255 
0.000000 0.000000 
-0.034222 -0.091298 
-0.000000 -0.088194 
-0.015633 -0.089092 
0.000000 0.000000 
-0.017648 -0.169647 
-0.000000 -0.224520 
0.000000 0.000000 
0.015633 -0.089092 
0.058517 -0.095828 
0.034222 -0.091298 
0.000000 0.000000 
0.017648 -0.169647 
0.011161 -0.228255 
0.087591 -0.108295 
0.060549 -0.179339 
0.017109 -0.286292 
0.041389 -0.241121 
0.061232 -0.228623 
0.024626 -0.236533 
0.001281 -0.261439 
0.011457 -0.320684 
-0.001677 -0.319489 
-0.004244 -0.343252 
0.028809 -0.390344 
-0.008734 -0.297679 
0.062738 -0.376150 
0.037702 -0.358093 
0.042345 -0.377553 
0.021910 -0.303043 
0.031327 -0.333989 
0.058909 -0.328447 
-0.002564 -0.331939 
0.010757 -0.334534 
-0.008511 -0.307948 
-0.000000 -0.151941 
-0.006735 -0.184508 
0.003316 -0.159184 
-0.010578 -0.229063 
-0.010739 -0.208405 
-0.000000 -0.218551 
0.036096 -0.251404 
-0.000311 -0.225361 
0.010252 -0.265488 
-0.002309 -0.262536 
-0.004821 -0.262411 
-0.000000 -0.260206 
-0.015403 -0.284395 
-0.011994 -0.268968 
-0.013807 -0.285708 
-0.000000 -0.251948 
-0.007115 -0.256589 
-0.009100 -0.245358 
-0.005230 -0.274608 
-0.014556 -0.252783 
-0.013117 -0.280649 
-0.003316 -0.159184 
0.006735 -0.184508 
-0.010252 -0.265488 
0.000311 -0.225361 
-0.036096 -0.251404 
0.010739 -0.208405 
0.010578 -0.229063 
-0.042345 -0.377553 
-0.037702 -0.358093 
-0.062738 -0.376150 
0.008511 -0.307948 
-0.010757 -0.334534 
0.002564 -0.331939 
-0.058909 -0.328447 
-0.031327 -0.333989 
-0.021910 -0.303043 
0.004821 -0.262411 
0.002309 -0.262536 
0.009100 -0.245358 
0.007115 -0.256589 
0.013807 -0.285708 
0.011994 -0.268968 
0.015403 -0.284395 
0.005230 -0.274608 
0.013117 -0.280649 
0.014556 -0.252783 
-0.046668 -0.395623 
-0.023364 -0.374380 
-0.001111 -0.355040 
-0.009069 -0.366653 
-0.014960 -0.378673 
-0.003432 -0.351435 
0.009162 -0.326932 
-0.024542 -0.284954 
-0.012828 -0.305189 
-0.021044 -0.298663 
-0.001438 -0.297989 
-0.006361 -0.304163 
-0.011118 -0.282616 
-0.006394 -0.342058 
-0.004054 -0.323701 
0.000295 -0.340459 
0.003720 -0.269080 
-0.000341 -0.256632 
0.012872 -0.303491 
0.009595 -0.283975 
-0.003255 -0.268387 
0.003670 -0.278445 
0.001940 -0.288749 
0.005635 -0.332518 
0.005982 -0.310188 
0.009924 -0.319720 
-0.047348 -0.253030 
-0.037680 -0.262733 
-0.063042 -0.210334 
-0.050951 -0.238061 
-0.073882 -0.202446 
-0.029207 -0.265460 
-0.021883 -0.263491 
-0.052792 -0.051397 
-0.073165 -0.100872 
-0.072514 -0.068535 
-0.048794 -0.177585 
-0.063789 -0.140534 
-0.050875 -0.137914 
-0.089417 -0.142833 
-0.077034 -0.142802 
-0.072438 -0.178868 
-0.006397 -0.247968 
-0.003003 -0.244380 
-0.015676 -0.258820 
-0.010548 -0.253163 
-0.023369 -0.205208 
-0.017503 -0.232223 
-0.032344 -0.208651 
-0.052352 -0.212641 
-0.042046 -0.211533 
-0.032594 -0.239998 
0.000000 0.000000 
-0.039017 -0.046622 
-0.021572 -0.044865 
-0.029255 -0.045338 
0.000000 0.000000 
-0.045500 -0.093039 
-0.038903 -0.135442 
-0.000000 -0.044119 
-0.004682 -0.044239 
0.000000 0.000000 
-0.008858 -0.130393 
-0.007628 -0.088474 
-0.000000 -0.129944 
0.000000 0.000000 
-0.009651 -0.044388 
-0.015178 -0.044592 
-0.005421 -0.225508 
-0.000000 -0.243122 
-0.027244 -0.172071 
-0.015106 -0.202101 
-0.000000 -0.199185 
-0.007402 -0.199965 
-0.008661 -0.168012 
-0.024381 -0.090033 
-0.018083 -0.131536 
-0.028012 -0.133268 
0.000000 0.000000 
0.004682 -0.044239 
0.015178 -0.044592 
0.009651 -0.044388 
0.000000 0.000000 
0.007628 -0.088474 
0.008858 -0.130393 
0.052792 -0.051397 
0.039017 -0.046622 
0.000000 0.000000 
0.038903 -0.135442 
0.045500 -0.093039 
0.050875 -0.137914 
0.000000 0.000000 
0.029255 -0.045338 
0.021572 -0.044865 
0.005421 -0.225508 
0.003003 -0.244380 
0.008661 -0.168012 
0.007402 -0.199965 
0.023369 -0.205208 
0.015106 -0.202101 
0.027244 -0.172071 
0.024381 -0.090033 
0.028012 -0.133268 
0.018083 -0.131536 
0.072514 -0.068535 
0.073165 -0.100872 
0.072438 -0.178868 
0.077034 -0.142802 
0.089417 -0.142833 
0.063789 -0.140534 
0.048794 -0.177585 
0.024542 -0.284954 
0.037680 -0.262733 
0.047348 -0.253030 
0.021883 -0.263491 
0.029207 -0.265460 
0.011118 -0.282616 
0.073882 -0.202446 
0.050951 -0.238061 
0.063042 -0.210334 
0.006397 -0.247968 
0.000341 -0.256632 
0.032344 -0.208651 
0.017503 -0.232223 
0.003255 -0.268387 
0.010548 -0.253163 
0.015676 -0.258820 
0.052352 -0.212641 
0.032594 -0.239998 
0.042046 -0.211533 
0.021044 -0.298663 
0.012828 -0.305189 
-0.000295 -0.340459 
0.004054 -0.323701 
0.006394 -0.342058 
0.006361 -0.304163 
0.001438 -0.297989 
0.023364 -0.374380 
0.046668 -0.395623 
-0.009162 -0.326932 
0.003432 -0.351435 
0.014960 -0.378673 
0.009069 -0.366653 
0.001111 -0.355040 
-0.003720 -0.269080 
-0.001940 -0.288749 
-0.003670 -0.278445 
-0.009595 -0.283975 
-0.012872 -0.303491 
-0.005635 -0.332518 
-0.009924 -0.319720 
-0.005982 -0.310188 
0.064002 -0.385636 
0.052638 -0.377382 
0.054320 -0.386636 
0.049218 -0.357199 
0.050988 -0.367723 
0.061803 -0.366116 
0.029881 -0.367600 
0.040146 -0.368222 
0.027064 -0.357856 
0.035434 -0.299429 
0.040560 -0.316768 
0.056601 -0.312235 
0.015857 -0.320898 
0.027039 -0.319454 
0.011138 -0.305432 
0.060217 -0.342636 
0.044331 -0.332027 
0.047098 -0.345412 
-0.009242 -0.319129 
-0.005607 -0.320469 
-0.011584 -0.307624 
0.014393 -0.346216 
0.003214 -0.333567 
0.006589 -0.344606 
-0.003827 -0.307739 
-0.000307 -0.321259 
0.006800 -0.321438 
0.034826 -0.346787 
0.020121 -0.334733 
0.023845 -0.346990 
-0.000000 -0.127466 
-0.003447 -0.147376 
0.001162 -0.130088 
-0.007190 -0.181129 
-0.006442 -0.164862 
-0.000000 -0.172914 
0.009597 -0.184153 
-0.002008 -0.171618 
0.002043 -0.194595 
-0.005416 -0.231642 
-0.005966 -0.221387 
-0.000000 -0.229440 
-0.011674 -0.223787 
-0.010931 -0.219212 
-0.013036 -0.232223 
-0.000000 -0.205719 
-0.006509 -0.209530 
-0.006990 -0.196078 
0.045597 -0.273153 
0.021598 -0.259218 
0.028869 -0.279984 
0.007748 -0.216643 
0.014428 -0.238107 
0.026601 -0.229649 
-0.002882 -0.251999 
0.004667 -0.245564 
-0.006447 -0.233289 
-0.009551 -0.196805 
-0.008885 -0.214712 
-0.004302 -0.204963 
-0.000559 -0.258888 
-0.001219 -0.260791 
-0.000000 -0.258422 
-0.006780 -0.266299 
-0.003587 -0.263205 
-0.005020 -0.266510 
-0.000000 -0.260442 
-0.001871 -0.261142 
-0.002507 -0.259971 
-0.014627 -0.295730 
-0.015001 -0.285388 
-0.014611 -0.295493 
-0.013405 -0.266194 
-0.014636 -0.275475 
-0.015382 -0.273163 
-0.011442 -0.277685 
-0.013282 -0.277015 
-0.010259 -0.270729 
-0.000000 -0.246048 
-0.004301 -0.247484 
-0.004863 -0.240329 
-0.003125 -0.257298 
-0.003723 -0.253136 
-0.000000 -0.256307 
-0.012320 -0.253005 
-0.008153 -0.251632 
-0.011239 -0.258057 
-0.008424 -0.264777 
-0.009922 -0.262006 
-0.006001 -0.260193 
0.016144 -0.284865 
-0.008406 -0.257545 
0.001430 -0.270525 
0.006209 -0.288499 
-0.001451 -0.291210 
-0.009927 -0.237813 
-0.014845 -0.258003 
-0.013085 -0.246942 
-0.013396 -0.239975 
-0.013278 -0.246921 
-0.013515 -0.295415 
-0.007138 -0.293195 
-0.011087 -0.294575 
-0.014843 -0.282801 
-0.015359 -0.270167 
-0.012139 -0.262361 
-0.014362 -0.266556 
-0.009995 -0.277939 
-0.001162 -0.130088 
0.003447 -0.147376 
-0.002043 -0.194595 
0.002008 -0.171618 
-0.009597 -0.184153 
0.006442 -0.164862 
0.007190 -0.181129 
-0.028869 -0.279984 
-0.021598 -0.259218 
-0.045597 -0.273153 
0.006447 -0.233289 
-0.004667 -0.245564 
0.002882 -0.251999 
-0.026601 -0.229649 
-0.014428 -0.238107 
-0.007748 -0.216643 
0.005966 -0.221387 
0.005416 -0.231642 
0.006990 -0.196078 
0.006509 -0.209530 
0.013036 -0.232223 
0.010931 -0.219212 
0.011674 -0.223787 
0.004302 -0.204963 
0.008885 -0.214712 
0.009551 -0.196805 
-0.054320 -0.386636 
-0.052638 -0.377382 
-0.064002 -0.385636 
-0.027064 -0.357856 
-0.040146 -0.368222 
-0.029881 -0.367600 
-0.061803 -0.366116 
-0.050988 -0.367723 
-0.049218 -0.357199 
0.011584 -0.307624 
0.005607 -0.320469 
0.009242 -0.319129 
-0.006800 -0.321438 
0.000307 -0.321259 
0.003827 -0.307739 
-0.006589 -0.344606 
-0.003214 -0.333567 
-0.014393 -0.346216 
-0.056601 -0.312235 
-0.040560 -0.316768 
-0.035434 -0.299429 
-0.047098 -0.345412 
-0.044331 -0.332027 
-0.060217 -0.342636 
-0.011138 -0.305432 
-0.027039 -0.319454 
-0.015857 -0.320898 
-0.023845 -0.346990 
-0.020121 -0.334733 
-0.034826 -0.346787 
0.001219 -0.260791 
0.000559 -0.258888 
0.002507 -0.259971 
0.001871 -0.261142 
0.005020 -0.266510 
0.003587 -0.263205 
0.006780 -0.266299 
0.004863 -0.240329 
0.004301 -0.247484 
0.011239 -0.258057 
0.008153 -0.251632 
0.012320 -0.253005 
0.003723 -0.253136 
0.003125 -0.257298 
0.014611 -0.295493 
0.015001 -0.285388 
0.014627 -0.295730 
0.010259 -0.270729 
0.013282 -0.277015 
0.011442 -0.277685 
0.015382 -0.273163 
0.014636 -0.275475 
0.013405 -0.266194 
0.006001 -0.260193 
0.009922 -0.262006 
0.008424 -0.264777 
-0.016144 -0.284865 
0.001451 -0.291210 
-0.006209 -0.288499 
-0.001430 -0.270525 
0.008406 -0.257545 
0.013515 -0.295415 
0.015359 -0.270167 
0.014843 -0.282801 
0.011087 -0.294575 
0.007138 -0.293195 
0.009927 -0.237813 
0.013278 -0.246921 
0.013396 -0.239975 
0.013085 -0.246942 
0.014845 -0.258003 
0.009995 -0.277939 
0.014362 -0.266556 
0.012139 -0.262361 
-0.056117 -0.395952 
-0.044471 -0.386523 
-0.026026 -0.382388 
-0.034891 -0.385129 
-0.037429 -0.393803 
-0.032435 -0.376558 
-0.020628 -0.365898 
-0.004041 -0.359125 
-0.007131 -0.366525 
-0.010286 -0.370812 
-0.001499 -0.355015 
-0.004255 -0.361276 
0.001625 -0.349735 
-0.021209 -0.385256 
-0.011901 -0.372976 
-0.018263 -0.378309 
0.006655 -0.329715 
0.011352 -0.317264 
-0.009749 -0.354432 
-0.000477 -0.342262 
0.006767 -0.335630 
0.003956 -0.339253 
0.001228 -0.347687 
-0.015490 -0.371055 
-0.006282 -0.359525 
-0.012694 -0.363181 
-0.028846 -0.281661 
-0.022493 -0.292505 
-0.027032 -0.287478 
-0.014749 -0.296214 
-0.018411 -0.295299 
-0.020638 -0.286392 
-0.015786 -0.309731 
-0.016696 -0.303041 
-0.011639 -0.313292 
-0.003917 -0.287068 
-0.006070 -0.290734 
-0.008641 -0.279560 
-0.001918 -0.312123 
-0.003711 -0.301585 
0.000543 -0.308802 
-0.013939 -0.284944 
-0.008592 -0.293653 
-0.011482 -0.295569 
-0.006031 -0.352265 
-0.002836 -0.342167 
-0.002634 -0.350953 
-0.007514 -0.323255 
-0.004518 -0.332901 
-0.008260 -0.331487 
0.001670 -0.330030 
-0.001236 -0.332316 
-0.001005 -0.322353 
-0.009394 -0.305459 
-0.004753 -0.314164 
-0.007980 -0.314654 
0.000996 -0.260359 
-0.000128 -0.255385 
0.006072 -0.270866 
0.003169 -0.265351 
-0.000705 -0.258690 
0.001252 -0.262762 
0.001254 -0.265960 
0.013597 -0.305422 
0.013640 -0.294650 
0.009425 -0.290839 
0.011866 -0.293127 
0.011202 -0.300934 
0.011965 -0.285269 
0.009213 -0.277388 
-0.004713 -0.272220 
-0.000734 -0.278475 
-0.002136 -0.282902 
0.000946 -0.269781 
0.000291 -0.274025 
-0.002119 -0.264729 
0.005604 -0.293646 
0.003017 -0.283605 
0.006438 -0.287696 
0.006676 -0.276030 
0.006800 -0.281732 
0.003899 -0.273522 
0.000379 -0.348064 
0.004250 -0.326285 
0.003100 -0.337180 
0.003128 -0.343766 
0.005678 -0.338182 
0.000450 -0.293627 
0.007571 -0.304215 
0.004325 -0.299316 
0.002629 -0.304451 
0.004008 -0.315357 
0.012088 -0.314873 
0.008047 -0.331421 
0.010205 -0.323603 
0.011601 -0.311931 
0.010045 -0.308398 
0.006519 -0.321294 
0.008465 -0.315261 
0.007917 -0.326643 
-0.040356 -0.264725 
-0.035508 -0.270480 
-0.049248 -0.246865 
-0.042361 -0.258906 
-0.054362 -0.241016 
-0.031016 -0.274115 
-0.026874 -0.275946 
-0.073790 -0.192623 
-0.068455 -0.207243 
-0.079315 -0.188537 
-0.046078 -0.240243 
-0.057231 -0.224619 
-0.052108 -0.226636 
-0.067794 -0.215787 
-0.062464 -0.221105 
-0.056004 -0.234288 
-0.016436 -0.273561 
-0.013592 -0.271024 
-0.023070 -0.276278 
-0.019593 -0.275394 
-0.031221 -0.253478 
-0.025404 -0.264931 
-0.035366 -0.253767 
-0.044378 -0.250740 
-0.039752 -0.252944 
-0.033297 -0.264820 
-0.040225 -0.029172 
-0.062167 -0.057705 
-0.054828 -0.043567 
-0.065690 -0.097985 
-0.065875 -0.077152 
-0.058037 -0.073685 
-0.082337 -0.089333 
-0.074237 -0.082406 
-0.080631 -0.104465 
-0.043116 -0.176301 
-0.050570 -0.158460 
-0.044615 -0.157167 
-0.062967 -0.160663 
-0.056706 -0.159657 
-0.054621 -0.178644 
-0.055775 -0.117367 
-0.057238 -0.139221 
-0.062521 -0.118908 
-0.087355 -0.158792 
-0.081574 -0.160765 
-0.078251 -0.177163 
-0.083332 -0.124626 
-0.083421 -0.143309 
-0.089678 -0.126044 
-0.066512 -0.179493 
-0.075510 -0.161476 
-0.069270 -0.161340 
-0.069483 -0.120692 
-0.070433 -0.141780 
-0.076501 -0.122673 
-0.001695 -0.251321 
-0.000828 -0.250247 
-0.003857 -0.255461 
-0.002686 -0.253092 
-0.006486 -0.237122 
-0.004625 -0.245916 
-0.008850 -0.238911 
-0.011059 -0.268018 
-0.008832 -0.264761 
-0.017060 -0.245919 
-0.012981 -0.256018 
-0.020239 -0.248348 
-0.006900 -0.261458 
-0.005250 -0.258301 
-0.030402 -0.190946 
-0.027763 -0.206937 
-0.035376 -0.192512 
-0.014243 -0.230134 
-0.020624 -0.219487 
-0.016863 -0.217641 
-0.028708 -0.223315 
-0.024570 -0.221419 
-0.020960 -0.234402 
-0.008361 -0.250428 
-0.014112 -0.243435 
-0.011383 -0.241054 
-0.068187 -0.195116 
-0.056912 -0.196637 
-0.062545 -0.196356 
-0.057665 -0.212037 
-0.047111 -0.227440 
-0.040535 -0.193991 
-0.033040 -0.225036 
-0.037109 -0.210229 
-0.045865 -0.195269 
-0.051336 -0.196206 
-0.018642 -0.261380 
-0.036892 -0.240959 
-0.027318 -0.252329 
-0.023657 -0.250549 
-0.028504 -0.238457 
-0.047136 -0.212400 
-0.037560 -0.226422 
-0.042255 -0.227292 
0.000000 0.000000 
-0.031408 -0.024409 
-0.022040 -0.022263 
-0.025978 -0.022852 
0.000000 0.000000 
-0.045200 -0.048208 
-0.050972 -0.071528 
-0.011881 -0.021963 
-0.013941 -0.021954 
0.000000 0.000000 
-0.033749 -0.068644 
-0.025217 -0.045058 
-0.028995 -0.068154 
0.000000 0.000000 
-0.016252 -0.021967 
-0.018899 -0.022040 
-0.044754 -0.136649 
-0.038877 -0.155846 
-0.051778 -0.094240 
-0.049329 -0.116039 
-0.037442 -0.113844 
-0.043217 -0.114877 
-0.039660 -0.092087 
-0.033797 -0.045798 
-0.038937 -0.069281 
-0.044643 -0.070175 
-0.000000 -0.021926 
-0.001256 -0.021962 
0.000000 0.000000 
-0.003168 -0.066387 
-0.002322 -0.044180 
-0.000000 -0.066307 
0.000000 0.000000 
-0.002540 -0.021976 
-0.003869 -0.021984 
-0.004436 -0.149461 
-0.004406 -0.130078 
-0.000000 -0.149311 
-0.011560 -0.088741 
-0.008442 -0.109860 
-0.012783 -0.110239 
-0.000000 -0.109495 
-0.004198 -0.109611 
-0.003790 -0.088293 
0.000000 0.000000 
-0.008310 -0.021985 
-0.010016 -0.021975 
-0.005259 -0.021989 
-0.006732 -0.021989 
0.000000 0.000000 
-0.016711 -0.067117 
-0.012327 -0.044483 
-0.013109 -0.066868 
-0.006380 -0.066504 
-0.009680 -0.066663 
-0.007114 -0.044307 
-0.001480 -0.243437 
-0.000000 -0.249915 
-0.008232 -0.226687 
-0.004252 -0.235780 
-0.000000 -0.234665 
-0.002105 -0.234949 
-0.002691 -0.224775 
-0.032330 -0.173464 
-0.025620 -0.189391 
-0.016594 -0.186636 
-0.021022 -0.187931 
-0.022356 -0.170781 
-0.019155 -0.203567 
-0.013269 -0.215984 
-0.000000 -0.184064 
-0.004051 -0.184250 
-0.004310 -0.167569 
-0.003222 -0.212915 
-0.003682 -0.199391 
-0.000000 -0.212686 
-0.013094 -0.168713 
-0.008142 -0.184756 
-0.012310 -0.185562 
-0.009819 -0.214602 
-0.011198 -0.200882 
-0.006482 -0.213563 
-0.018245 -0.044717 
-0.019892 -0.089523 
-0.020529 -0.067410 
-0.024607 -0.067752 
-0.029144 -0.090621 
-0.008915 -0.149840 
-0.018177 -0.151234 
-0.013482 -0.150437 
-0.013402 -0.130883 
-0.017265 -0.110742 
-0.033370 -0.154549 
-0.031987 -0.112917 
-0.033326 -0.134309 
-0.028095 -0.153322 
-0.023038 -0.152206 
-0.021934 -0.111362 
-0.022941 -0.132337 
-0.026829 -0.112089 
0.000000 0.000000 
0.001256 -0.021962 
0.003869 -0.021984 
0.002540 -0.021976 
0.000000 0.000000 
0.002322 -0.044180 
0.003168 -0.066387 
0.010016 -0.021975 
0.008310 -0.021985 
0.000000 0.000000 
0.013109 -0.066868 
0.012327 -0.044483 
0.016711 -0.067117 
0.000000 0.000000 
0.006732 -0.021989 
0.005259 -0.021989 
0.004406 -0.130078 
0.004436 -0.149461 
0.003790 -0.088293 
0.004198 -0.109611 
0.012783 -0.110239 
0.008442 -0.109860 
0.011560 -0.088741 
0.007114 -0.044307 
0.009680 -0.066663 
0.006380 -0.066504 
0.040225 -0.029172 
0.031408 -0.024409 
0.000000 0.000000 
0.050972 -0.071528 
0.045200 -0.048208 
0.058037 -0.073685 
0.000000 0.000000 
0.025978 -0.022852 
0.022040 -0.022263 
0.038877 -0.155846 
0.044754 -0.136649 
0.044615 -0.157167 
0.039660 -0.092087 
0.043217 -0.114877 
0.037442 -0.113844 
0.055775 -0.117367 
0.049329 -0.116039 
0.051778 -0.094240 
0.000000 0.000000 
0.013941 -0.021954 
0.011881 -0.021963 
0.018899 -0.022040 
0.016252 -0.021967 
0.000000 0.000000 
0.028995 -0.068154 
0.025217 -0.045058 
0.033749 -0.068644 
0.044643 -0.070175 
0.038937 -0.069281 
0.033797 -0.045798 
0.001480 -0.243437 
0.000828 -0.250247 
0.002691 -0.224775 
0.002105 -0.234949 
0.006486 -0.237122 
0.004252 -0.235780 
0.008232 -0.226687 
0.004310 -0.167569 
0.004051 -0.184250 
0.012310 -0.185562 
0.008142 -0.184756 
0.013094 -0.168713 
0.003682 -0.199391 
0.003222 -0.212915 
0.030402 -0.190946 
0.025620 -0.189391 
0.032330 -0.173464 
0.013269 -0.215984 
0.019155 -0.203567 
0.016863 -0.217641 
0.022356 -0.170781 
0.021022 -0.187931 
0.016594 -0.186636 
0.006482 -0.213563 
0.011198 -0.200882 
0.009819 -0.214602 
0.018245 -0.044717 
0.029144 -0.090621 
0.024607 -0.067752 
0.020529 -0.067410 
0.019892 -0.089523 
0.033370 -0.154549 
0.023038 -0.152206 
0.028095 -0.153322 
0.033326 -0.134309 
0.031987 -0.112917 
0.008915 -0.149840 
0.017265 -0.110742 
0.013402 -0.130883 
0.013482 -0.150437 
0.018177 -0.151234 
0.026829 -0.112089 
0.022941 -0.132337 
0.021934 -0.111362 
0.054828 -0.043567 
0.062167 -0.057705 
0.080631 -0.104465 
0.074237 -0.082406 
0.082337 -0.089333 
0.065875 -0.077152 
0.065690 -0.097985 
0.078251 -0.177163 
0.081574 -0.160765 
0.087355 -0.158792 
0.069270 -0.161340 
0.075510 -0.161476 
0.066512 -0.179493 
0.089678 -0.126044 
0.083421 -0.143309 
0.083332 -0.124626 
0.050570 -0.158460 
0.043116 -0.176301 
0.062521 -0.118908 
0.057238 -0.139221 
0.054621 -0.178644 
0.056706 -0.159657 
0.062967 -0.160663 
0.076501 -0.122673 
0.070433 -0.141780 
0.069483 -0.120692 
0.028846 -0.281661 
0.035508 -0.270480 
0.040356 -0.264725 
0.026874 -0.275946 
0.031016 -0.274115 
0.020638 -0.286392 
0.054362 -0.241016 
0.042361 -0.258906 
0.049248 -0.246865 
0.013592 -0.271024 
0.016436 -0.273561 
0.008641 -0.279560 
0.035366 -0.253767 
0.025404 -0.264931 
0.031221 -0.253478 
0.013939 -0.284944 
0.019593 -0.275394 
0.023070 -0.276278 
0.079315 -0.188537 
0.068455 -0.207243 
0.073790 -0.192623 
0.056004 -0.234288 
0.062464 -0.221105 
0.067794 -0.215787 
0.052108 -0.226636 
0.057231 -0.224619 
0.046078 -0.240243 
0.033297 -0.264820 
0.039752 -0.252944 
0.044378 -0.250740 
0.001695 -0.251321 
0.000128 -0.255385 
0.008850 -0.238911 
0.004625 -0.245916 
0.000705 -0.258690 
0.002686 -0.253092 
0.003857 -0.255461 
0.035376 -0.192512 
0.027763 -0.206937 
0.020960 -0.234402 
0.024570 -0.221419 
0.028708 -0.223315 
0.020624 -0.219487 
0.014243 -0.230134 
0.004713 -0.272220 
0.008832 -0.264761 
0.011059 -0.268018 
0.005250 -0.258301 
0.006900 -0.261458 
0.002119 -0.264729 