# vtk DataFile Version 2.0
Unstructured Grid Example
ASCII
DATASET UNSTRUCTURED_GRID

POINTS 256 float
0.000000 0.000000 0.000000 
0.007812 0.000000 0.000000 
0.007812 0.000000 0.000000 
0.015625 0.000000 0.000000 
0.015625 0.000000 0.000000 
0.023438 0.000000 0.000000 
0.023438 0.000000 0.000000 
0.031250 0.000000 0.000000 
0.046875 0.000000 0.000000 
0.054688 0.000000 0.000000 
0.054688 0.000000 0.000000 
0.062500 0.000000 0.000000 
0.031250 0.000000 0.000000 
0.039062 0.000000 0.000000 
0.039062 0.000000 0.000000 
0.046875 0.000000 0.000000 
0.109375 0.000000 0.000000 
0.117188 0.000000 0.000000 
0.117188 0.000000 0.000000 
0.125000 0.000000 0.000000 
0.093750 0.000000 0.000000 
0.101562 0.000000 0.000000 
0.101562 0.000000 0.000000 
0.109375 0.000000 0.000000 
0.062500 0.000000 0.000000 
0.070312 0.000000 0.000000 
0.070312 0.000000 0.000000 
0.078125 0.000000 0.000000 
0.078125 0.000000 0.000000 
0.085938 0.000000 0.000000 
0.085938 0.000000 0.000000 
0.093750 0.000000 0.000000 
0.234375 -2.000086 0.000000 
0.242188 -3.299390 0.000000 
0.242188 -2.477587 0.000000 
0.250000 -3.643692 0.000000 
0.218750 0.151859 0.000000 
0.226562 -2.950393 0.000000 
0.226562 -1.399430 0.000000 
0.234375 -2.950066 0.000000 
0.187500 0.000000 0.000000 
0.195312 0.000000 0.000000 
0.195312 0.000000 0.000000 
0.203125 0.000000 0.000000 
0.203125 0.000000 0.000000 
0.210938 0.000000 0.000000 
0.210938 0.882225 0.000000 
0.218750 -1.764450 0.000000 
0.125000 0.000000 0.000000 
0.132812 0.000000 0.000000 
0.132812 0.000000 0.000000 
0.140625 0.000000 0.000000 
0.140625 0.000000 0.000000 
0.148438 0.000000 0.000000 
0.148438 0.000000 0.000000 
0.156250 0.000000 0.000000 
0.171875 0.000000 0.000000 
0.179688 0.000000 0.000000 
0.179688 0.000000 0.000000 
0.187500 0.000000 0.000000 
0.156250 0.000000 0.000000 
0.164062 0.000000 0.000000 
0.164062 0.000000 0.000000 
0.171875 0.000000 0.000000 
0.484375 -8.877664 0.000000 
0.492188 -8.934436 0.000000 
0.492188 -8.926120 0.000000 
0.500000 -8.894296 0.000000 
0.468750 -8.775368 0.000000 
0.476562 -8.909428 0.000000 
0.476562 -8.832895 0.000000 
0.484375 -8.928434 0.000000 
0.437500 -8.422971 0.000000 
0.445312 -8.704819 0.000000 
0.445312 -8.528850 0.000000 
0.453125 -8.774908 0.000000 
0.453125 -8.623078 0.000000 
0.460938 -8.832511 0.000000 
0.460938 -8.705344 0.000000 
0.468750 -8.877410 0.000000 
0.375000 -7.197692 0.000000 
0.382812 -7.730131 0.000000 
0.382812 -7.384445 0.000000 
0.390625 -7.889065 0.000000 
0.390625 -7.562236 0.000000 
0.398438 -8.038104 0.000000 
0.398438 -7.730774 0.000000 
0.406250 -8.176895 0.000000 
0.421875 -8.177594 0.000000 
0.429688 -8.528220 0.000000 
0.429688 -8.305770 0.000000 
0.437500 -8.622495 0.000000 
0.406250 -7.889742 0.000000 
0.414062 -8.305081 0.000000 
0.414062 -8.038799 0.000000 
0.421875 -8.422305 0.000000 
0.250000 -2.897058 0.000000 
0.257812 -3.970855 0.000000 
0.257812 -3.278447 0.000000 
0.265625 -4.281873 0.000000 
0.265625 -3.631696 0.000000 
0.273438 -4.578802 0.000000 
0.273438 -3.962959 0.000000 
0.281250 -4.863382 0.000000 
0.296875 -4.860584 0.000000 
0.304688 -5.654663 0.000000 
0.304688 -5.134934 0.000000 
0.312500 -5.900043 0.000000 
0.281250 -4.276391 0.000000 
0.289062 -5.136941 0.000000 
0.289062 -4.574905 0.000000 
0.296875 -5.400463 0.000000 
0.359375 -6.798275 0.000000 
0.367188 -7.383916 0.000000 
0.367188 -7.002233 0.000000 
0.375000 -7.561641 0.000000 
0.343750 -6.365407 0.000000 
0.351562 -7.001892 0.000000 
0.351562 -6.585971 0.000000 
0.359375 -7.197248 0.000000 
0.312500 -5.399043 0.000000 
0.320312 -6.136933 0.000000 
0.320312 -5.653691 0.000000 
0.328125 -6.365528 0.000000 
0.328125 -5.899420 0.000000 
0.335938 -6.585908 0.000000 
0.335938 -6.136588 0.000000 
0.343750 -6.798059 0.000000 
0.500000 -8.894296 0.000000 
0.507812 -8.926120 0.000000 
0.507812 -8.934436 0.000000 
0.515625 -8.877664 0.000000 
0.515625 -8.928434 0.000000 
0.523438 -8.832895 0.000000 
0.523438 -8.909428 0.000000 
0.531250 -8.775368 0.000000 
0.546875 -8.774908 0.000000 
0.554688 -8.528850 0.000000 
0.554688 -8.704819 0.000000 
0.562500 -8.422971 0.000000 
0.531250 -8.877410 0.000000 
0.539062 -8.705344 0.000000 
0.539062 -8.832511 0.000000 
0.546875 -8.623078 0.000000 
0.609375 -7.889065 0.000000 
0.617188 -7.384445 0.000000 
0.617188 -7.730131 0.000000 
0.625000 -7.197692 0.000000 
0.593750 -8.176895 0.000000 
0.601562 -7.730774 0.000000 
0.601562 -8.038104 0.000000 
0.609375 -7.562236 0.000000 
0.562500 -8.622495 0.000000 
0.570312 -8.305770 0.000000 
0.570312 -8.528220 0.000000 
0.578125 -8.177594 0.000000 
0.578125 -8.422305 0.000000 
0.585938 -8.038799 0.000000 
0.585938 -8.305081 0.000000 
0.593750 -7.889742 0.000000 
0.734375 -4.281873 0.000000 
0.742188 -3.278447 0.000000 
0.742188 -3.970855 0.000000 
0.750000 -2.897058 0.000000 
0.718750 -4.863382 0.000000 
0.726562 -3.962959 0.000000 
0.726562 -4.578802 0.000000 
0.734375 -3.631696 0.000000 
0.687500 -5.900043 0.000000 
0.695312 -5.134934 0.000000 
0.695312 -5.654663 0.000000 
0.703125 -4.860584 0.000000 
0.703125 -5.400463 0.000000 
0.710938 -4.574905 0.000000 
0.710938 -5.136941 0.000000 
0.718750 -4.276391 0.000000 
0.625000 -7.561641 0.000000 
0.632812 -7.002233 0.000000 
0.632812 -7.383916 0.000000 
0.640625 -6.798275 0.000000 
0.640625 -7.197248 0.000000 
0.648438 -6.585971 0.000000 
0.648438 -7.001892 0.000000 
0.656250 -6.365407 0.000000 
0.671875 -6.365528 0.000000 
0.679688 -5.653691 0.000000 
0.679688 -6.136933 0.000000 
0.687500 -5.399043 0.000000 
0.656250 -6.798059 0.000000 
0.664062 -6.136588 0.000000 
0.664062 -6.585908 0.000000 
0.671875 -5.899420 0.000000 
0.984375 0.000000 0.000000 
0.992188 0.000000 0.000000 
0.992188 0.000000 0.000000 
1.000000 0.000000 0.000000 
0.968750 0.000000 0.000000 
0.976562 0.000000 0.000000 
0.976562 0.000000 0.000000 
0.984375 0.000000 0.000000 
0.937500 0.000000 0.000000 
0.945312 0.000000 0.000000 
0.945312 0.000000 0.000000 
0.953125 0.000000 0.000000 
0.953125 0.000000 0.000000 
0.960938 0.000000 0.000000 
0.960938 0.000000 0.000000 
0.968750 0.000000 0.000000 
0.875000 0.000000 0.000000 
0.882812 0.000000 0.000000 
0.882812 0.000000 0.000000 
0.890625 0.000000 0.000000 
0.890625 0.000000 0.000000 
0.898438 0.000000 0.000000 
0.898438 0.000000 0.000000 
0.906250 0.000000 0.000000 
0.921875 0.000000 0.000000 
0.929688 0.000000 0.000000 
0.929688 0.000000 0.000000 
0.937500 0.000000 0.000000 
0.906250 0.000000 0.000000 
0.914062 0.000000 0.000000 
0.914062 0.000000 0.000000 
0.921875 0.000000 0.000000 
0.750000 -3.643692 0.000000 
0.757812 -2.477587 0.000000 
0.757812 -3.299390 0.000000 
0.765625 -2.000086 0.000000 
0.765625 -2.950066 0.000000 
0.773438 -1.399430 0.000000 
0.773438 -2.950393 0.000000 
0.781250 0.151859 0.000000 
0.796875 0.000000 0.000000 
0.804688 0.000000 0.000000 
0.804688 0.000000 0.000000 
0.812500 0.000000 0.000000 
0.781250 -1.764450 0.000000 
0.789062 0.882225 0.000000 
0.789062 0.000000 0.000000 
0.796875 0.000000 0.000000 
0.859375 0.000000 0.000000 
0.867188 0.000000 0.000000 
0.867188 0.000000 0.000000 
0.875000 0.000000 0.000000 
0.843750 0.000000 0.000000 
0.851562 0.000000 0.000000 
0.851562 0.000000 0.000000 
0.859375 0.000000 0.000000 
0.812500 0.000000 0.000000 
0.820312 0.000000 0.000000 
0.820312 0.000000 0.000000 
0.828125 0.000000 0.000000 
0.828125 0.000000 0.000000 
0.835938 0.000000 0.000000 
0.835938 0.000000 0.000000 
0.843750 0.000000 0.000000 

CELLS 128 384
2  0 1 
2  2 3 
2  4 5 
2  6 7 
2  8 9 
2  10 11 
2  12 13 
2  14 15 
2  16 17 
2  18 19 
2  20 21 
2  22 23 
2  24 25 
2  26 27 
2  28 29 
2  30 31 
2  32 33 
2  34 35 
2  36 37 
2  38 39 
2  40 41 
2  42 43 
2  44 45 
2  46 47 
2  48 49 
2  50 51 
2  52 53 
2  54 55 
2  56 57 
2  58 59 
2  60 61 
2  62 63 
2  64 65 
2  66 67 
2  68 69 
2  70 71 
2  72 73 
2  74 75 
2  76 77 
2  78 79 
2  80 81 
2  82 83 
2  84 85 
2  86 87 
2  88 89 
2  90 91 
2  92 93 
2  94 95 
2  96 97 
2  98 99 
2  100 101 
2  102 103 
2  104 105 
2  106 107 
2  108 109 
2  110 111 
2  112 113 
2  114 115 
2  116 117 
2  118 119 
2  120 121 
2  122 123 
2  124 125 
2  126 127 
2  128 129 
2  130 131 
2  132 133 
2  134 135 
2  136 137 
2  138 139 
2  140 141 
2  142 143 
2  144 145 
2  146 147 
2  148 149 
2  150 151 
2  152 153 
2  154 155 
2  156 157 
2  158 159 
2  160 161 
2  162 163 
2  164 165 
2  166 167 
2  168 169 
2  170 171 
2  172 173 
2  174 175 
2  176 177 
2  178 179 
2  180 181 
2  182 183 
2  184 185 
2  186 187 
2  188 189 
2  190 191 
2  192 193 
2  194 195 
2  196 197 
2  198 199 
2  200 201 
2  202 203 
2  204 205 
2  206 207 
2  208 209 
2  210 211 
2  212 213 
2  214 215 
2  216 217 
2  218 219 
2  220 221 
2  222 223 
2  224 225 
2  226 227 
2  228 229 
2  230 231 
2  232 233 
2  234 235 
2  236 237 
2  238 239 
2  240 241 
2  242 243 
2  244 245 
2  246 247 
2  248 249 
2  250 251 
2  252 253 
2  254 255 

CELL_TYPES 128
3
3
3
3
3
3
3
3
3
3
3
3
3
3
3
3
3
3
3
3
3
3
3
3
3
3
3
3
3
3
3
3
3
3
3
3
3
3
3
3
3
3
3
3
3
3
3
3
3
3
3
3
3
3
3
3
3
3
3
3
3
3
3
3
3
3
3
3
3
3
3
3
3
3
3
3
3
3
3
3
3
3
3
3
3
3
3
3
3
3
3
3
3
3
3
3
3
3
3
3
3
3
3
3
3
3
3
3
3
3
3
3
3
3
3
3
3
3
3
3
3
3
3
3
3
3
3
3

POINT_DATA 256

SCALARS lambda_h float 1
LOOKUP_TABLE default
0.000000 
0.000000 
0.000000 
0.000000 
0.000000 
0.000000 
0.000000 
0.000000 
0.000000 
0.000000 
0.000000 
0.000000 
0.000000 
0.000000 
0.000000 
0.000000 
0.000000 
0.000000 
0.000000 
0.000000 
0.000000 
0.000000 
0.000000 
0.000000 
0.000000 
0.000000 
0.000000 
0.000000 
0.000000 
0.000000 
0.000000 
0.000000 
-2.000086 
-3.299390 
-2.477587 
-3.643692 
0.151859 
-2.950393 
-1.399430 
-2.950066 
0.000000 
0.000000 
0.000000 
0.000000 
0.000000 
0.000000 
0.882225 
-1.764450 
0.000000 
0.000000 
0.000000 
0.000000 
0.000000 
0.000000 
0.000000 
0.000000 
0.000000 
0.000000 
0.000000 
0.000000 
0.000000 
0.000000 
0.000000 
0.000000 
-8.877664 
-8.934436 
-8.926120 
-8.894296 
-8.775368 
-8.909428 
-8.832895 
-8.928434 
-8.422971 
-8.704819 
-8.528850 
-8.774908 
-8.623078 
-8.832511 
-8.705344 
-8.877410 
-7.197692 
-7.730131 
-7.384445 
-7.889065 
-7.562236 
-8.038104 
-7.730774 
-8.176895 
-8.177594 
-8.528220 
-8.305770 
-8.622495 
-7.889742 
-8.305081 
-8.038799 
-8.422305 
-2.897058 
-3.970855 
-3.278447 
-4.281873 
-3.631696 
-4.578802 
-3.962959 
-4.863382 
-4.860584 
-5.654663 
-5.134934 
-5.900043 
-4.276391 
-5.136941 
-4.574905 
-5.400463 
-6.798275 
-7.383916 
-7.002233 
-7.561641 
-6.365407 
-7.001892 
-6.585971 
-7.197248 
-5.399043 
-6.136933 
-5.653691 
-6.365528 
-5.899420 
-6.585908 
-6.136588 
-6.798059 
-8.894296 
-8.926120 
-8.934436 
-8.877664 
-8.928434 
-8.832895 
-8.909428 
-8.775368 
-8.774908 
-8.528850 
-8.704819 
-8.422971 
-8.877410 
-8.705344 
-8.832511 
-8.623078 
-7.889065 
-7.384445 
-7.730131 
-7.197692 
-8.176895 
-7.730774 
-8.038104 
-7.562236 
-8.622495 
-8.305770 
-8.528220 
-8.177594 
-8.422305 
-8.038799 
-8.305081 
-7.889742 
-4.281873 
-3.278447 
-3.970855 
-2.897058 
-4.863382 
-3.962959 
-4.578802 
-3.631696 
-5.900043 
-5.134934 
-5.654663 
-4.860584 
-5.400463 
-4.574905 
-5.136941 
-4.276391 
-7.561641 
-7.002233 
-7.383916 
-6.798275 
-7.197248 
-6.585971 
-7.001892 
-6.365407 
-6.365528 
-5.653691 
-6.136933 
-5.399043 
-6.798059 
-6.136588 
-6.585908 
-5.899420 
0.000000 
0.000000 
0.000000 
0.000000 
0.000000 
0.000000 
0.000000 
0.000000 
0.000000 
0.000000 
0.000000 
0.000000 
0.000000 
0.000000 
0.000000 
0.000000 
0.000000 
0.000000 
0.000000 
0.000000 
0.000000 
0.000000 
0.000000 
0.000000 
0.000000 
0.000000 
0.000000 
0.000000 
0.000000 
0.000000 
0.000000 
0.000000 
-3.643692 
-2.477587 
-3.299390 
-2.000086 
-2.950066 
-1.399430 
-2.950393 
0.151859 
0.000000 
0.000000 
0.000000 
0.000000 
-1.764450 
0.882225 
0.000000 
0.000000 
0.000000 
0.000000 
0.000000 
0.000000 
0.000000 
0.000000 
0.000000 
0.000000 
0.000000 
0.000000 
0.000000 
0.000000 
0.000000 
0.000000 
0.000000 
0.000000 

