# vtk DataFile Version 2.0
Unstructured Grid Example
ASCII
DATASET UNSTRUCTURED_GRID

POINTS 64 float
0.000000 0.000000 0.000000 
0.031250 0.000000 0.000000 
0.031250 0.000000 0.000000 
0.062500 0.000000 0.000000 
0.062500 0.000000 0.000000 
0.093750 0.000000 0.000000 
0.093750 0.000000 0.000000 
0.125000 0.000000 0.000000 
0.187500 0.499061 0.000000 
0.218750 -0.998122 0.000000 
0.218750 2.469311 0.000000 
0.250000 -6.435805 0.000000 
0.125000 0.000000 0.000000 
0.156250 0.000000 0.000000 
0.156250 0.000000 0.000000 
0.187500 0.000000 0.000000 
0.437500 -8.229869 0.000000 
0.468750 -9.042536 0.000000 
0.468750 -8.718695 0.000000 
0.500000 -8.877551 0.000000 
0.375000 -6.784219 0.000000 
0.406250 -8.667750 0.000000 
0.406250 -7.579054 0.000000 
0.437500 -8.961610 0.000000 
0.250000 -2.224879 0.000000 
0.281250 -5.952540 0.000000 
0.281250 -3.679619 0.000000 
0.312500 -6.770721 0.000000 
0.312500 -4.840594 0.000000 
0.343750 -7.539874 0.000000 
0.343750 -5.868165 0.000000 
0.375000 -8.184011 0.000000 
0.500000 -8.877551 0.000000 
0.531250 -8.718695 0.000000 
0.531250 -9.042536 0.000000 
0.562500 -8.229869 0.000000 
0.562500 -8.961610 0.000000 
0.593750 -7.579054 0.000000 
0.593750 -8.667750 0.000000 
0.625000 -6.784219 0.000000 
0.687500 -6.770721 0.000000 
0.718750 -3.679619 0.000000 
0.718750 -5.952540 0.000000 
0.750000 -2.224879 0.000000 
0.625000 -8.184011 0.000000 
0.656250 -5.868165 0.000000 
0.656250 -7.539874 0.000000 
0.687500 -4.840594 0.000000 
0.937500 0.000000 0.000000 
0.968750 0.000000 0.000000 
0.968750 0.000000 0.000000 
1.000000 0.000000 0.000000 
0.875000 0.000000 0.000000 
0.906250 0.000000 0.000000 
0.906250 0.000000 0.000000 
0.937500 0.000000 0.000000 
0.750000 -6.435805 0.000000 
0.781250 2.469311 0.000000 
0.781250 -0.998122 0.000000 
0.812500 0.499061 0.000000 
0.812500 0.000000 0.000000 
0.843750 0.000000 0.000000 
0.843750 0.000000 0.000000 
0.875000 0.000000 0.000000 

CELLS 32 96
2  0 1 
2  2 3 
2  4 5 
2  6 7 
2  8 9 
2  10 11 
2  12 13 
2  14 15 
2  16 17 
2  18 19 
2  20 21 
2  22 23 
2  24 25 
2  26 27 
2  28 29 
2  30 31 
2  32 33 
2  34 35 
2  36 37 
2  38 39 
2  40 41 
2  42 43 
2  44 45 
2  46 47 
2  48 49 
2  50 51 
2  52 53 
2  54 55 
2  56 57 
2  58 59 
2  60 61 
2  62 63 

CELL_TYPES 32
3
3
3
3
3
3
3
3
3
3
3
3
3
3
3
3
3
3
3
3
3
3
3
3
3
3
3
3
3
3
3
3

POINT_DATA 64

SCALARS lambda_h float 1
LOOKUP_TABLE default
0.000000 
0.000000 
0.000000 
0.000000 
0.000000 
0.000000 
0.000000 
0.000000 
0.499061 
-0.998122 
2.469311 
-6.435805 
0.000000 
0.000000 
0.000000 
0.000000 
-8.229869 
-9.042536 
-8.718695 
-8.877551 
-6.784219 
-8.667750 
-7.579054 
-8.961610 
-2.224879 
-5.952540 
-3.679619 
-6.770721 
-4.840594 
-7.539874 
-5.868165 
-8.184011 
-8.877551 
-8.718695 
-9.042536 
-8.229869 
-8.961610 
-7.579054 
-8.667750 
-6.784219 
-6.770721 
-3.679619 
-5.952540 
-2.224879 
-8.184011 
-5.868165 
-7.539874 
-4.840594 
0.000000 
0.000000 
0.000000 
0.000000 
0.000000 
0.000000 
0.000000 
0.000000 
-6.435805 
2.469311 
-0.998122 
0.499061 
0.000000 
0.000000 
0.000000 
0.000000 

