# vtk DataFile Version 2.0
Unstructured Grid Example
ASCII
DATASET UNSTRUCTURED_GRID

POINTS 16 float
0.000000 0.000000 0.000000 
0.125000 0.000000 0.000000 
0.125000 2.643561 0.000000 
0.250000 -5.287122 0.000000 
0.250000 2.515925 0.000000 
0.375000 -12.962534 0.000000 
0.375000 -6.903475 0.000000 
0.500000 -9.602192 0.000000 
0.500000 -9.602192 0.000000 
0.625000 -6.903475 0.000000 
0.625000 -12.962534 0.000000 
0.750000 2.515925 0.000000 
0.750000 -5.287122 0.000000 
0.875000 2.643561 0.000000 
0.875000 0.000000 0.000000 
1.000000 0.000000 0.000000 

CELLS 8 24
2  0 1 
2  2 3 
2  4 5 
2  6 7 
2  8 9 
2  10 11 
2  12 13 
2  14 15 

CELL_TYPES 8
3
3
3
3
3
3
3
3

POINT_DATA 16

SCALARS lambda_h float 1
LOOKUP_TABLE default
0.000000 
0.000000 
2.643561 
-5.287122 
2.515925 
-12.962534 
-6.903475 
-9.602192 
-9.602192 
-6.903475 
-12.962534 
2.515925 
-5.287122 
2.643561 
0.000000 
0.000000 

