# vtk DataFile Version 2.0
Unstructured Grid Example
ASCII
DATASET UNSTRUCTURED_GRID

POINTS 8 float
0.000000 3.020234 0.000000 
0.250000 -6.040469 0.000000 
0.250000 3.168977 0.000000 
0.500000 -15.398657 0.000000 
0.500000 -15.398657 0.000000 
0.750000 3.168977 0.000000 
0.750000 -6.040469 0.000000 
1.000000 3.020234 0.000000 

CELLS 4 12
2  0 1 
2  2 3 
2  4 5 
2  6 7 

CELL_TYPES 4
3
3
3
3

POINT_DATA 8

SCALARS lambda_h float 1
LOOKUP_TABLE default
3.020234 
-6.040469 
3.168977 
-15.398657 
-15.398657 
3.168977 
-6.040469 
3.020234 

