# vtk DataFile Version 2.0
Unstructured Grid Example
ASCII
DATASET UNSTRUCTURED_GRID

POINTS 128 float
0.000000 0.000000 0.000000 
0.015625 0.000000 0.000000 
0.015625 0.000000 0.000000 
0.031250 0.000000 0.000000 
0.031250 0.000000 0.000000 
0.046875 0.000000 0.000000 
0.046875 0.000000 0.000000 
0.062500 0.000000 0.000000 
0.093750 0.000000 0.000000 
0.109375 0.000000 0.000000 
0.109375 0.000000 0.000000 
0.125000 0.000000 0.000000 
0.062500 0.000000 0.000000 
0.078125 0.000000 0.000000 
0.078125 0.000000 0.000000 
0.093750 0.000000 0.000000 
0.218750 1.255322 0.000000 
0.234375 -4.390654 0.000000 
0.234375 -1.700280 0.000000 
0.250000 -4.125426 0.000000 
0.187500 0.000000 0.000000 
0.203125 0.000000 0.000000 
0.203125 0.626670 0.000000 
0.218750 -1.253340 0.000000 
0.125000 0.000000 0.000000 
0.140625 0.000000 0.000000 
0.140625 0.000000 0.000000 
0.156250 0.000000 0.000000 
0.156250 0.000000 0.000000 
0.171875 0.000000 0.000000 
0.171875 0.000000 0.000000 
0.187500 0.000000 0.000000 
0.468750 -8.737308 0.000000 
0.484375 -8.955859 0.000000 
0.484375 -8.886226 0.000000 
0.500000 -8.876573 0.000000 
0.437500 -8.340468 0.000000 
0.453125 -8.859309 0.000000 
0.453125 -8.562565 0.000000 
0.468750 -8.933955 0.000000 
0.375000 -7.037839 0.000000 
0.390625 -8.068439 0.000000 
0.390625 -7.419882 0.000000 
0.406250 -8.334953 0.000000 
0.406250 -7.766154 0.000000 
0.421875 -8.557481 0.000000 
0.421875 -8.073996 0.000000 
0.437500 -8.733124 0.000000 
0.250000 -2.646037 0.000000 
0.265625 -4.659057 0.000000 
0.265625 -3.385173 0.000000 
0.281250 -5.193807 0.000000 
0.281250 -4.036262 0.000000 
0.296875 -5.700263 0.000000 
0.296875 -4.630341 0.000000 
0.312500 -6.176105 0.000000 
0.343750 -6.174169 0.000000 
0.359375 -7.415561 0.000000 
0.359375 -6.622155 0.000000 
0.375000 -7.760981 0.000000 
0.312500 -5.180663 0.000000 
0.328125 -6.621224 0.000000 
0.328125 -5.694108 0.000000 
0.343750 -7.034896 0.000000 
0.500000 -8.876573 0.000000 
0.515625 -8.886226 0.000000 
0.515625 -8.955859 0.000000 
0.531250 -8.737308 0.000000 
0.531250 -8.933955 0.000000 
0.546875 -8.562565 0.000000 
0.546875 -8.859309 0.000000 
0.562500 -8.340468 0.000000 
0.593750 -8.334953 0.000000 
0.609375 -7.419882 0.000000 
0.609375 -8.068439 0.000000 
0.625000 -7.037839 0.000000 
0.562500 -8.733124 0.000000 
0.578125 -8.073996 0.000000 
0.578125 -8.557481 0.000000 
0.593750 -7.766154 0.000000 
0.718750 -5.193807 0.000000 
0.734375 -3.385173 0.000000 
0.734375 -4.659057 0.000000 
0.750000 -2.646037 0.000000 
0.687500 -6.176105 0.000000 
0.703125 -4.630341 0.000000 
0.703125 -5.700263 0.000000 
0.718750 -4.036262 0.000000 
0.625000 -7.760981 0.000000 
0.640625 -6.622155 0.000000 
0.640625 -7.415561 0.000000 
0.656250 -6.174169 0.000000 
0.656250 -7.034896 0.000000 
0.671875 -5.694108 0.000000 
0.671875 -6.621224 0.000000 
0.687500 -5.180663 0.000000 
0.968750 0.000000 0.000000 
0.984375 0.000000 0.000000 
0.984375 0.000000 0.000000 
1.000000 0.000000 0.000000 
0.937500 0.000000 0.000000 
0.953125 0.000000 0.000000 
0.953125 0.000000 0.000000 
0.968750 0.000000 0.000000 
0.875000 0.000000 0.000000 
0.890625 0.000000 0.000000 
0.890625 0.000000 0.000000 
0.906250 0.000000 0.000000 
0.906250 0.000000 0.000000 
0.921875 0.000000 0.000000 
0.921875 0.000000 0.000000 
0.937500 0.000000 0.000000 
0.750000 -4.125426 0.000000 
0.765625 -1.700280 0.000000 
0.765625 -4.390654 0.000000 
0.781250 1.255322 0.000000 
0.781250 -1.253340 0.000000 
0.796875 0.626670 0.000000 
0.796875 0.000000 0.000000 
0.812500 0.000000 0.000000 
0.843750 0.000000 0.000000 
0.859375 0.000000 0.000000 
0.859375 0.000000 0.000000 
0.875000 0.000000 0.000000 
0.812500 0.000000 0.000000 
0.828125 0.000000 0.000000 
0.828125 0.000000 0.000000 
0.843750 0.000000 0.000000 

CELLS 64 192
2  0 1 
2  2 3 
2  4 5 
2  6 7 
2  8 9 
2  10 11 
2  12 13 
2  14 15 
2  16 17 
2  18 19 
2  20 21 
2  22 23 
2  24 25 
2  26 27 
2  28 29 
2  30 31 
2  32 33 
2  34 35 
2  36 37 
2  38 39 
2  40 41 
2  42 43 
2  44 45 
2  46 47 
2  48 49 
2  50 51 
2  52 53 
2  54 55 
2  56 57 
2  58 59 
2  60 61 
2  62 63 
2  64 65 
2  66 67 
2  68 69 
2  70 71 
2  72 73 
2  74 75 
2  76 77 
2  78 79 
2  80 81 
2  82 83 
2  84 85 
2  86 87 
2  88 89 
2  90 91 
2  92 93 
2  94 95 
2  96 97 
2  98 99 
2  100 101 
2  102 103 
2  104 105 
2  106 107 
2  108 109 
2  110 111 
2  112 113 
2  114 115 
2  116 117 
2  118 119 
2  120 121 
2  122 123 
2  124 125 
2  126 127 

CELL_TYPES 64
3
3
3
3
3
3
3
3
3
3
3
3
3
3
3
3
3
3
3
3
3
3
3
3
3
3
3
3
3
3
3
3
3
3
3
3
3
3
3
3
3
3
3
3
3
3
3
3
3
3
3
3
3
3
3
3
3
3
3
3
3
3
3
3

POINT_DATA 128

SCALARS lambda_h float 1
LOOKUP_TABLE default
0.000000 
0.000000 
0.000000 
0.000000 
0.000000 
0.000000 
0.000000 
0.000000 
0.000000 
0.000000 
0.000000 
0.000000 
0.000000 
0.000000 
0.000000 
0.000000 
1.255322 
-4.390654 
-1.700280 
-4.125426 
0.000000 
0.000000 
0.626670 
-1.253340 
0.000000 
0.000000 
0.000000 
0.000000 
0.000000 
0.000000 
0.000000 
0.000000 
-8.737308 
-8.955859 
-8.886226 
-8.876573 
-8.340468 
-8.859309 
-8.562565 
-8.933955 
-7.037839 
-8.068439 
-7.419882 
-8.334953 
-7.766154 
-8.557481 
-8.073996 
-8.733124 
-2.646037 
-4.659057 
-3.385173 
-5.193807 
-4.036262 
-5.700263 
-4.630341 
-6.176105 
-6.174169 
-7.415561 
-6.622155 
-7.760981 
-5.180663 
-6.621224 
-5.694108 
-7.034896 
-8.876573 
-8.886226 
-8.955859 
-8.737308 
-8.933955 
-8.562565 
-8.859309 
-8.340468 
-8.334953 
-7.419882 
-8.068439 
-7.037839 
-8.733124 
-8.073996 
-8.557481 
-7.766154 
-5.193807 
-3.385173 
-4.659057 
-2.646037 
-6.176105 
-4.630341 
-5.700263 
-4.036262 
-7.760981 
-6.622155 
-7.415561 
-6.174169 
-7.034896 
-5.694108 
-6.621224 
-5.180663 
0.000000 
0.000000 
0.000000 
0.000000 
0.000000 
0.000000 
0.000000 
0.000000 
0.000000 
0.000000 
0.000000 
0.000000 
0.000000 
0.000000 
0.000000 
0.000000 
-4.125426 
-1.700280 
-4.390654 
1.255322 
-1.253340 
0.626670 
0.000000 
0.000000 
0.000000 
0.000000 
0.000000 
0.000000 
0.000000 
0.000000 
0.000000 
0.000000 

