# vtk DataFile Version 2.0
Unstructured Grid Example
ASCII
DATASET UNSTRUCTURED_GRID

POINTS 1089 float
0.000462 -0.215662 0.000000 
0.999538 -0.215662 0.000000 
1.000000 1.000000 0.000000 
0.000000 1.000000 0.000000 
0.500000 -0.099813 0.000000 
0.976428 0.345801 0.000000 
0.500000 1.000000 0.000000 
0.023572 0.345801 0.000000 
0.500000 0.346987 0.000000 
0.248349 -0.163190 0.000000 
0.500000 0.092417 0.000000 
0.239363 0.070803 0.000000 
0.751651 -0.163190 0.000000 
0.760637 0.070803 0.000000 
1.003670 0.056447 0.000000 
0.742183 0.340820 0.000000 
0.955389 0.651147 0.000000 
0.732099 0.653878 0.000000 
0.750000 1.000000 0.000000 
0.500000 0.656074 0.000000 
0.250000 1.000000 0.000000 
0.267901 0.653878 0.000000 
0.044611 0.651147 0.000000 
0.257817 0.340820 0.000000 
-0.003670 0.056447 0.000000 
0.126495 -0.203202 0.000000 
0.235875 -0.049510 0.000000 
0.113736 -0.074898 0.000000 
0.500000 -0.011666 0.000000 
0.365371 -0.022239 0.000000 
0.368353 -0.117163 0.000000 
0.372744 0.208751 0.000000 
0.367787 0.086078 0.000000 
0.500000 0.212302 0.000000 
0.631647 -0.117163 0.000000 
0.634629 -0.022239 0.000000 
0.886264 -0.074898 0.000000 
0.764125 -0.049510 0.000000 
0.873505 -0.203202 0.000000 
0.632213 0.086078 0.000000 
0.627256 0.208751 0.000000 
1.007197 -0.083635 0.000000 
0.883792 0.057153 0.000000 
0.859968 0.338484 0.000000 
0.873061 0.194358 0.000000 
0.991505 0.199613 0.000000 
0.751931 0.200474 0.000000 
0.622005 0.345319 0.000000 
0.962942 0.495692 0.000000 
0.849005 0.490609 0.000000 
0.851733 0.822983 0.000000 
0.844317 0.651823 0.000000 
0.960357 0.814121 0.000000 
0.734576 0.492097 0.000000 
0.618068 0.494762 0.000000 
0.875000 1.000000 0.000000 
0.737393 0.824417 0.000000 
0.500000 0.824956 0.000000 
0.619451 0.824787 0.000000 
0.625000 1.000000 0.000000 
0.616949 0.655427 0.000000 
0.500000 0.495934 0.000000 
0.375000 1.000000 0.000000 
0.380549 0.824787 0.000000 
0.148267 0.822983 0.000000 
0.262607 0.824417 0.000000 
0.125000 1.000000 0.000000 
0.383051 0.655427 0.000000 
0.381932 0.494762 0.000000 
0.039643 0.814121 0.000000 
0.155683 0.651823 0.000000 
0.140032 0.338484 0.000000 
0.150995 0.490609 0.000000 
0.037058 0.495692 0.000000 
0.265424 0.492097 0.000000 
0.377995 0.345319 0.000000 
0.008495 0.199613 0.000000 
0.126939 0.194358 0.000000 
0.116208 0.057153 0.000000 
-0.007197 -0.083635 0.000000 
0.248069 0.200474 0.000000 
0.063054 -0.210619 0.000000 
0.117902 -0.139695 0.000000 
0.056915 -0.146874 0.000000 
0.238569 -0.106942 0.000000 
0.178134 -0.126835 0.000000 
0.189383 -0.189586 0.000000 
0.174442 -0.001198 0.000000 
0.174256 -0.064209 0.000000 
0.236606 0.009613 0.000000 
0.500000 -0.057765 0.000000 
0.432575 -0.061215 0.000000 
0.433270 -0.104271 0.000000 
0.432743 0.036232 0.000000 
0.432346 -0.014400 0.000000 
0.500000 0.038384 0.000000 
0.306688 -0.137220 0.000000 
0.366145 -0.071165 0.000000 
0.301365 -0.086834 0.000000 
0.437545 0.277290 0.000000 
0.436181 0.211384 0.000000 
0.500000 0.277912 0.000000 
0.302914 0.079040 0.000000 
0.370116 0.145637 0.000000 
0.306209 0.140388 0.000000 
0.500000 0.150419 0.000000 
0.434836 0.149168 0.000000 
0.433636 0.090758 0.000000 
0.299678 -0.034463 0.000000 
0.366067 0.030120 0.000000 
0.300527 0.020777 0.000000 
0.566730 -0.104271 0.000000 
0.567425 -0.061215 0.000000 
0.698635 -0.086834 0.000000 
0.633855 -0.071165 0.000000 
0.693312 -0.137220 0.000000 
0.567654 -0.014400 0.000000 
0.567257 0.036232 0.000000 
0.943085 -0.146874 0.000000 
0.882098 -0.139695 0.000000 
0.936946 -0.210619 0.000000 
0.763394 0.009613 0.000000 
0.825744 -0.064209 0.000000 
0.825558 -0.001198 0.000000 
0.810617 -0.189586 0.000000 
0.821866 -0.126835 0.000000 
0.761431 -0.106942 0.000000 
0.563819 0.211384 0.000000 
0.562455 0.277290 0.000000 
0.566364 0.090758 0.000000 
0.565164 0.149168 0.000000 
0.693791 0.140388 0.000000 
0.629884 0.145637 0.000000 
0.697086 0.079040 0.000000 
0.700322 -0.034463 0.000000 
0.699473 0.020777 0.000000 
0.633933 0.030120 0.000000 
1.004400 -0.151159 0.000000 
0.946744 -0.081049 0.000000 
0.944046 0.054662 0.000000 
0.946917 -0.013781 0.000000 
1.006879 -0.014140 0.000000 
0.886510 -0.009362 0.000000 
0.822781 0.062951 0.000000 
0.918242 0.340352 0.000000 
0.925431 0.266960 0.000000 
0.984015 0.272239 0.000000 
0.807092 0.266620 0.000000 
0.866522 0.265481 0.000000 
0.801343 0.338976 0.000000 
0.998287 0.127720 0.000000 
0.932531 0.194956 0.000000 
0.938972 0.124224 0.000000 
0.624564 0.275347 0.000000 
0.561139 0.346759 0.000000 
0.756631 0.134356 0.000000 
0.690024 0.204860 0.000000 
0.682396 0.343165 0.000000 
0.686126 0.272463 0.000000 
0.746984 0.269277 0.000000 
0.879040 0.124976 0.000000 
0.812916 0.196594 0.000000 
0.818335 0.128771 0.000000 
0.969221 0.420105 0.000000 
0.911563 0.415251 0.000000 
0.901671 0.570340 0.000000 
0.905860 0.491848 0.000000 
0.958109 0.572654 0.000000 
0.853982 0.413481 0.000000 
0.796178 0.413730 0.000000 
0.918900 0.909730 0.000000 
0.906522 0.820219 0.000000 
0.971866 0.900906 0.000000 
0.788574 0.652879 0.000000 
0.846058 0.736176 0.000000 
0.790400 0.737452 0.000000 
0.955684 0.731441 0.000000 
0.900825 0.734098 0.000000 
0.899680 0.650973 0.000000 
0.619756 0.418514 0.000000 
0.559969 0.419609 0.000000 
0.737926 0.415101 0.000000 
0.679115 0.416879 0.000000 
0.675091 0.572868 0.000000 
0.676593 0.493500 0.000000 
0.732509 0.571738 0.000000 
0.845569 0.570007 0.000000 
0.789294 0.570668 0.000000 
0.792003 0.490948 0.000000 
0.937500 1.000000 0.000000 
0.861846 0.911459 0.000000 
0.743048 0.911830 0.000000 
0.802894 0.911788 0.000000 
0.812500 1.000000 0.000000 
0.795203 0.824003 0.000000 
0.733676 0.738248 0.000000 
0.500000 0.911835 0.000000 
0.561033 0.911815 0.000000 
0.562500 1.000000 0.000000 
0.558981 0.739470 0.000000 
0.559817 0.824890 0.000000 
0.500000 0.739597 0.000000 
0.687500 1.000000 0.000000 
0.621959 0.911812 0.000000 
0.682673 0.911820 0.000000 
0.559134 0.495616 0.000000 
0.500000 0.419956 0.000000 
0.674850 0.654744 0.000000 
0.617089 0.573830 0.000000 
0.500000 0.574739 0.000000 
0.558655 0.574480 0.000000 
0.558591 0.655880 0.000000 
0.678715 0.824639 0.000000 
0.617737 0.739205 0.000000 
0.676046 0.738803 0.000000 
0.437500 1.000000 0.000000 
0.438967 0.911815 0.000000 
0.317327 0.911820 0.000000 
0.378041 0.911812 0.000000 
0.312500 1.000000 0.000000 
0.440183 0.824890 0.000000 
0.441019 0.739470 0.000000 
0.081100 0.909730 0.000000 
0.138154 0.911459 0.000000 
0.062500 1.000000 0.000000 
0.266324 0.738248 0.000000 
0.204797 0.824003 0.000000 
0.209600 0.737452 0.000000 
0.187500 1.000000 0.000000 
0.197106 0.911788 0.000000 
0.256952 0.911830 0.000000 
0.440866 0.495616 0.000000 
0.440031 0.419609 0.000000 
0.441409 0.655880 0.000000 
0.441345 0.574480 0.000000 
0.324909 0.572868 0.000000 
0.382911 0.573830 0.000000 
0.325150 0.654744 0.000000 
0.321285 0.824639 0.000000 
0.323954 0.738803 0.000000 
0.382263 0.739205 0.000000 
0.028134 0.900906 0.000000 
0.093478 0.820219 0.000000 
0.100320 0.650973 0.000000 
0.099175 0.734098 0.000000 
0.044316 0.731441 0.000000 
0.153942 0.736176 0.000000 
0.211426 0.652879 0.000000 
0.081758 0.340352 0.000000 
0.088437 0.415251 0.000000 
0.030779 0.420105 0.000000 
0.203822 0.413730 0.000000 
0.146018 0.413481 0.000000 
0.198657 0.338976 0.000000 
0.041891 0.572654 0.000000 
0.094140 0.491848 0.000000 
0.098329 0.570340 0.000000 
0.380244 0.418514 0.000000 
0.438861 0.346759 0.000000 
0.267491 0.571738 0.000000 
0.323407 0.493500 0.000000 
0.317604 0.343165 0.000000 
0.320885 0.416879 0.000000 
0.262074 0.415101 0.000000 
0.154431 0.570007 0.000000 
0.207997 0.490948 0.000000 
0.210706 0.570668 0.000000 
0.015985 0.272239 0.000000 
0.074569 0.266960 0.000000 
0.061028 0.124224 0.000000 
0.067469 0.194956 0.000000 
0.001713 0.127720 0.000000 
0.133478 0.265481 0.000000 
0.192908 0.266620 0.000000 
0.053256 -0.081049 0.000000 
-0.004400 -0.151159 0.000000 
0.177219 0.062951 0.000000 
0.113490 -0.009362 0.000000 
-0.006879 -0.014140 0.000000 
0.053083 -0.013781 0.000000 
0.055954 0.054662 0.000000 
0.375436 0.275347 0.000000 
0.253016 0.269277 0.000000 
0.313874 0.272463 0.000000 
0.309976 0.204860 0.000000 
0.243369 0.134356 0.000000 
0.120960 0.124976 0.000000 
0.181665 0.128771 0.000000 
0.187084 0.196594 0.000000 
0.031644 -0.213171 0.000000 
0.059849 -0.179061 0.000000 
0.028847 -0.181530 0.000000 
0.121673 -0.171717 0.000000 
0.090824 -0.175937 0.000000 
0.094712 -0.207443 0.000000 
0.085027 -0.111314 0.000000 
0.087493 -0.143830 0.000000 
0.115275 -0.107389 0.000000 
0.242140 -0.135158 0.000000 
0.212296 -0.147929 0.000000 
0.219526 -0.178521 0.000000 
0.205871 -0.087450 0.000000 
0.208163 -0.117635 0.000000 
0.236656 -0.078412 0.000000 
0.158178 -0.197445 0.000000 
0.182471 -0.158228 0.000000 
0.152265 -0.165973 0.000000 
0.206497 0.035136 0.000000 
0.205324 0.004000 0.000000 
0.237788 0.039929 0.000000 
0.143947 -0.070149 0.000000 
0.173953 -0.032803 0.000000 
0.143485 -0.038017 0.000000 
0.235923 -0.020185 0.000000 
0.204720 -0.026751 0.000000 
0.204833 -0.057200 0.000000 
0.148106 -0.134131 0.000000 
0.175552 -0.095518 0.000000 
0.145419 -0.102174 0.000000 
0.500000 -0.079315 0.000000 
0.466360 -0.080308 0.000000 
0.466536 -0.100934 0.000000 
0.466138 -0.035998 0.000000 
0.466221 -0.058647 0.000000 
0.500000 -0.035210 0.000000 
0.400470 -0.109731 0.000000 
0.432893 -0.083221 0.000000 
0.399767 -0.087984 0.000000 
0.466534 0.064411 0.000000 
0.466334 0.037826 0.000000 
0.500000 0.064902 0.000000 
0.398734 -0.017713 0.000000 
0.432470 0.010432 0.000000 
0.398901 0.007495 0.000000 
0.500000 0.012863 0.000000 
0.466195 0.012234 0.000000 
0.466128 -0.012372 0.000000 
0.277182 -0.149506 0.000000 
0.303547 -0.112149 0.000000 
0.272611 -0.123042 0.000000 
0.367119 -0.094485 0.000000 
0.335037 -0.102588 0.000000 
0.337069 -0.126388 0.000000 
0.332634 -0.053482 0.000000 
0.333526 -0.078347 0.000000 
0.365554 -0.047109 0.000000 
0.432382 -0.038277 0.000000 
0.398827 -0.042006 0.000000 
0.399184 -0.065417 0.000000 
[...]
POINT_DATA 1089

SCALARS u_h float 2
LOOKUP_TABLE default
0.000462 -0.215662 
-0.000462 -0.215662 
0.000000 0.000000 
0.000000 0.000000 
0.000000 -0.099813 
-0.023572 -0.154199 
0.000000 0.000000 
0.023572 -0.154199 
0.000000 -0.153013 
-0.001651 -0.163190 
0.000000 -0.157583 
-0.010637 -0.179197 
0.001651 -0.163190 
0.010637 -0.179197 
0.003670 -0.193553 
-0.007817 -0.159180 
-0.044611 -0.098853 
-0.017901 -0.096122 
0.000000 0.000000 
0.000000 -0.093926 
0.000000 0.000000 
0.017901 -0.096122 
0.044611 -0.098853 
0.007817 -0.159180 
-0.003670 -0.193553 
0.001495 -0.203202 
-0.014125 -0.174510 
-0.011264 -0.199898 
0.000000 -0.136666 
-0.009629 -0.147239 
-0.006647 -0.117163 
-0.002256 -0.166249 
-0.007213 -0.163922 
0.000000 -0.162698 
0.006647 -0.117163 
0.009629 -0.147239 
0.011264 -0.199898 
0.014125 -0.174510 
-0.001495 -0.203202 
0.007213 -0.163922 
0.002256 -0.166249 
0.007197 -0.208635 
0.008792 -0.192847 
-0.015032 -0.161516 
-0.001939 -0.180642 
-0.008495 -0.175387 
0.001931 -0.174526 
-0.002995 -0.154681 
-0.037058 -0.129308 
-0.025995 -0.134391 
-0.023267 -0.052017 
-0.030683 -0.098177 
-0.039643 -0.060879 
-0.015424 -0.132903 
-0.006932 -0.130238 
0.000000 0.000000 
-0.012607 -0.050583 
0.000000 -0.050044 
-0.005549 -0.050213 
0.000000 0.000000 
-0.008051 -0.094573 
0.000000 -0.129066 
0.000000 0.000000 
0.005549 -0.050213 
0.023267 -0.052017 
0.012607 -0.050583 
0.000000 0.000000 
0.008051 -0.094573 
0.006932 -0.130238 
0.039643 -0.060879 
0.030683 -0.098177 
0.015032 -0.161516 
0.025995 -0.134391 
0.037058 -0.129308 
0.015424 -0.132903 
0.002995 -0.154681 
0.008495 -0.175387 
0.001939 -0.180642 
-0.008792 -0.192847 
-0.007197 -0.208635 
-0.001931 -0.174526 
0.000554 -0.210619 
-0.007098 -0.202195 
-0.005585 -0.209374 
-0.011431 -0.169442 
-0.009366 -0.189335 
0.001883 -0.189586 
-0.013058 -0.188698 
-0.013244 -0.189209 
-0.013394 -0.177887 
0.000000 -0.120265 
-0.004925 -0.123715 
-0.004230 -0.104271 
-0.004757 -0.151268 
-0.005154 -0.139400 
0.000000 -0.149116 
-0.005812 -0.137220 
-0.008855 -0.133665 
-0.011135 -0.149334 
0.000045 -0.160210 
-0.001319 -0.163616 
0.000000 -0.159588 
-0.009586 -0.170960 
-0.004884 -0.166863 
-0.006291 -0.172112 
0.000000 -0.162081 
-0.002664 -0.163332 
-0.003864 -0.159242 
-0.012822 -0.159463 
-0.008933 -0.157380 
-0.011973 -0.166723 
0.004230 -0.104271 
0.004925 -0.123715 
0.011135 -0.149334 
0.008855 -0.133665 
0.005812 -0.137220 
0.005154 -0.139400 
0.004757 -0.151268 
0.005585 -0.209374 
0.007098 -0.202195 
-0.000554 -0.210619 
0.013394 -0.177887 
0.013244 -0.189209 
0.013058 -0.188698 
-0.001883 -0.189586 
0.009366 -0.189335 
0.011431 -0.169442 
0.001319 -0.163616 
-0.000045 -0.160210 
0.003864 -0.159242 
0.002664 -0.163332 
0.006291 -0.172112 
0.004884 -0.166863 
0.009586 -0.170960 
0.012822 -0.159463 
0.011973 -0.166723 
0.008933 -0.157380 
0.004400 -0.213659 
0.009244 -0.206049 
0.006546 -0.195338 
0.009417 -0.201281 
0.006879 -0.201640 
0.011510 -0.196862 
0.010281 -0.187049 
-0.019258 -0.159648 
-0.012069 -0.170540 
-0.015985 -0.165261 
-0.005408 -0.170880 
-0.008478 -0.172019 
-0.011157 -0.161024 
-0.001713 -0.184780 
-0.004969 -0.180044 
0.001472 -0.188276 
-0.000436 -0.162153 
-0.001361 -0.153241 
0.006631 -0.178144 
0.002524 -0.170140 
-0.005104 -0.156835 
-0.001374 -0.165037 
-0.003016 -0.168223 
0.004040 -0.187524 
0.000416 -0.178406 
0.005835 -0.183729 
-0.030779 -0.142395 
-0.025937 -0.147249 
-0.035829 -0.117160 
-0.031640 -0.133152 
-0.041891 -0.114846 
-0.021018 -0.149019 
-0.016322 -0.148770 
-0.018600 -0.027770 
-0.030978 -0.054781 
-0.028134 -0.036594 
-0.023926 -0.097121 
-0.028942 -0.076324 
-0.022100 -0.075048 
-0.044316 -0.081059 
-0.036675 -0.078402 
-0.037820 -0.099027 
-0.005244 -0.143986 
-0.002531 -0.142891 
-0.012074 -0.147399 
-0.008385 -0.145621 
-0.012409 -0.114632 
-0.010907 -0.131500 
-0.017491 -0.115762 
-0.029431 -0.117493 
-0.023206 -0.116832 
-0.020497 -0.134052 
0.000000 0.000000 
-0.013154 -0.026041 
-0.006952 -0.025670 
-0.009606 -0.025712 
0.000000 0.000000 
-0.017297 -0.050997 
-0.016324 -0.074252 
0.000000 -0.025665 
-0.001467 -0.025685 
0.000000 0.000000 
-0.003519 -0.073030 
-0.002683 -0.050110 
0.000000 -0.072903 
0.000000 0.000000 
-0.003041 -0.025688 
-0.004827 -0.025680 
-0.003366 -0.129384 
0.000000 -0.142544 
-0.012650 -0.095256 
-0.007911 -0.113670 
0.000000 -0.112761 
-0.003845 -0.113020 
-0.003909 -0.094120 
-0.008785 -0.050361 
-0.007263 -0.073295 
-0.011454 -0.073697 
0.000000 0.000000 
0.001467 -0.025685 
0.004827 -0.025680 
0.003041 -0.025688 
0.000000 0.000000 
0.002683 -0.050110 
0.003519 -0.073030 
0.018600 -0.027770 
0.013154 -0.026041 
0.000000 0.000000 
0.016324 -0.074252 
0.017297 -0.050997 
0.022100 -0.075048 
0.000000 0.000000 
0.009606 -0.025712 
0.006952 -0.025670 
0.003366 -0.129384 
0.002531 -0.142891 
0.003909 -0.094120 
0.003845 -0.113020 
0.012409 -0.114632 
0.007911 -0.113670 
0.012650 -0.095256 
0.008785 -0.050361 
0.011454 -0.073697 
0.007263 -0.073295 
0.028134 -0.036594 
0.030978 -0.054781 
0.037820 -0.099027 
0.036675 -0.078402 
0.044316 -0.081059 
0.028942 -0.076324 
0.023926 -0.097121 
0.019258 -0.159648 
0.025937 -0.147249 
0.030779 -0.142395 
0.016322 -0.148770 
0.021018 -0.149019 
0.011157 -0.161024 
0.041891 -0.114846 
0.031640 -0.133152 
0.035829 -0.117160 
0.005244 -0.143986 
0.001361 -0.153241 
0.017491 -0.115762 
0.010907 -0.131500 
0.005104 -0.156835 
0.008385 -0.145621 
0.012074 -0.147399 
0.029431 -0.117493 
0.020497 -0.134052 
0.023206 -0.116832 
0.015985 -0.165261 
0.012069 -0.170540 
-0.001472 -0.188276 
0.004969 -0.180044 
0.001713 -0.184780 
0.008478 -0.172019 
0.005408 -0.170880 
-0.009244 -0.206049 
-0.004400 -0.213659 
-0.010281 -0.187049 
-0.011510 -0.196862 
-0.006879 -0.201640 
-0.009417 -0.201281 
-0.006546 -0.195338 
0.000436 -0.162153 
0.003016 -0.168223 
0.001374 -0.165037 
-0.002524 -0.170140 
-0.006631 -0.178144 
-0.004040 -0.187524 
-0.005835 -0.183729 
-0.000416 -0.178406 
0.000394 -0.213171 
-0.002651 -0.210311 
-0.002403 -0.212780 
-0.003327 -0.202967 
-0.002926 -0.207187 
0.000962 -0.207443 
-0.008723 -0.205064 
-0.006257 -0.206330 
-0.009725 -0.201139 
-0.007860 -0.166408 
-0.006454 -0.179179 
0.000776 -0.178521 
-0.012879 -0.181200 
-0.010587 -0.180135 
-0.013344 -0.172162 
0.001928 -0.197445 
-0.005029 -0.189478 
-0.003985 -0.197223 
-0.012253 -0.183614 
-0.013426 -0.183500 
-0.012212 -0.178821 
-0.012303 -0.195149 
-0.013547 -0.189053 
-0.012765 -0.194267 
-0.014077 -0.176435 
-0.014030 -0.183001 
-0.013917 -0.182200 
-0.008144 -0.196631 
-0.011948 -0.189268 
-0.010831 -0.195924 
0.000000 -0.110565 
-0.002390 -0.111558 
-0.002214 -0.100934 
-0.002612 -0.129748 
-0.002529 -0.121147 
0.000000 -0.128960 
-0.005780 -0.109731 
-0.004607 -0.114471 
-0.006483 -0.119234 
-0.002216 -0.154339 
-0.002416 -0.149674 
0.000000 -0.153848 
-0.007516 -0.142713 
-0.005030 -0.145818 
-0.007349 -0.148755 
0.000000 -0.143387 
-0.002555 -0.144016 
-0.002622 -0.137372 
-0.004068 -0.149506 
-0.008953 -0.143399 
-0.008639 -0.154292 
-0.007881 -0.125735 
-0.008713 -0.133838 
-0.006681 -0.126388 
-0.011116 -0.147232 
-0.010224 -0.140847 
-0.009446 -0.140859 
-0.005118 -0.132027 
-0.007423 -0.135756 
-0.007066 -0.127917 
0.000316 -0.156771 
-0.000009 -0.159724 
0.000000 -0.156709 
-0.001855 -0.164739 
-0.000633 -0.162367 
-0.000831 -0.163330 
0.000000 -0.161596 
-0.000344 -0.161782 
-0.000687 -0.162927 
-0.010290 -0.175020 
-0.008022 -0.171925 
-0.008546 -0.175412 
-0.006103 -0.165840 
-0.007196 -0.168687 
-0.008547 -0.167207 
-0.004127 -0.169119 
-0.005708 -0.169323 
-0.003591 -0.166996 
0.000000 -0.160324 
-0.001677 -0.160696 
-0.001966 -0.158012 
-0.001029 -0.163140 
-0.001362 -0.162401 
0.000000 -0.162867 
-0.005633 -0.161234 
-0.003291 -0.161768 
-0.004784 -0.163504 
-0.002870 -0.165246 
-0.003854 -0.164838 
-0.002001 -0.163943 
-0.011565 -0.158964 
-0.011422 -0.152874 
-0.012376 -0.154735 
-0.013151 -0.163158 
-0.013748 -0.166782 
-0.004361 -0.155743 
-0.008172 -0.161103 
-0.006368 -0.158021 
-0.006953 -0.153861 
-0.009439 -0.152755 
-0.011770 -0.173942 
-0.013609 -0.169803 
-0.012908 -0.172196 
-0.010926 -0.169224 
-0.009711 -0.164884 
-0.011228 -0.157711 
-0.010629 -0.161717 
-0.012641 -0.163465 
0.002214 -0.100934 
0.002390 -0.111558 
0.006483 -0.119234 
0.004607 -0.114471 
0.005780 -0.109731 
0.002529 -0.121147 
0.002612 -0.129748 
0.008639 -0.154292 
0.008953 -0.143399 
0.004068 -0.149506 
0.009446 -0.140859 
0.010224 -0.140847 
0.011116 -0.147232 
0.006681 -0.126388 
0.008713 -0.133838 
0.007881 -0.125735 
0.002416 -0.149674 
0.002216 -0.154339 
0.002622 -0.137372 
0.002555 -0.144016 
0.007349 -0.148755 
0.005030 -0.145818 
0.007516 -0.142713 
0.007066 -0.127917 
0.007423 -0.135756 
0.005118 -0.132027 
0.002403 -0.212780 
0.002651 -0.210311 
-0.000394 -0.213171 
0.009725 -0.201139 
0.006257 -0.206330 
0.008723 -0.205064 
-0.000962 -0.207443 
0.002926 -0.207187 
0.003327 -0.202967 
0.012212 -0.178821 
0.013426 -0.183500 
0.012253 -0.183614 
0.013917 -0.182200 
0.014030 -0.183001 
0.014077 -0.176435 
0.012765 -0.194267 
0.013547 -0.189053 
0.012303 -0.195149 
-0.000776 -0.178521 
0.006454 -0.179179 
0.007860 -0.166408 
0.003985 -0.197223 
0.005029 -0.189478 
-0.001928 -0.197445 
0.013344 -0.172162 
0.010587 -0.180135 
0.012879 -0.181200 
0.010831 -0.195924 
0.011948 -0.189268 
0.008144 -0.196631 
0.000009 -0.159724 
-0.000316 -0.156771 
0.000687 -0.162927 
0.000344 -0.161782 
0.000831 -0.163330 
0.000633 -0.162367 
0.001855 -0.164739 
0.001966 -0.158012 
0.001677 -0.160696 
0.004784 -0.163504 
0.003291 -0.161768 
0.005633 -0.161234 
0.001362 -0.162401 
0.001029 -0.163140 
0.008546 -0.175412 
0.008022 -0.171925 
0.010290 -0.175020 
0.003591 -0.166996 
0.005708 -0.169323 
0.004127 -0.169119 
0.008547 -0.167207 
0.007196 -0.168687 
0.006103 -0.165840 
0.002001 -0.163943 
0.003854 -0.164838 
0.002870 -0.165246 
0.011565 -0.158964 
0.013748 -0.166782 
0.013151 -0.163158 
0.012376 -0.154735 
0.011422 -0.152874 
0.011770 -0.173942 
0.009711 -0.164884 
0.010926 -0.169224 
0.012908 -0.172196 
0.013609 -0.169803 
0.004361 -0.155743 
0.009439 -0.152755 
0.006953 -0.153861 
0.006368 -0.158021 
0.008172 -0.161103 
0.012641 -0.163465 
0.010629 -0.161717 
0.011228 -0.157711 
0.002098 -0.215082 
0.005006 -0.211690 
0.008268 -0.207715 
0.007027 -0.209967 
0.006162 -0.211465 
0.007841 -0.207921 
0.010232 -0.203492 
0.005193 -0.195045 
0.007040 -0.198645 
0.005596 -0.197697 
0.009451 -0.197208 
0.008312 -0.198449 
0.007747 -0.194567 
0.007433 -0.205317 
0.008228 -0.201986 
0.008661 -0.205029 
0.011929 -0.188054 
0.010625 -0.183281 
0.011819 -0.198481 
0.012386 -0.193210 
0.009652 -0.190294 
0.011307 -0.191908 
0.010461 -0.194999 
0.009756 -0.203822 
0.010508 -0.199565 
0.010802 -0.201657 
-0.021423 -0.157466 
-0.017727 -0.163105 
-0.019806 -0.159861 
-0.013692 -0.166526 
-0.015682 -0.165275 
-0.017116 -0.160946 
-0.012191 -0.170427 
-0.013999 -0.168450 
-0.010294 -0.173511 
-0.006806 -0.165267 
-0.008320 -0.166249 
-0.009412 -0.160214 
-0.005175 -0.176557 
-0.006867 -0.171706 
-0.003740 -0.176010 
-0.013037 -0.161498 
-0.009985 -0.166873 
-0.011784 -0.167011 
0.001201 -0.189242 
-0.000048 -0.187139 
0.002796 -0.191207 
-0.006682 -0.178302 
-0.003238 -0.182841 
-0.004975 -0.180165 
-0.000153 -0.184743 
-0.001625 -0.184312 
-0.003381 -0.180772 
-0.010220 -0.171679 
-0.006761 -0.176423 
-0.008475 -0.175458 
-0.000711 -0.157161 
-0.000661 -0.152926 
0.000906 -0.164631 
-0.000185 -0.161033 
-0.002130 -0.153844 
-0.001178 -0.157863 
-0.001744 -0.158830 
0.008752 -0.178981 
0.006604 -0.175102 
0.002343 -0.172329 
0.004519 -0.174077 
0.004338 -0.176665 
0.004444 -0.171518 
0.002489 -0.168078 
-0.006381 -0.158023 
-0.004282 -0.162697 
-0.005458 -0.164046 
-0.002437 -0.160005 
-0.003278 -0.161320 
-0.003980 -0.155698 
-0.000537 -0.171715 
-0.002101 -0.166640 
0.000121 -0.169851 
0.000828 -0.166207 
0.000573 -0.167978 
-0.000824 -0.163512 
0.004230 -0.191948 
0.001159 -0.184290 
0.002840 -0.188354 
0.005507 -0.191622 
0.006616 -0.190366 
-0.004120 -0.169677 
0.001287 -0.176599 
-0.001405 -0.173450 
-0.002477 -0.174928 
-0.000666 -0.179803 
0.008637 -0.182448 
0.007533 -0.188317 
0.008220 -0.185622 
0.006371 -0.181077 
0.003899 -0.179135 
0.002288 -0.183103 
0.003209 -0.181333 
0.005048 -0.185932 
-0.027267 -0.148456 
-0.024997 -0.151543 
-0.031543 -0.138648 
-0.028388 -0.145278 
-0.034064 -0.136016 
-0.022689 -0.153650 
-0.020384 -0.154929 
-0.040445 -0.107996 
-0.038936 -0.116332 
-0.043564 -0.107054 
-0.028822 -0.134027 
-0.033962 -0.125406 
-0.030960 -0.126039 
-0.039693 -0.122257 
-0.036891 -0.124199 
-0.034401 -0.131629 
-0.013835 -0.155201 
-0.011866 -0.154519 
-0.018120 -0.155525 
-0.015927 -0.155575 
-0.021073 -0.142020 
-0.018626 -0.149086 
-0.023664 -0.141980 
-0.028942 -0.140424 
-0.026301 -0.141489 
-0.023467 -0.148450 
-0.012284 -0.015063 
-0.022891 -0.030674 
-0.018056 -0.021215 
-0.026895 -0.053071 
-0.025775 -0.041682 
-0.021922 -0.040011 
-0.034980 -0.049460 
-0.030287 -0.044687 
-0.035359 -0.057362 
-0.020814 -0.096608 
-0.023364 -0.086363 
-0.020257 -0.085873 
-0.030244 -0.087571 
-0.026700 -0.086926 
-0.027226 -0.097650 
-0.023198 -0.063729 
-0.025385 -0.075604 
-0.026652 -0.064453 
-0.044911 -0.090206 
-0.041420 -0.089754 
-0.041315 -0.099154 
-0.038674 -0.068975 
-0.040606 -0.079726 
-0.042642 -0.071330 
-0.034242 -0.098660 
-0.037713 -0.089054 
-0.033945 -0.088293 
-0.030445 -0.065509 
-0.032735 -0.077251 
-0.034511 -0.067003 
-0.001991 -0.148477 
-0.001002 -0.148196 
-0.004180 -0.149726 
-0.003040 -0.149000 
-0.004539 -0.136924 
-0.003846 -0.143352 
-0.006168 -0.137481 
-0.010036 -0.153631 
-0.008354 -0.152630 
-0.011750 -0.139710 
-0.010158 -0.146523 
-0.013885 -0.140487 
-0.006823 -0.151599 
-0.005435 -0.150610 
-0.015228 -0.105726 
-0.014871 -0.115188 
-0.017926 -0.106241 
-0.008857 -0.130832 
-0.011801 -0.123396 
-0.009597 -0.122809 
-0.016641 -0.124656 
-0.014147 -0.124024 
-0.013093 -0.132205 
-0.006751 -0.144757 
-0.009757 -0.138915 
-0.007900 -0.138157 
-0.037150 -0.108380 
-0.030376 -0.108147 
-0.033766 -0.108385 
-0.032638 -0.117501 
-0.027943 -0.126235 
-0.020802 -0.106768 
-0.019285 -0.125250 
-0.020273 -0.116322 
-0.023850 -0.107284 
-0.027053 -0.107758 
-0.014132 -0.148176 
-0.023207 -0.134365 
-0.018562 -0.141722 
-0.016160 -0.141182 
-0.017895 -0.133539 
-0.026271 -0.117243 
-0.022066 -0.125755 
-0.024963 -0.126109 
0.000000 0.000000 
-0.009656 -0.013614 
-0.006768 -0.012944 
-0.007996 -0.013126 
0.000000 0.000000 
-0.015520 -0.026566 
-0.018740 -0.039143 
-0.003584 -0.012909 
-0.004224 -0.012888 
0.000000 0.000000 
-0.011769 -0.038322 
-0.008197 -0.025677 
-0.009992 -0.038246 
0.000000 0.000000 
-0.004948 -0.012875 
-0.005781 -0.012884 
-0.019085 -0.074609 
-0.017377 -0.085443 
-0.020090 -0.051384 
-0.020083 -0.063231 
-0.014731 -0.062609 
-0.017273 -0.062876 
-0.014822 -0.050751 
-0.011231 -0.025809 
-0.013774 -0.038452 
-0.016067 -0.038692 
0.000000 -0.012983 
-0.000373 -0.012989 
0.000000 0.000000 
-0.001048 -0.038047 
-0.000726 -0.025677 
0.000000 -0.038027 
0.000000 0.000000 
-0.000754 -0.012989 
-0.001150 -0.012985 
-0.001871 -0.083721 
-0.001745 -0.072950 
0.000000 -0.083666 
-0.004082 -0.050156 
-0.003154 -0.061777 
-0.004796 -0.061856 
0.000000 -0.061682 
-0.001564 -0.061719 
-0.001330 -0.050073 
0.000000 0.000000 
-0.002488 -0.012950 
-0.003009 -0.012930 
-0.001566 -0.012977 
-0.002010 -0.012966 
0.000000 0.000000 
-0.005615 -0.038136 
-0.003900 -0.025686 
-0.004381 -0.038111 
-0.002116 -0.038067 
-0.003220 -0.038088 
-0.002234 -0.025688 
-0.001264 -0.142622 
0.000000 -0.148158 
-0.005110 -0.129749 
-0.002989 -0.136513 
0.000000 -0.136174 
-0.001487 -0.136262 
-0.001672 -0.129155 
-0.015184 -0.095670 
-0.012700 -0.105240 
-0.008093 -0.104417 
-0.010329 -0.104799 
-0.010280 -0.094889 
-0.010095 -0.114119 
-0.007519 -0.122290 
0.000000 -0.103639 
-0.001952 -0.103711 
-0.001940 -0.093990 
-0.001815 -0.121335 
-0.001909 -0.112840 
0.000000 -0.121250 
-0.005937 -0.094315 
-0.003933 -0.103866 
-0.005970 -0.104103 
-0.005546 -0.121861 
-0.005837 -0.113299 
-0.003654 -0.121540 
-0.005837 -0.025674 
-0.007108 -0.050281 
-0.006946 -0.038164 
-0.008395 -0.038198 
-0.010607 -0.050459 
-0.003772 -0.083826 
-0.007775 -0.084184 
-0.005730 -0.083981 
-0.005349 -0.073146 
-0.006516 -0.061956 
-0.014711 -0.085062 
-0.012417 -0.062398 
-0.013790 -0.073952 
-0.012239 -0.084726 
-0.009936 -0.084433 
-0.008341 -0.062078 
-0.009288 -0.073479 
-0.010298 -0.062224 
0.000000 0.000000 
0.000373 -0.012989 
0.001150 -0.012985 
0.000754 -0.012989 
0.000000 0.000000 
0.000726 -0.025677 
0.001048 -0.038047 
0.003009 -0.012930 
0.002488 -0.012950 
0.000000 0.000000 
0.004381 -0.038111 
0.003900 -0.025686 
0.005615 -0.038136 
0.000000 0.000000 
0.002010 -0.012966 
0.001566 -0.012977 
0.001745 -0.072950 
0.001871 -0.083721 
0.001330 -0.050073 
0.001564 -0.061719 
0.004796 -0.061856 
0.003154 -0.061777 
0.004082 -0.050156 
0.002234 -0.025688 
0.003220 -0.038088 
0.002116 -0.038067 
0.012284 -0.015063 
0.009656 -0.013614 
0.000000 0.000000 
0.018740 -0.039143 
0.015520 -0.026566 
0.021922 -0.040011 
0.000000 0.000000 
0.007996 -0.013126 
0.006768 -0.012944 
0.017377 -0.085443 
0.019085 -0.074609 
0.020257 -0.085873 
0.014822 -0.050751 
0.017273 -0.062876 
0.014731 -0.062609 
0.023198 -0.063729 
0.020083 -0.063231 
0.020090 -0.051384 
0.000000 0.000000 
0.004224 -0.012888 
0.003584 -0.012909 
0.005781 -0.012884 
0.004948 -0.012875 
0.000000 0.000000 
0.009992 -0.038246 
0.008197 -0.025677 
0.011769 -0.038322 
0.016067 -0.038692 
0.013774 -0.038452 
0.011231 -0.025809 
0.001264 -0.142622 
0.001002 -0.148196 
0.001672 -0.129155 
0.001487 -0.136262 
0.004539 -0.136924 
0.002989 -0.136513 
0.005110 -0.129749 
0.001940 -0.093990 
0.001952 -0.103711 
0.005970 -0.104103 
0.003933 -0.103866 
0.005937 -0.094315 
0.001909 -0.112840 
0.001815 -0.121335 
0.015228 -0.105726 
0.012700 -0.105240 
0.015184 -0.095670 
0.007519 -0.122290 
0.010095 -0.114119 
0.009597 -0.122809 
0.010280 -0.094889 
0.010329 -0.104799 
0.008093 -0.104417 
0.003654 -0.121540 
0.005837 -0.113299 
0.005546 -0.121861 
0.005837 -0.025674 
0.010607 -0.050459 
0.008395 -0.038198 
0.006946 -0.038164 
0.007108 -0.050281 
0.014711 -0.085062 
0.009936 -0.084433 
0.012239 -0.084726 
0.013790 -0.073952 
0.012417 -0.062398 
0.003772 -0.083826 
0.006516 -0.061956 
0.005349 -0.073146 
0.005730 -0.083981 
0.007775 -0.084184 
0.010298 -0.062224 
0.009288 -0.073479 
0.008341 -0.062078 
0.018056 -0.021215 
0.022891 -0.030674 
0.035359 -0.057362 
0.030287 -0.044687 
0.034980 -0.049460 
0.025775 -0.041682 
0.026895 -0.053071 
0.041315 -0.099154 
0.041420 -0.089754 
0.044911 -0.090206 
0.033945 -0.088293 
0.037713 -0.089054 
0.034242 -0.098660 
0.042642 -0.071330 
0.040606 -0.079726 
0.038674 -0.068975 
0.023364 -0.086363 
0.020814 -0.096608 
0.026652 -0.064453 
0.025385 -0.075604 
0.027226 -0.097650 
0.026700 -0.086926 
0.030244 -0.087571 
0.034511 -0.067003 
0.032735 -0.077251 
0.030445 -0.065509 
0.021423 -0.157466 
0.024997 -0.151543 
0.027267 -0.148456 
0.020384 -0.154929 
0.022689 -0.153650 
0.017116 -0.160946 
0.034064 -0.136016 
0.028388 -0.145278 
0.031543 -0.138648 
0.011866 -0.154519 
0.013835 -0.155201 
0.009412 -0.160214 
0.023664 -0.141980 
0.018626 -0.149086 
0.021073 -0.142020 
0.013037 -0.161498 
0.015927 -0.155575 
0.018120 -0.155525 
0.043564 -0.107054 
0.038936 -0.116332 
0.040445 -0.107996 
0.034401 -0.131629 
0.036891 -0.124199 
0.039693 -0.122257 
0.030960 -0.126039 
0.033962 -0.125406 
0.028822 -0.134027 
0.023467 -0.148450 
0.026301 -0.141489 
0.028942 -0.140424 
0.001991 -0.148477 
0.000661 -0.152926 
0.006168 -0.137481 
0.003846 -0.143352 
0.002130 -0.153844 
0.003040 -0.149000 
0.004180 -0.149726 
0.017926 -0.106241 
0.014871 -0.115188 
0.013093 -0.132205 
0.014147 -0.124024 
0.016641 -0.124656 
0.011801 -0.123396 
0.008857 -0.130832 
0.006381 -0.158023 
0.008354 -0.152630 
0.010036 -0.153631 
0.005435 -0.150610 
0.006823 -0.151599 
0.003980 -0.155698 
0.013885 -0.140487 
0.010158 -0.146523 