# vtk DataFile Version 2.0
Unstructured Grid Example
ASCII
DATASET UNSTRUCTURED_GRID

POINTS 9 float
0.013589 -0.208005 0.000000 
0.986411 -0.208005 0.000000 
1.000000 1.000000 0.000000 
0.000000 1.000000 0.000000 
0.500000 -0.060567 0.000000 
0.968331 0.352893 0.000000 
0.500000 1.000000 0.000000 
0.031669 0.352893 0.000000 
0.500000 0.373349 0.000000 

CELLS 8 32
3  0 4 8 
3  4 1 8 
3  1 5 8 
3  5 2 8 
3  2 6 8 
3  6 3 8 
3  3 7 8 
3  7 0 8 

CELL_TYPES 8
5
5
5
5
5
5
5
5

POINT_DATA 9

SCALARS u_h float 2
LOOKUP_TABLE default
0.013589 -0.208005 
-0.013589 -0.208005 
0.000000 0.000000 
0.000000 0.000000 
0.000000 -0.060567 
-0.031669 -0.147107 
0.000000 0.000000 
0.031669 -0.147107 
0.000000 -0.126651 

CELL_DATA 8

SCALARS epsilon float 4
LOOKUP_TABLE default
-0.027548 -0.079701 0.000000 0.169759
-0.027548 -0.079701 0.000000 -0.169759
-0.066143 0.113833 0.000000 -0.037229
-0.061849 0.255762 0.000000 0.016299
0.000000 0.222531 0.000000 -0.000000
0.000000 0.222531 0.000000 -0.000000
-0.061849 0.255762 0.000000 -0.016299
-0.066143 0.113833 0.000000 0.037229

SCALARS sigma float 4
LOOKUP_TABLE default
-2.260504 -4.299951 -1.802323 2.864065
-2.260504 -4.299951 -1.802323 -2.864065
-0.751774 2.141856 0.381891 -0.602325
0.564728 5.391614 1.636358 0.151358
2.021071 5.335628 2.021071 -0.000000
2.021071 5.335628 2.021071 -0.000000
0.564728 5.391614 1.636358 -0.151358
-0.751774 2.141856 0.381891 0.602325

