# vtk DataFile Version 2.0
Unstructured Grid Example
ASCII
DATASET UNSTRUCTURED_GRID

POINTS 25 float
-0.010247 -0.196889 0.000000 
1.010247 -0.196889 0.000000 
1.000000 1.000000 0.000000 
0.000000 1.000000 0.000000 
0.500000 -0.088506 0.000000 
0.975626 0.352479 0.000000 
0.500000 1.000000 0.000000 
0.024374 0.352479 0.000000 
0.500000 0.350035 0.000000 
0.237385 -0.158109 0.000000 
0.500000 0.102962 0.000000 
0.242226 0.075987 0.000000 
0.762615 -0.158109 0.000000 
0.757774 0.075987 0.000000 
1.001019 0.065796 0.000000 
0.740463 0.347860 0.000000 
0.961608 0.653465 0.000000 
0.734844 0.658815 0.000000 
0.750000 1.000000 0.000000 
0.500000 0.661616 0.000000 
0.250000 1.000000 0.000000 
0.265156 0.658815 0.000000 
0.038392 0.653465 0.000000 
0.259537 0.347860 0.000000 
-0.001019 0.065796 0.000000 

CELLS 32 128
3  0 9 11 
3  4 10 9 
3  8 11 10 
3  9 10 11 
3  4 12 10 
3  1 13 12 
3  8 10 13 
3  12 13 10 
3  1 14 13 
3  5 15 14 
3  8 13 15 
3  14 15 13 
3  5 16 15 
3  2 17 16 
3  8 15 17 
3  16 17 15 
3  2 18 17 
3  6 19 18 
3  8 17 19 
3  18 19 17 
3  6 20 19 
3  3 21 20 
3  8 19 21 
3  20 21 19 
3  3 22 21 
3  7 23 22 
3  8 21 23 
3  22 23 21 
3  7 24 23 
3  0 11 24 
3  8 23 11 
3  24 11 23 

CELL_TYPES 32
5
5
5
5
5
5
5
5
5
5
5
5
5
5
5
5
5
5
5
5
5
5
5
5
5
5
5
5
5
5
5
5

POINT_DATA 25

SCALARS u_h float 2
LOOKUP_TABLE default
-0.010247 -0.196889 
0.010247 -0.196889 
0.000000 0.000000 
0.000000 0.000000 
-0.000000 -0.088506 
-0.024374 -0.147521 
0.000000 0.000000 
0.024374 -0.147521 
-0.000000 -0.149965 
-0.012615 -0.158109 
-0.000000 -0.147038 
-0.007774 -0.174013 
0.012615 -0.158109 
0.007774 -0.174013 
0.001019 -0.184204 
-0.009537 -0.152140 
-0.038392 -0.096535 
-0.015156 -0.091185 
0.000000 0.000000 
0.000000 -0.088384 
0.000000 0.000000 
0.015156 -0.091185 
0.038392 -0.096535 
0.009537 -0.152140 
-0.001019 -0.184204 

CELL_DATA 32

SCALARS epsilon float 4
LOOKUP_TABLE default
-0.012541 -0.054783 0.000000 0.092539
0.049189 -0.199097 0.000000 0.181344
0.030613 -0.006169 0.000000 0.054540
0.028651 -0.061515 0.000000 0.066914
0.049189 -0.199097 0.000000 -0.181344
-0.012541 -0.054783 0.000000 -0.092539
0.030613 -0.006169 0.000000 -0.054540
0.028651 -0.061515 0.000000 -0.066914
-0.028204 0.048781 0.000000 -0.038308
-0.054954 0.138000 0.000000 -0.045059
-0.037256 0.083152 0.000000 -0.039760
-0.027903 0.081782 0.000000 -0.054092
-0.058969 0.184765 0.000000 -0.021297
-0.087216 0.319924 0.000000 0.070352
-0.038861 0.215107 0.000000 -0.014727
-0.097443 0.215008 0.000000 -0.020425
0.000987 0.302974 0.000000 0.028146
0.000000 0.295306 0.000000 -0.000000
-0.062452 0.217216 0.000000 -0.004476
-0.060808 0.303504 0.000000 0.025868
0.000000 0.295306 0.000000 -0.000000
0.000987 0.302974 0.000000 -0.028146
-0.062452 0.217216 0.000000 0.004476
-0.060808 0.303504 0.000000 -0.025868
-0.087216 0.319924 0.000000 -0.070352
-0.058969 0.184765 0.000000 0.021297
-0.038861 0.215107 0.000000 0.014727
-0.097443 0.215008 0.000000 0.020425
-0.054954 0.138000 0.000000 0.045059
-0.028204 0.048781 0.000000 0.038308
-0.037256 0.083152 0.000000 0.039760
-0.027903 0.081782 0.000000 0.054092

SCALARS sigma float 4
LOOKUP_TABLE default
-1.053136 -2.013609 -0.842512 1.547568
-1.788914 -7.590260 -2.576696 2.837734
0.677731 -0.011132 0.183131 0.868269
0.038111 -1.574174 -0.421995 1.083197
-1.788914 -7.590260 -2.576696 -2.837734
-1.053136 -2.013609 -0.842512 -1.547568
0.677731 -0.011132 0.183131 -0.868269
0.038111 -1.574174 -0.421995 -1.083197
-0.304327 0.944892 0.175979 -0.623935
-0.322218 2.805588 0.682244 -0.630583
-0.263630 1.707382 0.396635 -0.611396
-0.025817 1.753831 0.474729 -0.854803
0.061520 3.870879 1.080330 -0.271954
0.175190 6.407994 1.808567 0.859744
0.907404 4.773288 1.560630 -0.213717
-0.760802 4.136611 0.927420 -0.319015
2.672601 7.055667 2.672601 0.364246
2.611945 6.895536 2.611945 -0.000000
0.272689 4.572346 1.331054 -0.078476
0.987655 6.426204 2.036774 0.315919
2.611945 6.895536 2.611945 -0.000000
2.672601 7.055667 2.672601 -0.364246
0.272689 4.572346 1.331054 0.078476
0.987655 6.426204 2.036774 -0.315919
0.175190 6.407994 1.808567 -0.859744
0.061520 3.870879 1.080330 0.271954
0.907404 4.773288 1.560630 0.213717
-0.760802 4.136611 0.927420 0.319015
-0.322218 2.805588 0.682244 0.630583
-0.304327 0.944892 0.175979 0.623935
-0.263630 1.707382 0.396635 0.611396
-0.025817 1.753831 0.474729 0.854803

