# vtk DataFile Version 2.0
Unstructured Grid Example
ASCII
DATASET UNSTRUCTURED_GRID

POINTS 81 float
-0.002756 -0.208630 0.000000 
1.002756 -0.208630 0.000000 
1.000000 1.000000 0.000000 
0.000000 1.000000 0.000000 
0.500000 -0.097198 0.000000 
0.976143 0.347749 0.000000 
0.500000 1.000000 0.000000 
0.023857 0.347749 0.000000 
0.500000 0.347313 0.000000 
0.244289 -0.162809 0.000000 
0.500000 0.096469 0.000000 
0.240452 0.072607 0.000000 
0.755711 -0.162809 0.000000 
0.759548 0.072607 0.000000 
1.002316 0.059629 0.000000 
0.741915 0.343664 0.000000 
0.958053 0.651563 0.000000 
0.733298 0.655741 0.000000 
0.750000 1.000000 0.000000 
0.500000 0.658164 0.000000 
0.250000 1.000000 0.000000 
0.266702 0.655741 0.000000 
0.041947 0.651563 0.000000 
0.258085 0.343664 0.000000 
-0.002316 0.059629 0.000000 
0.121573 -0.197501 0.000000 
0.236989 -0.048631 0.000000 
0.113721 -0.071352 0.000000 
0.500000 -0.006964 0.000000 
0.365357 -0.019450 0.000000 
0.370337 -0.114087 0.000000 
0.372384 0.211787 0.000000 
0.367718 0.089267 0.000000 
0.500000 0.214882 0.000000 
0.629663 -0.114087 0.000000 
0.634643 -0.019450 0.000000 
0.886279 -0.071352 0.000000 
0.763011 -0.048631 0.000000 
0.878427 -0.197501 0.000000 
0.632282 0.089267 0.000000 
0.627616 0.211787 0.000000 
1.008215 -0.077569 0.000000 
0.882203 0.059584 0.000000 
0.859294 0.341098 0.000000 
0.871837 0.196747 0.000000 
0.990051 0.201400 0.000000 
0.751443 0.202990 0.000000 
0.622229 0.347998 0.000000 
0.964351 0.496167 0.000000 
0.849796 0.492725 0.000000 
0.854576 0.824446 0.000000 
0.846349 0.653441 0.000000 
0.963599 0.816402 0.000000 
0.734950 0.494580 0.000000 
0.617946 0.496998 0.000000 
0.875000 1.000000 0.000000 
0.738511 0.825353 0.000000 
0.500000 0.826261 0.000000 
0.619806 0.825706 0.000000 
0.625000 1.000000 0.000000 
0.617302 0.657194 0.000000 
0.500000 0.497822 0.000000 
0.375000 1.000000 0.000000 
0.380194 0.825706 0.000000 
0.145424 0.824446 0.000000 
0.261489 0.825353 0.000000 
0.125000 1.000000 0.000000 
0.382698 0.657194 0.000000 
0.382054 0.496998 0.000000 
0.036401 0.816402 0.000000 
0.153651 0.653441 0.000000 
0.140706 0.341098 0.000000 
0.150204 0.492725 0.000000 
0.035649 0.496167 0.000000 
0.265050 0.494580 0.000000 
0.377771 0.347998 0.000000 
0.009949 0.201400 0.000000 
0.128163 0.196747 0.000000 
0.117797 0.059584 0.000000 
-0.008215 -0.077569 0.000000 
0.248557 0.202990 0.000000 

CELLS 128 512
3  0 25 27 
3  9 26 25 
3  11 27 26 
3  25 26 27 
3  4 28 30 
3  10 29 28 
3  9 30 29 
3  28 29 30 
3  8 31 33 
3  11 32 31 
3  10 33 32 
3  31 32 33 
3  9 29 26 
3  10 32 29 
3  11 26 32 
3  29 32 26 
3  4 34 28 
3  12 35 34 
3  10 28 35 
3  34 35 28 
3  1 36 38 
3  13 37 36 
3  12 38 37 
3  36 37 38 
3  8 33 40 
3  10 39 33 
3  13 40 39 
3  33 39 40 
3  12 37 35 
3  13 39 37 
3  10 35 39 
3  37 39 35 
3  1 41 36 
3  14 42 41 
3  13 36 42 
3  41 42 36 
3  5 43 45 
3  15 44 43 
3  14 45 44 
3  43 44 45 
3  8 40 47 
3  13 46 40 
3  15 47 46 
3  40 46 47 
3  14 44 42 
3  15 46 44 
3  13 42 46 
3  44 46 42 
3  5 48 43 
3  16 49 48 
3  15 43 49 
3  48 49 43 
3  2 50 52 
3  17 51 50 
3  16 52 51 
3  50 51 52 
3  8 47 54 
3  15 53 47 
3  17 54 53 
3  47 53 54 
3  16 51 49 
3  17 53 51 
3  15 49 53 
3  51 53 49 
3  2 55 50 
3  18 56 55 
3  17 50 56 
3  55 56 50 
3  6 57 59 
3  19 58 57 
3  18 59 58 
3  57 58 59 
3  8 54 61 
3  17 60 54 
3  19 61 60 
3  54 60 61 
3  18 58 56 
3  19 60 58 
3  17 56 60 
3  58 60 56 
3  6 62 57 
3  20 63 62 
3  19 57 63 
3  62 63 57 
3  3 64 66 
3  21 65 64 
3  20 66 65 
3  64 65 66 
3  8 61 68 
3  19 67 61 
3  21 68 67 
3  61 67 68 
3  20 65 63 
3  21 67 65 
3  19 63 67 
3  65 67 63 
3  3 69 64 
3  22 70 69 
3  21 64 70 
3  69 70 64 
3  7 71 73 
3  23 72 71 
3  22 73 72 
3  71 72 73 
3  8 68 75 
3  21 74 68 
3  23 75 74 
3  68 74 75 
3  22 72 70 
3  23 74 72 
3  21 70 74 
3  72 74 70 
3  7 76 71 
3  24 77 76 
3  23 71 77 
3  76 77 71 
3  0 27 79 
3  11 78 27 
3  24 79 78 
3  27 78 79 
3  8 75 31 
3  23 80 75 
3  11 31 80 
3  75 80 31 
3  24 78 77 
3  11 80 78 
3  23 77 80 
3  78 80 77 

CELL_TYPES 128
5
5
5
5
5
5
5
5
5
5
5
5
5
5
5
5
5
5
5
5
5
5
5
5
5
5
5
5
5
5
5
5
5
5
5
5
5
5
5
5
5
5
5
5
5
5
5
5
5
5
5
5
5
5
5
5
5
5
5
5
5
5
5
5
5
5
5
5
5
5
5
5
5
5
5
5
5
5
5
5
5
5
5
5
5
5
5
5
5
5
5
5
5
5
5
5
5
5
5
5
5
5
5
5
5
5
5
5
5
5
5
5
5
5
5
5
5
5
5
5
5
5
5
5
5
5
5
5

POINT_DATA 81

SCALARS u_h float 2
LOOKUP_TABLE default
-0.002756 -0.208630 
0.002756 -0.208630 
0.000000 0.000000 
0.000000 0.000000 
-0.000000 -0.097198 
-0.023857 -0.152251 
0.000000 0.000000 
0.023857 -0.152251 
-0.000000 -0.152687 
-0.005711 -0.162809 
-0.000000 -0.153531 
-0.009548 -0.177393 
0.005711 -0.162809 
0.009548 -0.177393 
0.002316 -0.190371 
-0.008085 -0.156336 
-0.041947 -0.098437 
-0.016702 -0.094259 
0.000000 0.000000 
-0.000000 -0.091836 
0.000000 0.000000 
0.016702 -0.094259 
0.041947 -0.098437 
0.008085 -0.156336 
-0.002316 -0.190371 
-0.003427 -0.197501 
-0.013011 -0.173631 
-0.011279 -0.196352 
-0.000000 -0.131964 
-0.009643 -0.144450 
-0.004663 -0.114087 
-0.002616 -0.163213 
-0.007282 -0.160733 
-0.000000 -0.160118 
0.004663 -0.114087 
0.009643 -0.144450 
0.011279 -0.196352 
0.013011 -0.173631 
0.003427 -0.197501 
0.007282 -0.160733 
0.002616 -0.163213 
0.008215 -0.202569 
0.007203 -0.190416 
-0.015706 -0.158902 
-0.003163 -0.178253 
-0.009949 -0.173600 
0.001443 -0.172010 
-0.002771 -0.152002 
-0.035649 -0.128833 
-0.025204 -0.132275 
-0.020424 -0.050554 
-0.028651 -0.096559 
-0.036401 -0.058598 
-0.015050 -0.130420 
-0.007054 -0.128002 
0.000000 0.000000 
-0.011489 -0.049647 
-0.000000 -0.048739 
-0.005194 -0.049294 
0.000000 0.000000 
-0.007698 -0.092806 
-0.000000 -0.127178 
0.000000 0.000000 
0.005194 -0.049294 
0.020424 -0.050554 
0.011489 -0.049647 
0.000000 0.000000 
0.007698 -0.092806 
0.007054 -0.128002 
0.036401 -0.058598 
0.028651 -0.096559 
0.015706 -0.158902 
0.025204 -0.132275 
0.035649 -0.128833 
0.015050 -0.130420 
0.002771 -0.152002 
0.009949 -0.173600 
0.003163 -0.178253 
-0.007203 -0.190416 
-0.008215 -0.202569 
-0.001443 -0.172010 

CELL_DATA 128

SCALARS epsilon float 4
LOOKUP_TABLE default
0.002113 0.018593 0.000000 0.012540
0.001514 -0.026300 0.000000 0.122347
-0.018807 -0.017569 0.000000 0.107695
-0.000601 0.036856 0.000000 0.058221
0.036605 -0.294789 0.000000 0.093466
0.074186 -0.180490 0.000000 0.060044
0.029795 -0.125947 0.000000 0.239166
0.080210 -0.257556 0.000000 0.048912
0.020712 0.057946 0.000000 0.011682
0.013674 -0.016024 0.000000 0.086297
0.056565 -0.052426 0.000000 0.030319
0.020485 -0.020655 0.000000 0.030900
0.042873 -0.045882 0.000000 0.099330
0.055596 -0.137755 0.000000 0.041749
0.014616 -0.025111 0.000000 0.082282
0.021856 -0.108898 0.000000 0.143125
0.036605 -0.294789 0.000000 -0.093466
0.029795 -0.125947 0.000000 -0.239166
0.074186 -0.180490 0.000000 -0.060044
0.080210 -0.257556 0.000000 -0.048912
0.002113 0.018593 0.000000 -0.012540
-0.018807 -0.017569 0.000000 -0.107695
0.001514 -0.026300 0.000000 -0.122347
-0.000601 0.036856 0.000000 -0.058221
0.020712 0.057946 0.000000 -0.011682
0.056565 -0.052426 0.000000 -0.030319
0.013674 -0.016024 0.000000 -0.086297
0.020485 -0.020655 0.000000 -0.030900
0.042873 -0.045882 0.000000 -0.099330
0.014616 -0.025111 0.000000 -0.082282
0.055596 -0.137755 0.000000 -0.041749
0.021856 -0.108898 0.000000 -0.143125
-0.021783 0.050610 0.000000 -0.001372
-0.038841 0.092873 0.000000 -0.024198
-0.021742 0.048233 0.000000 -0.066290
-0.025887 0.045969 0.000000 -0.040401
-0.056835 0.162968 0.000000 -0.035532
-0.060420 0.141352 0.000000 -0.061342
-0.048211 0.129238 0.000000 -0.034753
-0.048160 0.146968 0.000000 -0.035988
-0.021377 0.085927 0.000000 -0.019376
-0.011867 0.040061 0.000000 -0.066409
-0.043344 0.115725 0.000000 -0.054697
-0.011440 0.085036 0.000000 -0.053902
-0.036737 0.092637 0.000000 -0.042648
-0.038553 0.115223 0.000000 -0.061255
-0.023525 0.040777 0.000000 -0.082906
-0.038348 0.089837 0.000000 -0.065455
-0.059245 0.175765 0.000000 -0.026831
-0.084840 0.216196 0.000000 -0.015444
-0.061958 0.189863 0.000000 -0.047652
-0.082830 0.193156 0.000000 -0.028896
-0.096466 0.384318 0.000000 0.127338
-0.097734 0.306234 0.000000 0.027087
-0.110682 0.271506 0.000000 0.017755
-0.130828 0.309945 0.000000 0.011906
-0.021823 0.174213 0.000000 -0.014766
-0.043911 0.185292 0.000000 -0.042583
-0.066161 0.249483 0.000000 -0.014169
-0.066129 0.173617 0.000000 -0.025905
-0.112015 0.246664 0.000000 -0.020428
-0.100255 0.249482 0.000000 -0.013993
-0.083980 0.185830 0.000000 -0.035533
-0.084575 0.246671 0.000000 -0.019991
0.006768 0.329430 0.000000 0.074921
0.002164 0.324677 0.000000 0.042241
-0.073236 0.297851 0.000000 0.018245
-0.065284 0.330278 0.000000 0.078089
0.000000 0.319878 0.000000 0.000000
-0.042415 0.289253 0.000000 -0.001649
0.000444 0.322816 0.000000 0.019115
-0.041794 0.322948 0.000000 0.018352
-0.058017 0.183863 0.000000 -0.002728
-0.074651 0.243842 0.000000 -0.007148
-0.063470 0.244731 0.000000 -0.003012
-0.058035 0.243830 0.000000 -0.005161
-0.049028 0.324859 0.000000 0.043469
-0.063222 0.291683 0.000000 0.007093
-0.073680 0.298012 0.000000 0.016656
-0.051454 0.291593 0.000000 0.008798
0.000000 0.319878 0.000000 0.000000
0.000444 0.322816 0.000000 -0.019115
-0.042415 0.289253 0.000000 0.001649
-0.041794 0.322948 0.000000 -0.018352
0.006768 0.329430 0.000000 -0.074921
-0.073236 0.297851 0.000000 -0.018245
0.002164 0.324677 0.000000 -0.042241
-0.065284 0.330278 0.000000 -0.078089
-0.058017 0.183863 0.000000 0.002728
-0.063470 0.244731 0.000000 0.003012
-0.074651 0.243842 0.000000 0.007148
-0.058035 0.243830 0.000000 0.005161
-0.049028 0.324859 0.000000 -0.043469
-0.073680 0.298012 0.000000 -0.016656
-0.063222 0.291683 0.000000 -0.007093
-0.051454 0.291593 0.000000 -0.008798
-0.096466 0.384318 0.000000 -0.127338
-0.110682 0.271506 0.000000 -0.017755
-0.097734 0.306234 0.000000 -0.027087
-0.130828 0.309945 0.000000 -0.011906
-0.059245 0.175765 0.000000 0.026831
-0.061958 0.189863 0.000000 0.047652
-0.084840 0.216196 0.000000 0.015444
-0.082830 0.193156 0.000000 0.028896
-0.021823 0.174213 0.000000 0.014766
-0.066161 0.249483 0.000000 0.014169
-0.043911 0.185292 0.000000 0.042583
-0.066129 0.173617 0.000000 0.025905
-0.112015 0.246664 0.000000 0.020428
-0.083980 0.185830 0.000000 0.035533
-0.100255 0.249482 0.000000 0.013993
-0.084575 0.246671 0.000000 0.019991
-0.056835 0.162968 0.000000 0.035532
-0.048211 0.129238 0.000000 0.034753
-0.060420 0.141352 0.000000 0.061342
-0.048160 0.146968 0.000000 0.035988
-0.021783 0.050610 0.000000 0.001372
-0.021742 0.048233 0.000000 0.066290
-0.038841 0.092873 0.000000 0.024198
-0.025887 0.045969 0.000000 0.040401
-0.021377 0.085927 0.000000 0.019376
-0.043344 0.115725 0.000000 0.054697
-0.011867 0.040061 0.000000 0.066409
-0.011440 0.085036 0.000000 0.053902
-0.036737 0.092637 0.000000 0.042648
-0.023525 0.040777 0.000000 0.082906
-0.038553 0.115223 0.000000 0.061255
-0.038348 0.089837 0.000000 0.065455

SCALARS sigma float 4
LOOKUP_TABLE default
0.150643 0.387123 0.147738 0.212971
-0.767526 -1.994492 -0.758796 1.968299
-0.877521 -1.157373 -0.559037 1.805333
0.136103 0.511617 0.177945 0.969007
-2.903628 -9.812181 -3.493354 1.479637
-0.194251 -4.788342 -1.368844 0.918903
-2.203280 -7.493635 -2.663988 3.683531
-1.134264 -7.539131 -2.382801 0.600713
1.102333 1.686307 0.766110 0.187743
0.086618 -0.540500 -0.124693 1.408900
0.897058 -0.918004 -0.005754 0.471286
0.305470 -0.363349 -0.015901 0.509267
0.269825 -1.686400 -0.389169 1.508389
-0.087640 -3.450822 -0.972105 0.682426
0.023792 -0.780077 -0.207770 1.341791
-0.989867 -3.890802 -1.340843 2.328245
-2.903628 -9.812181 -3.493354 -1.479637
-2.203280 -7.493635 -2.663988 -3.683531
-0.194251 -4.788342 -1.368844 -0.918903
-1.134264 -7.539131 -2.382801 -0.600713
0.150643 0.387123 0.147738 -0.212971
-0.877521 -1.157373 -0.559037 -1.805333
-0.767526 -1.994492 -0.758796 -1.968299
0.136103 0.511617 0.177945 -0.969007
1.102333 1.686307 0.766110 -0.187743
0.897058 -0.918004 -0.005754 -0.471286
0.086618 -0.540500 -0.124693 -1.408900
0.305470 -0.363349 -0.015901 -0.509267
0.269825 -1.686400 -0.389169 -1.508389
0.023792 -0.780077 -0.207770 -1.341791
-0.087640 -3.450822 -0.972105 -0.682426
-0.989867 -3.890802 -1.340843 -2.328245
-0.123306 1.044738 0.253141 -0.048497
-0.184468 1.940787 0.482505 -0.364114
-0.172315 0.888346 0.196712 -1.094910
-0.268129 0.889324 0.170658 -0.661790
-0.184683 3.332647 0.864825 -0.432588
-0.443678 2.825930 0.654465 -0.915761
-0.207861 2.663787 0.674705 -0.464013
-0.050246 3.078955 0.832063 -0.472357
0.232515 1.953804 0.600637 -0.289458
0.002046 0.838213 0.230840 -1.077797
-0.147379 2.414277 0.622774 -0.845935
0.472020 1.981455 0.674032 -0.864426
-0.186302 1.935189 0.480463 -0.642110
-0.023828 2.439658 0.663689 -0.957816
-0.334401 0.662899 0.090247 -1.363157
-0.267051 1.822949 0.427445 -1.034965
-0.098507 3.616199 0.966399 -0.302514
-0.406268 4.291255 1.067304 -0.164288
-0.008000 3.942301 1.080852 -0.695740
-0.581440 3.785666 0.880282 -0.356721
-0.142637 7.384878 1.989627 1.431181
-0.064489 6.075036 1.651249 0.313924
-0.704588 5.207850 1.237160 0.204096
-1.045616 5.745694 1.291230 0.010043
1.017856 4.030802 1.386994 -0.202440
0.485206 4.035402 1.241925 -0.642283
0.431889 5.233635 1.556463 -0.221255
-0.215338 3.549353 0.915938 -0.394195
-0.933617 4.665080 1.025127 -0.304138
-0.554352 4.860116 1.182902 -0.222368
-0.644482 3.624875 0.818789 -0.522001
-0.124439 4.971838 1.331703 -0.294492
2.879675 7.602342 2.879675 0.953993
2.842714 7.504766 2.842714 0.539416
0.606380 6.181152 1.864707 0.224172
0.879531 6.859330 2.126061 0.980941
2.805297 7.405984 2.805297 0.000000
1.419250 6.334926 2.130268 -0.028261
2.828218 7.466496 2.828218 0.244369
1.688446 7.037004 2.397102 0.227676
0.115985 3.876313 1.096785 -0.047576
0.145991 5.022447 1.419901 -0.115648
0.471732 5.162811 1.547951 -0.052872
0.617213 5.201333 1.598502 -0.079636
1.449645 6.980254 2.315906 0.550458
0.854043 6.164295 1.928115 0.079504
0.594739 6.179153 1.860959 0.195842
1.183774 6.287873 2.052650 0.110194
2.805297 7.405984 2.805297 0.000000
2.828218 7.466496 2.828218 -0.244369
1.419250 6.334926 2.130268 0.028261
1.688446 7.037004 2.397102 -0.227676
2.879675 7.602342 2.879675 -0.953993
0.606380 6.181152 1.864707 -0.224172
2.842714 7.504766 2.842714 -0.539416
0.879531 6.859330 2.126061 -0.980941
0.115985 3.876313 1.096785 0.047576
0.471732 5.162811 1.547951 0.052872
0.145991 5.022447 1.419901 0.115648
0.617213 5.201333 1.598502 0.079636
1.449645 6.980254 2.315906 -0.550458
0.594739 6.179153 1.860959 -0.195842
0.854043 6.164295 1.928115 -0.079504
1.183774 6.287873 2.052650 -0.110194
-0.142637 7.384878 1.989627 -1.431181
-0.704588 5.207850 1.237160 -0.204096
-0.064489 6.075036 1.651249 -0.313924
-1.045616 5.745694 1.291230 -0.010043
-0.098507 3.616199 0.966399 0.302514
-0.008000 3.942301 1.080852 0.695740
-0.406268 4.291255 1.067304 0.164288
-0.581440 3.785666 0.880282 0.356721
1.017856 4.030802 1.386994 0.202440
0.431889 5.233635 1.556463 0.221255
0.485206 4.035402 1.241925 0.642283
-0.215338 3.549353 0.915938 0.394195
-0.933617 4.665080 1.025127 0.304138
-0.644482 3.624875 0.818789 0.522001
-0.554352 4.860116 1.182902 0.222368
-0.124439 4.971838 1.331703 0.294492
-0.184683 3.332647 0.864825 0.432588
-0.207861 2.663787 0.674705 0.464013
-0.443678 2.825930 0.654465 0.915761
-0.050246 3.078955 0.832063 0.472357
-0.123306 1.044738 0.253141 0.048497
-0.172315 0.888346 0.196712 1.094910
-0.184468 1.940787 0.482505 0.364114
-0.268129 0.889324 0.170658 0.661790
0.232515 1.953804 0.600637 0.289458
-0.147379 2.414277 0.622774 0.845935
0.002046 0.838213 0.230840 1.077797
0.472020 1.981455 0.674032 0.864426
-0.186302 1.935189 0.480463 0.642110
-0.334401 0.662899 0.090247 1.363157
-0.023828 2.439658 0.663689 0.957816
-0.267051 1.822949 0.427445 1.034965

