# vtk DataFile Version 2.0
Unstructured Grid Example
ASCII
DATASET UNSTRUCTURED_GRID

POINTS 4225 float
0.000111 -0.215578 0.000000 
0.999889 -0.215578 0.000000 
1.000000 1.000000 0.000000 
0.000000 1.000000 0.000000 
0.500000 -0.099953 0.000000 
0.976425 0.345683 0.000000 
0.500000 1.000000 0.000000 
0.023575 0.345683 0.000000 
0.500000 0.347032 0.000000 
0.248504 -0.163217 0.000000 
0.500000 0.092094 0.000000 
0.239293 0.070665 0.000000 
0.751496 -0.163217 0.000000 
0.760707 0.070665 0.000000 
1.003841 0.056399 0.000000 
0.742166 0.340614 0.000000 
0.955143 0.651179 0.000000 
0.731962 0.653732 0.000000 
0.750000 1.000000 0.000000 
0.500000 0.655905 0.000000 
0.250000 1.000000 0.000000 
0.268038 0.653732 0.000000 
0.044857 0.651179 0.000000 
0.257834 0.340614 0.000000 
-0.003841 0.056399 0.000000 
0.126511 -0.203556 0.000000 
0.235740 -0.049549 0.000000 
0.113604 -0.075018 0.000000 
0.500000 -0.012024 0.000000 
0.365327 -0.022494 0.000000 
0.367978 -0.117388 0.000000 
0.372775 0.208516 0.000000 
0.367788 0.085821 0.000000 
0.500000 0.212084 0.000000 
0.632022 -0.117388 0.000000 
0.634673 -0.022494 0.000000 
0.886396 -0.075018 0.000000 
0.764260 -0.049549 0.000000 
0.873489 -0.203556 0.000000 
0.632212 0.085821 0.000000 
0.627225 0.208516 0.000000 
1.007212 -0.083884 0.000000 
0.883953 0.057095 0.000000 
0.859983 0.338339 0.000000 
0.873133 0.194249 0.000000 
0.991620 0.199629 0.000000 
0.751940 0.200288 0.000000 
0.621972 0.345109 0.000000 
0.962824 0.495707 0.000000 
0.848916 0.490466 0.000000 
0.851411 0.822857 0.000000 
0.844109 0.651682 0.000000 
0.959911 0.813969 0.000000 
0.734513 0.491912 0.000000 
0.618051 0.494587 0.000000 
0.875000 1.000000 0.000000 
0.737252 0.824344 0.000000 
0.500000 0.824859 0.000000 
0.619398 0.824724 0.000000 
0.625000 1.000000 0.000000 
0.616892 0.655294 0.000000 
0.500000 0.495769 0.000000 
0.375000 1.000000 0.000000 
0.380602 0.824724 0.000000 
0.148589 0.822857 0.000000 
0.262748 0.824344 0.000000 
0.125000 1.000000 0.000000 
0.383108 0.655294 0.000000 
0.381949 0.494587 0.000000 
0.040089 0.813969 0.000000 
0.155891 0.651682 0.000000 
0.140017 0.338339 0.000000 
0.151084 0.490466 0.000000 
0.037176 0.495707 0.000000 
0.265487 0.491912 0.000000 
0.378028 0.345109 0.000000 
0.008380 0.199629 0.000000 
0.126867 0.194249 0.000000 
0.116047 0.057095 0.000000 
-0.007212 -0.083884 0.000000 
0.248060 0.200288 0.000000 
0.062805 -0.210806 0.000000 
0.117914 -0.139987 0.000000 
0.056962 -0.147118 0.000000 
0.238445 -0.106891 0.000000 
0.177966 -0.126854 0.000000 
0.190001 -0.189941 0.000000 
0.174272 -0.001217 0.000000 
0.174043 -0.064181 0.000000 
0.236503 0.009516 0.000000 
0.500000 -0.058080 0.000000 
0.432500 -0.061496 0.000000 
0.432980 -0.104446 0.000000 
0.432740 0.035924 0.000000 
0.432324 -0.014709 0.000000 
0.500000 0.038031 0.000000 
0.306407 -0.137441 0.000000 
0.366033 -0.071413 0.000000 
0.301261 -0.086992 0.000000 
0.437585 0.277101 0.000000 
0.436210 0.211154 0.000000 
0.500000 0.277788 0.000000 
0.302889 0.078833 0.000000 
0.370133 0.145389 0.000000 
0.306206 0.140172 0.000000 
0.500000 0.150140 0.000000 
0.434854 0.148903 0.000000 
0.433645 0.090466 0.000000 
0.299607 -0.034629 0.000000 
0.366049 0.029862 0.000000 
0.300478 0.020587 0.000000 
0.567020 -0.104446 0.000000 
0.567500 -0.061496 0.000000 
0.698739 -0.086992 0.000000 
0.633967 -0.071413 0.000000 
0.693593 -0.137441 0.000000 
0.567676 -0.014709 0.000000 
0.567260 0.035924 0.000000 
0.943038 -0.147118 0.000000 
0.882086 -0.139987 0.000000 
0.937195 -0.210806 0.000000 
0.763497 0.009516 0.000000 
0.825957 -0.064181 0.000000 
0.825728 -0.001217 0.000000 
0.809999 -0.189941 0.000000 
0.822034 -0.126854 0.000000 
0.761555 -0.106891 0.000000 
0.563790 0.211154 0.000000 
0.562415 0.277101 0.000000 
0.566355 0.090466 0.000000 
0.565146 0.148903 0.000000 
0.693794 0.140172 0.000000 
0.629867 0.145389 0.000000 
0.697111 0.078833 0.000000 
0.700393 -0.034629 0.000000 
0.699522 0.020587 0.000000 
0.633951 0.029862 0.000000 
1.004370 -0.151339 0.000000 
0.946786 -0.081226 0.000000 
0.944217 0.054587 0.000000 
0.947061 -0.013892 0.000000 
1.007004 -0.014294 0.000000 
0.886684 -0.009418 0.000000 
0.822907 0.062881 0.000000 
0.918261 0.340244 0.000000 
0.925476 0.266870 0.000000 
0.984078 0.272212 0.000000 
0.807104 0.266454 0.000000 
0.866553 0.265351 0.000000 
0.801344 0.338796 0.000000 
0.998444 0.127731 0.000000 
0.932626 0.194885 0.000000 
0.939117 0.124161 0.000000 
0.624526 0.275125 0.000000 
0.561114 0.346597 0.000000 
0.756669 0.134189 0.000000 
0.690008 0.204640 0.000000 
0.682366 0.342946 0.000000 
0.686099 0.272243 0.000000 
0.746974 0.269078 0.000000 
0.879161 0.124893 0.000000 
0.812958 0.196449 0.000000 
0.818417 0.128658 0.000000 
0.969165 0.420079 0.000000 
0.911525 0.415153 0.000000 
0.901512 0.570252 0.000000 
0.905762 0.491760 0.000000 
0.957931 0.572686 0.000000 
0.853947 0.413335 0.000000 
0.796141 0.413551 0.000000 
0.918430 0.909548 0.000000 
0.906106 0.820053 0.000000 
0.971377 0.900233 0.000000 
0.788397 0.652730 0.000000 
0.845783 0.736036 0.000000 
0.790183 0.737322 0.000000 
0.955350 0.731437 0.000000 
0.900513 0.733964 0.000000 
0.899453 0.650869 0.000000 
0.619747 0.418322 0.000000 
0.559983 0.419456 0.000000 
0.737891 0.414902 0.000000 
0.679089 0.416674 0.000000 
0.675022 0.572703 0.000000 
0.676551 0.493315 0.000000 
0.732408 0.571571 0.000000 
0.845424 0.569866 0.000000 
0.789167 0.570506 0.000000 
0.791925 0.490777 0.000000 
0.937500 1.000000 0.000000 
0.861608 0.911399 0.000000 
0.742966 0.911802 0.000000 
0.802760 0.911753 0.000000 
0.812500 1.000000 0.000000 
0.794985 0.823910 0.000000 
0.733519 0.738132 0.000000 
0.500000 0.911787 0.000000 
0.561017 0.911782 0.000000 
0.562500 1.000000 0.000000 
0.558951 0.739361 0.000000 
0.559791 0.824819 0.000000 
0.500000 0.739458 0.000000 
0.687500 1.000000 0.000000 
0.621929 0.911784 0.000000 
0.682623 0.911793 0.000000 
0.559135 0.495456 0.000000 
0.500000 0.419850 0.000000 
0.674755 0.654606 0.000000 
0.617050 0.573673 0.000000 
0.500000 0.574559 0.000000 
0.558640 0.574323 0.000000 
0.558565 0.655741 0.000000 
0.678626 0.824574 0.000000 
0.617675 0.739105 0.000000 
0.675941 0.738699 0.000000 
0.437500 1.000000 0.000000 
0.438983 0.911782 0.000000 
0.317377 0.911793 0.000000 
0.378071 0.911784 0.000000 
0.312500 1.000000 0.000000 
0.440209 0.824819 0.000000 
0.441049 0.739361 0.000000 
0.081570 0.909548 0.000000 
0.138392 0.911399 0.000000 
0.062500 1.000000 0.000000 
0.266481 0.738132 0.000000 
0.205015 0.823910 0.000000 
0.209817 0.737322 0.000000 
0.187500 1.000000 0.000000 
0.197240 0.911753 0.000000 
0.257034 0.911802 0.000000 
0.440865 0.495456 0.000000 
0.440017 0.419456 0.000000 
0.441435 0.655741 0.000000 
0.441360 0.574323 0.000000 
0.324978 0.572703 0.000000 
0.382950 0.573673 0.000000 
0.325245 0.654606 0.000000 
0.321374 0.824574 0.000000 
0.324059 0.738699 0.000000 
0.382325 0.739105 0.000000 
0.028623 0.900233 0.000000 
0.093894 0.820053 0.000000 
0.100547 0.650869 0.000000 
0.099487 0.733964 0.000000 
0.044650 0.731437 0.000000 
0.154217 0.736036 0.000000 
0.211603 0.652730 0.000000 
0.081739 0.340244 0.000000 
0.088475 0.415153 0.000000 
0.030835 0.420079 0.000000 
0.203859 0.413551 0.000000 
0.146053 0.413335 0.000000 
0.198656 0.338796 0.000000 
0.042069 0.572686 0.000000 
0.094238 0.491760 0.000000 
0.098488 0.570252 0.000000 
0.380253 0.418322 0.000000 
0.438886 0.346597 0.000000 
0.267592 0.571571 0.000000 
0.323449 0.493315 0.000000 
0.317634 0.342946 0.000000 
0.320911 0.416674 0.000000 
0.262109 0.414902 0.000000 
0.154576 0.569866 0.000000 
0.208075 0.490777 0.000000 
0.210833 0.570506 0.000000 
0.015922 0.272212 0.000000 
0.074524 0.266870 0.000000 
0.060883 0.124161 0.000000 
0.067374 0.194885 0.000000 
0.001556 0.127731 0.000000 
0.133447 0.265351 0.000000 
0.192896 0.266454 0.000000 
0.053214 -0.081226 0.000000 
-0.004370 -0.151339 0.000000 
0.177093 0.062881 0.000000 
0.113316 -0.009418 0.000000 
-0.007004 -0.014294 0.000000 
0.052939 -0.013892 0.000000 
0.055783 0.054587 0.000000 
0.375474 0.275125 0.000000 
0.253026 0.269078 0.000000 
0.313901 0.272243 0.000000 
0.309992 0.204640 0.000000 
0.243331 0.134189 0.000000 
0.120839 0.124893 0.000000 
0.181583 0.128658 0.000000 
0.187042 0.196449 0.000000 
0.031333 -0.213268 0.000000 
0.059829 -0.179301 0.000000 
0.028789 -0.181685 0.000000 
0.121768 -0.172088 0.000000 
0.090860 -0.176252 0.000000 
0.094564 -0.207712 0.000000 
0.085011 -0.111538 0.000000 
0.087534 -0.144117 0.000000 
0.115200 -0.107585 0.000000 
0.242109 -0.135055 0.000000 
0.212190 -0.147631 0.000000 
0.220170 -0.178270 0.000000 
0.205656 -0.087336 0.000000 
0.207945 -0.117429 0.000000 
0.236514 -0.078411 0.000000 
0.158453 -0.197862 0.000000 
0.182513 -0.158392 0.000000 
0.152382 -0.166332 0.000000 
0.206379 0.035062 0.000000 
0.205184 0.003957 0.000000 
0.237701 0.039810 0.000000 
0.143762 -0.070198 0.000000 
0.173761 -0.032796 0.000000 
0.143295 -0.038044 0.000000 
0.235803 -0.020256 0.000000 
0.204556 -0.026756 0.000000 
0.204642 -0.057155 0.000000 
0.148044 -0.134347 0.000000 
0.175334 -0.095489 0.000000 
0.145267 -0.102281 0.000000 
0.500000 -0.079570 0.000000 
0.466278 -0.080551 0.000000 
0.466363 -0.101085 0.000000 
0.466118 -0.036318 0.000000 
0.466181 -0.058941 0.000000 
0.500000 -0.035554 0.000000 
0.400115 -0.109933 0.000000 
0.432748 -0.083464 0.000000 
0.399582 -0.088229 0.000000 
0.466537 0.064091 0.000000 
0.466334 0.037497 0.000000 
0.500000 0.064561 0.000000 
0.398701 -0.017997 0.000000 
0.432460 0.010121 0.000000 
0.398883 0.007209 0.000000 
0.500000 0.012504 0.000000 
0.466191 0.011900 0.000000 
0.466118 -0.012703 0.000000 
0.277046 -0.149673 0.000000 
0.303401 -0.112330 0.000000 
0.272523 -0.123126 0.000000 
0.366921 -0.094727 0.000000 
0.334852 -0.102813 0.000000 
0.336716 -0.126622 0.000000 
0.332557 -0.053695 0.000000 
0.333414 -0.078563 0.000000 
0.365486 -0.047361 0.000000 
0.432342 -0.038578 0.000000 
0.398770 -0.042285 0.000000 
0.399084 -0.065685 0.000000 
[...]
POINT_DATA 4225

SCALARS u_h float 2
LOOKUP_TABLE default
0.000111 -0.215578 
-0.000111 -0.215578 
0.000000 0.000000 
0.000000 0.000000 
-0.000000 -0.099953 
-0.023575 -0.154317 
0.000000 0.000000 
0.023575 -0.154317 
-0.000000 -0.152968 
-0.001496 -0.163217 
-0.000000 -0.157906 
-0.010707 -0.179335 
0.001496 -0.163217 
0.010707 -0.179335 
0.003841 -0.193601 
-0.007834 -0.159386 
-0.044857 -0.098821 
-0.018038 -0.096268 
0.000000 0.000000 
-0.000000 -0.094095 
0.000000 0.000000 
0.018038 -0.096268 
0.044857 -0.098821 
0.007834 -0.159386 
-0.003841 -0.193601 
0.001511 -0.203556 
-0.014260 -0.174549 
-0.011396 -0.200018 
-0.000000 -0.137024 
-0.009673 -0.147494 
-0.007022 -0.117388 
-0.002225 -0.166484 
-0.007212 -0.164179 
-0.000000 -0.162916 
0.007022 -0.117388 
0.009673 -0.147494 
0.011396 -0.200018 
0.014260 -0.174549 
-0.001511 -0.203556 
0.007212 -0.164179 
0.002225 -0.166484 
0.007212 -0.208884 
0.008953 -0.192905 
-0.015017 -0.161661 
-0.001867 -0.180751 
-0.008380 -0.175371 
0.001940 -0.174712 
-0.003028 -0.154891 
-0.037176 -0.129293 
-0.026084 -0.134534 
-0.023589 -0.052143 
-0.030891 -0.098318 
-0.040089 -0.061031 
-0.015487 -0.133088 
-0.006949 -0.130413 
0.000000 0.000000 
-0.012748 -0.050656 
-0.000000 -0.050141 
-0.005602 -0.050276 
0.000000 0.000000 
-0.008108 -0.094706 
-0.000000 -0.129231 
0.000000 0.000000 
0.005602 -0.050276 
0.023589 -0.052143 
0.012748 -0.050656 
0.000000 0.000000 
0.008108 -0.094706 
0.006949 -0.130413 
0.040089 -0.061031 
0.030891 -0.098318 
0.015017 -0.161661 
0.026084 -0.134534 
0.037176 -0.129293 
0.015487 -0.133088 
0.003028 -0.154891 
0.008380 -0.175371 
0.001867 -0.180751 
-0.008953 -0.192905 
-0.007212 -0.208884 
-0.001940 -0.174712 
0.000305 -0.210806 
-0.007086 -0.202487 
-0.005538 -0.209618 
-0.011555 -0.169391 
-0.009534 -0.189354 
0.002501 -0.189941 
-0.013228 -0.188717 
-0.013457 -0.189181 
-0.013497 -0.177984 
-0.000000 -0.120580 
-0.005000 -0.123996 
-0.004520 -0.104446 
-0.004760 -0.151576 
-0.005176 -0.139709 
-0.000000 -0.149469 
-0.006093 -0.137441 
-0.008967 -0.133913 
-0.011239 -0.149492 
0.000085 -0.160399 
-0.001290 -0.163846 
-0.000000 -0.159712 
-0.009611 -0.171167 
-0.004867 -0.167111 
-0.006294 -0.172328 
-0.000000 -0.162360 
-0.002646 -0.163597 
-0.003855 -0.159534 
-0.012893 -0.159629 
-0.008951 -0.157638 
-0.012022 -0.166913 
0.004520 -0.104446 
0.005000 -0.123996 
0.011239 -0.149492 
0.008967 -0.133913 
0.006093 -0.137441 
0.005176 -0.139709 
0.004760 -0.151576 
0.005538 -0.209618 
0.007086 -0.202487 
-0.000305 -0.210806 
0.013497 -0.177984 
0.013457 -0.189181 
0.013228 -0.188717 
-0.002501 -0.189941 
0.009534 -0.189354 
0.011555 -0.169391 
0.001290 -0.163846 
-0.000085 -0.160399 
0.003855 -0.159534 
0.002646 -0.163597 
0.006294 -0.172328 
0.004867 -0.167111 
0.009611 -0.171167 
0.012893 -0.159629 
0.012022 -0.166913 
0.008951 -0.157638 
0.004370 -0.213839 
0.009286 -0.206226 
0.006717 -0.195413 
0.009561 -0.201392 
0.007004 -0.201794 
0.011684 -0.196918 
0.010407 -0.187119 
-0.019239 -0.159756 
-0.012024 -0.170630 
-0.015922 -0.165288 
-0.005396 -0.171046 
-0.008447 -0.172149 
-0.011156 -0.161204 
-0.001556 -0.184769 
-0.004874 -0.180115 
0.001617 -0.188339 
-0.000474 -0.162375 
-0.001386 -0.153403 
0.006669 -0.178311 
0.002508 -0.170360 
-0.005134 -0.157054 
-0.001401 -0.165257 
-0.003026 -0.168422 
0.004161 -0.187607 
0.000458 -0.178551 
0.005917 -0.183842 
-0.030835 -0.142421 
-0.025975 -0.147347 
-0.035988 -0.117248 
-0.031738 -0.133240 
-0.042069 -0.114814 
-0.021053 -0.149165 
-0.016359 -0.148949 
-0.019070 -0.027952 
-0.031394 -0.054947 
-0.028623 -0.037267 
-0.024103 -0.097270 
-0.029217 -0.076464 
-0.022317 -0.075178 
-0.044650 -0.081063 
-0.036987 -0.078536 
-0.038047 -0.099131 
-0.005253 -0.144178 
-0.002517 -0.143044 
-0.012109 -0.147598 
-0.008411 -0.145826 
-0.012478 -0.114797 
-0.010949 -0.131685 
-0.017592 -0.115929 
-0.029576 -0.117634 
-0.023333 -0.116994 
-0.020575 -0.134223 
0.000000 0.000000 
-0.013392 -0.026101 
-0.007034 -0.025698 
-0.009740 -0.025747 
0.000000 0.000000 
-0.017515 -0.051090 
-0.016481 -0.074368 
-0.000000 -0.025713 
-0.001483 -0.025718 
0.000000 0.000000 
-0.003549 -0.073139 
-0.002709 -0.050181 
-0.000000 -0.073042 
0.000000 0.000000 
-0.003071 -0.025716 
-0.004877 -0.025707 
-0.003365 -0.129544 
-0.000000 -0.142650 
-0.012745 -0.095394 
-0.007950 -0.113827 
-0.000000 -0.112941 
-0.003860 -0.113177 
-0.003935 -0.094259 
-0.008874 -0.050426 
-0.007325 -0.073395 
-0.011559 -0.073801 
0.000000 0.000000 
0.001483 -0.025718 
0.004877 -0.025707 
0.003071 -0.025716 
0.000000 0.000000 
0.002709 -0.050181 
0.003549 -0.073139 
0.019070 -0.027952 
0.013392 -0.026101 
0.000000 0.000000 
0.016481 -0.074368 
0.017515 -0.051090 
0.022317 -0.075178 
0.000000 0.000000 
0.009740 -0.025747 
0.007034 -0.025698 
0.003365 -0.129544 
0.002517 -0.143044 
0.003935 -0.094259 
0.003860 -0.113177 
0.012478 -0.114797 
0.007950 -0.113827 
0.012745 -0.095394 
0.008874 -0.050426 
0.011559 -0.073801 
0.007325 -0.073395 
0.028623 -0.037267 
0.031394 -0.054947 
0.038047 -0.099131 
0.036987 -0.078536 
0.044650 -0.081063 
0.029217 -0.076464 
0.024103 -0.097270 
0.019239 -0.159756 
0.025975 -0.147347 
0.030835 -0.142421 
0.016359 -0.148949 
0.021053 -0.149165 
0.011156 -0.161204 
0.042069 -0.114814 
0.031738 -0.133240 
0.035988 -0.117248 
0.005253 -0.144178 
0.001386 -0.153403 
0.017592 -0.115929 
0.010949 -0.131685 
0.005134 -0.157054 
0.008411 -0.145826 
0.012109 -0.147598 
0.029576 -0.117634 
0.020575 -0.134223 
0.023333 -0.116994 
0.015922 -0.165288 
0.012024 -0.170630 
-0.001617 -0.188339 
0.004874 -0.180115 
0.001556 -0.184769 
0.008447 -0.172149 
0.005396 -0.171046 
-0.009286 -0.206226 
-0.004370 -0.213839 
-0.010407 -0.187119 
-0.011684 -0.196918 
-0.007004 -0.201794 
-0.009561 -0.201392 
-0.006717 -0.195413 
0.000474 -0.162375 
0.003026 -0.168422 
0.001401 -0.165257 
-0.002508 -0.170360 
-0.006669 -0.178311 
-0.004161 -0.187607 
-0.005917 -0.183842 
-0.000458 -0.178551 
0.000083 -0.213268 
-0.002671 -0.210551 
-0.002461 -0.212935 
-0.003232 -0.203338 
-0.002890 -0.207502 
0.000814 -0.207712 
-0.008739 -0.205288 
-0.006216 -0.206617 
-0.009800 -0.201335 
-0.007891 -0.166305 
-0.006560 -0.178881 
0.001420 -0.178270 
-0.013094 -0.181086 
-0.010805 -0.179929 
-0.013486 -0.172161 
0.002203 -0.197862 
-0.004987 -0.189642 
-0.003868 -0.197582 
-0.012371 -0.183688 
-0.013566 -0.183543 
-0.012299 -0.178940 
-0.012488 -0.195198 
-0.013739 -0.189046 
-0.012955 -0.194294 
-0.014197 -0.176506 
-0.014194 -0.183006 
-0.014108 -0.182155 
-0.008206 -0.196847 
-0.012166 -0.189239 
-0.010983 -0.196031 
-0.000000 -0.110820 
-0.002472 -0.111801 
-0.002387 -0.101085 
-0.002632 -0.130068 
-0.002569 -0.121441 
-0.000000 -0.129304 
-0.006135 -0.109933 
-0.004752 -0.114714 
-0.006668 -0.119479 
-0.002213 -0.154659 
-0.002416 -0.150003 
-0.000000 -0.154189 
-0.007549 -0.142997 
-0.005040 -0.146129 
-0.007367 -0.149041 
-0.000000 -0.143746 
-0.002559 -0.144350 
-0.002632 -0.137703 
-0.004204 -0.149673 
-0.009099 -0.143580 
-0.008727 -0.154376 
-0.008079 -0.125977 
-0.008898 -0.134063 
-0.007034 -0.126622 
-0.011193 -0.147445 
-0.010336 -0.141063 
-0.009514 -0.141111 
-0.005158 -0.132328 
-0.007480 -0.136035 
-0.007166 -0.128185 
0.000352 -0.156893 
0.000021 -0.159882 
-0.000000 -0.156761 
-0.001822 -0.164973 
-0.000598 -0.162576 
-0.000793 -0.163552 
-0.000000 -0.161773 
-0.000321 -0.161975 
-0.000669 -0.163150 
-0.010336 -0.175195 
-0.008036 -0.172137 
-0.008578 -0.175597 
-0.006094 -0.166094 
-0.007197 -0.168921 
-0.008557 -0.167441 
-0.004109 -0.169352 
-0.005700 -0.169557 
-0.003567 -0.167238 
-0.000000 -0.160627 
-0.001669 -0.160988 
-0.001960 -0.158319 
-0.001014 -0.163389 
-0.001350 -0.162673 
-0.000000 -0.163117 
-0.005626 -0.161510 
-0.003278 -0.162049 
-0.004771 -0.163772 
-0.002843 -0.165493 
-0.003834 -0.165096 
-0.001978 -0.164192 
-0.011660 -0.159030 
-0.011478 -0.153089 
-0.012459 -0.154892 
-0.013252 -0.163243 
-0.013844 -0.166890 
-0.004357 -0.156044 
-0.008181 -0.161361 
-0.006368 -0.158302 
-0.006962 -0.154145 
-0.009468 -0.153012 
-0.011829 -0.174104 
-0.013695 -0.169932 
-0.012981 -0.172343 
-0.010963 -0.169423 
-0.009731 -0.165115 
-0.011269 -0.157932 
-0.010659 -0.161944 
-0.012701 -0.163644 
0.002387 -0.101085 
0.002472 -0.111801 
0.006668 -0.119479 
0.004752 -0.114714 
0.006135 -0.109933 
0.002569 -0.121441 
0.002632 -0.130068 
0.008727 -0.154376 
0.009099 -0.143580 
0.004204 -0.149673 
0.009514 -0.141111 
0.010336 -0.141063 
0.011193 -0.147445 
0.007034 -0.126622 
0.008898 -0.134063 
0.008079 -0.125977 
0.002416 -0.150003 
0.002213 -0.154659 
0.002632 -0.137703 
0.002559 -0.144350 
0.007367 -0.149041 
0.005040 -0.146129 
0.007549 -0.142997 
0.007166 -0.128185 
0.007480 -0.136035 
0.005158 -0.132328 
0.002461 -0.212935 
0.002671 -0.210551 
-0.000083 -0.213268 
0.009800 -0.201335 
0.006216 -0.206617 
0.008739 -0.205288 
-0.000814 -0.207712 
0.002890 -0.207502 
0.003232 -0.203338 
0.012299 -0.178940 
0.013566 -0.183543 
0.012371 -0.183688 
0.014108 -0.182155 
0.014194 -0.183006 
0.014197 -0.176506 
0.012955 -0.194294 
0.013739 -0.189046 
0.012488 -0.195198 
-0.001420 -0.178270 
0.006560 -0.178881 
0.007891 -0.166305 
0.003868 -0.197582 
0.004987 -0.189642 
-0.002203 -0.197862 
0.013486 -0.172161 
0.010805 -0.179929 
0.013094 -0.181086 
0.010983 -0.196031 
0.012166 -0.189239 
0.008206 -0.196847 
-0.000021 -0.159882 
-0.000352 -0.156893 
0.000669 -0.163150 
0.000321 -0.161975 
0.000793 -0.163552 
0.000598 -0.162576 
0.001822 -0.164973 
0.001960 -0.158319 
0.001669 -0.160988 
0.004771 -0.163772 
0.003278 -0.162049 
0.005626 -0.161510 
0.001350 -0.162673 
0.001014 -0.163389 
0.008578 -0.175597 
0.008036 -0.172137 
0.010336 -0.175195 
0.003567 -0.167238 
0.005700 -0.169557 
0.004109 -0.169352 
0.008557 -0.167441 
0.007197 -0.168921 
0.006094 -0.166094 
0.001978 -0.164192 
0.003834 -0.165096 
0.002843 -0.165493 
0.011660 -0.159030 
0.013844 -0.166890 
0.013252 -0.163243 
0.012459 -0.154892 
0.011478 -0.153089 
0.011829 -0.174104 
0.009731 -0.165115 
0.010963 -0.169423 
0.012981 -0.172343 
0.013695 -0.169932 
0.004357 -0.156044 
0.009468 -0.153012 
0.006962 -0.154145 
0.006368 -0.158302 
0.008181 -0.161361 
0.012701 -0.163644 
0.010659 -0.161944 
0.011269 -0.157932 
0.002189 -0.215129 
0.004961 -0.211883 
0.008290 -0.207909 
0.006991 -0.210172 
0.006127 -0.211712 
0.007821 -0.208137 
0.010312 -0.203654 
0.005366 -0.195118 
0.007202 -0.198746 
0.005753 -0.197794 
0.009623 -0.197279 
0.008479 -0.198539 
0.007915 -0.194634 
0.007508 -0.205528 
0.008362 -0.202120 
0.008746 -0.205196 
0.012076 -0.188100 
0.010723 -0.183380 
0.011981 -0.198557 
0.012567 -0.193238 
0.009799 -0.190352 
0.011473 -0.191948 
0.010634 -0.195051 
0.009857 -0.203963 
0.010667 -0.199651 
0.010931 -0.201772 
-0.021411 -0.157563 
-0.017699 -0.163187 
-0.019770 -0.159930 
-0.013668 -0.166646 
-0.015656 -0.165375 
-0.017097 -0.161072 
-0.012102 -0.170426 
-0.013948 -0.168514 
-0.010217 -0.173560 
-0.006812 -0.165456 
-0.008316 -0.166423 
-0.009420 -0.160408 
-0.005125 -0.176678 
-0.006845 -0.171854 
-0.003702 -0.176149 
-0.013028 -0.161662 
-0.009973 -0.167030 
-0.011765 -0.167149 
0.001370 -0.189254 
0.000103 -0.187179 
0.002963 -0.191259 
-0.006578 -0.178341 
-0.003109 -0.182876 
-0.004837 -0.180145 
-0.000043 -0.184826 
-0.001504 -0.184377 
-0.003296 -0.180864 
-0.010182 -0.171791 
-0.006701 -0.176525 
-0.008407 -0.175538 
-0.000750 -0.157334 
-0.000676 -0.153024 
0.000869 -0.164858 
-0.000226 -0.161243 
-0.002161 -0.154038 
-0.001217 -0.158065 
-0.001781 -0.159046 
0.008806 -0.179134 
0.006623 -0.175295 
0.002338 -0.172534 
0.004525 -0.174277 
0.004361 -0.176842 
0.004437 -0.171737 
0.002463 -0.168308 
-0.006406 -0.158237 
-0.004305 -0.162910 
-0.005473 -0.164249 
-0.002471 -0.160226 
-0.003307 -0.161540 
-0.004013 -0.155916 
-0.000539 -0.171908 
-0.002120 -0.166852 
0.000108 -0.170060 
0.000797 -0.166434 
0.000550 -0.168199 
-0.000858 -0.163736 
0.004393 -0.192014 
0.001256 -0.184387 
0.002975 -0.188429 
0.005662 -0.191691 
0.006760 -0.190436 
-0.004120 -0.169860 
0.001312 -0.176764 
-0.001394 -0.173626 
-0.002452 -0.175084 
-0.000608 -0.179929 
0.008715 -0.182569 
0.007659 -0.188393 
0.008323 -0.185715 
0.006430 -0.181215 
0.003940 -0.179288 
0.002368 -0.183214 
0.003270 -0.181463 
0.005151 -0.186026 
-0.027293 -0.148519 
-0.025010 -0.151623 
-0.031619 -0.138701 
-0.028432 -0.145344 
-0.034151 -0.136017 
-0.022697 -0.153753 
-0.020393 -0.155054 
-0.040643 -0.108041 
-0.039102 -0.116371 
-0.043774 -0.107019 
-0.028914 -0.134146 
-0.034090 -0.125493 
-0.031082 -0.126158 
-0.039841 -0.122231 
-0.037027 -0.124239 
-0.034507 -0.131674 
-0.013853 -0.155382 
-0.011888 -0.154713 
-0.018130 -0.155672 
-0.015941 -0.155740 
-0.021133 -0.142182 
-0.018662 -0.149250 
-0.023726 -0.142124 
-0.029010 -0.140516 
-0.026365 -0.141611 
-0.023503 -0.148573 
-0.012844 -0.015447 
-0.023427 -0.030962 
-0.018482 -0.022312 
-0.027269 -0.053216 
-0.026234 -0.041856 
-0.022312 -0.040147 
-0.035473 -0.049800 
-0.030790 -0.044934 
-0.035801 -0.057557 
-0.020972 -0.096757 
-0.023564 -0.086505 
-0.020432 -0.086011 
-0.030486 -0.087712 
-0.026923 -0.087069 
-0.027420 -0.097798 
-0.023465 -0.063856 
-0.025633 -0.075741 
-0.026957 -0.064590 
-0.045197 -0.090185 
-0.041694 -0.089829 
-0.041548 -0.099210 
-0.039052 -0.069120 
-0.040928 -0.079830 
-0.043030 -0.071384 
-0.034461 -0.098789 
-0.037981 -0.089171 
-0.034202 -0.088428 
-0.030783 -0.065654 
-0.033032 -0.077392 
-0.034874 -0.067154 
-0.001984 -0.148632 
-0.000983 -0.148300 
-0.004196 -0.149928 
-0.003046 -0.149185 
-0.004538 -0.137095 
-0.003843 -0.143528 
-0.006178 -0.137664 
-0.010061 -0.153835 
-0.008380 -0.152841 
-0.011792 -0.139906 
-0.010189 -0.146727 
-0.013934 -0.140680 
-0.006848 -0.151812 
-0.005457 -0.150821 
-0.015330 -0.105881 
-0.014956 -0.115355 
-0.018046 -0.106399 
-0.008887 -0.131013 
-0.011856 -0.123572 
-0.009638 -0.122980 
-0.016723 -0.124833 
-0.014216 -0.124201 
-0.013147 -0.132392 
-0.006770 -0.144958 
-0.009789 -0.139111 
-0.007922 -0.138348 
-0.037341 -0.108474 
-0.030552 -0.108287 
-0.033950 -0.108509 
-0.032790 -0.117621 
-0.028059 -0.126376 
-0.020938 -0.106926 
-0.019377 -0.125424 
-0.020387 -0.116488 
-0.024002 -0.107440 
-0.027218 -0.107908 
-0.014169 -0.148366 
-0.023291 -0.134524 
-0.018619 -0.141898 
-0.016213 -0.141368 
-0.017967 -0.133720 
-0.026408 -0.117397 
-0.022168 -0.125922 
-0.025073 -0.126266 
0.000000 0.000000 
-0.009928 -0.013711 
-0.006889 -0.012962 
-0.008166 -0.013161 
0.000000 0.000000 
-0.015853 -0.026663 
-0.019048 -0.039245 
-0.003626 -0.012920 
-0.004278 -0.012899 
0.000000 0.000000 
-0.011916 -0.038378 
-0.008301 -0.025708 
-0.010107 -0.038297 
0.000000 0.000000 
-0.005017 -0.012887 
-0.005871 -0.012897 
-0.019272 -0.074732 
-0.017527 -0.085575 
-0.020357 -0.051491 
-0.020309 -0.063346 
-0.014885 -0.062705 
-0.017462 -0.062980 
-0.014997 -0.050832 
-0.011407 -0.025853 
-0.013960 -0.038517 
-0.016307 -0.038770 
-0.000000 -0.013007 
-0.000378 -0.013007 
0.000000 0.000000 
-0.001059 -0.038108 
-0.000735 -0.025716 
-0.000000 -0.038100 
0.000000 0.000000 
-0.000763 -0.013005 
-0.001162 -0.012999 
-0.001885 -0.083858 
-0.001760 -0.073070 
-0.000000 -0.083822 
-0.004121 -0.050222 
-0.003183 -0.061868 
-0.004840 -0.061940 
-0.000000 -0.061801 
-0.001578 -0.061821 
-0.001343 -0.050154 
0.000000 0.000000 
-0.002514 -0.012961 
-0.003042 -0.012942 
-0.001582 -0.012990 
-0.002030 -0.012978 
0.000000 0.000000 
-0.005672 -0.038180 
-0.003939 -0.025713 
-0.004424 -0.038156 
-0.002137 -0.038120 
-0.003252 -0.038136 
-0.002257 -0.025718 
-0.001247 -0.142749 
-0.000000 -0.148202 
-0.005116 -0.129916 
-0.002980 -0.136671 
-0.000000 -0.136317 
-0.001477 -0.136408 
-0.001669 -0.129313 
-0.015300 -0.095812 
-0.012784 -0.105392 
-0.008142 -0.104563 
-0.010394 -0.104948 
-0.010355 -0.095023 
-0.010148 -0.114280 
-0.007547 -0.122456 
-0.000000 -0.103816 
-0.001962 -0.103870 
-0.001952 -0.094140 
-0.001816 -0.121499 
-0.001915 -0.113005 
-0.000000 -0.121427 
-0.005977 -0.094449 
-0.003953 -0.104016 
-0.006004 -0.104249 
-0.005562 -0.122023 
-0.005862 -0.113455 
-0.003661 -0.121700 
-0.005901 -0.025701 
-0.007178 -0.050344 
-0.007018 -0.038209 
-0.008487 -0.038245 
-0.010720 -0.050527 
-0.003800 -0.083952 
-0.007837 -0.084301 
-0.005775 -0.084100 
-0.005394 -0.073248 
-0.006577 -0.062038 
-0.014836 -0.085189 
-0.012543 -0.062487 
-0.013919 -0.074062 
-0.012341 -0.084848 
-0.010017 -0.084551 
-0.008420 -0.062160 
-0.009371 -0.073580 
-0.010399 -0.062309 
0.000000 0.000000 
0.000378 -0.013007 
0.001162 -0.012999 
0.000763 -0.013005 
0.000000 0.000000 
0.000735 -0.025716 
0.001059 -0.038108 
0.003042 -0.012942 
0.002514 -0.012961 
0.000000 0.000000 
0.004424 -0.038156 
0.003939 -0.025713 
0.005672 -0.038180 
0.000000 0.000000 
0.002030 -0.012978 
0.001582 -0.012990 
0.001760 -0.073070 
0.001885 -0.083858 
0.001343 -0.050154 
0.001578 -0.061821 
0.004840 -0.061940 
0.003183 -0.061868 
0.004121 -0.050222 
0.002257 -0.025718 
0.003252 -0.038136 
0.002137 -0.038120 
0.012844 -0.015447 
0.009928 -0.013711 
0.000000 0.000000 
0.019048 -0.039245 
0.015853 -0.026663 
0.022312 -0.040147 
0.000000 0.000000 
0.008166 -0.013161 
0.006889 -0.012962 
0.017527 -0.085575 
0.019272 -0.074732 
0.020432 -0.086011 
0.014997 -0.050832 
0.017462 -0.062980 
0.014885 -0.062705 
0.023465 -0.063856 
0.020309 -0.063346 
0.020357 -0.051491 
0.000000 0.000000 
0.004278 -0.012899 
0.003626 -0.012920 
0.005871 -0.012897 
0.005017 -0.012887 
0.000000 0.000000 
0.010107 -0.038297 
0.008301 -0.025708 
0.011916 -0.038378 
0.016307 -0.038770 
0.013960 -0.038517 
0.011407 -0.025853 
0.001247 -0.142749 
0.000983 -0.148300 
0.001669 -0.129313 
0.001477 -0.136408 
0.004538 -0.137095 
0.002980 -0.136671 
0.005116 -0.129916 
0.001952 -0.094140 
0.001962 -0.103870 
0.006004 -0.104249 
0.003953 -0.104016 
0.005977 -0.094449 
0.001915 -0.113005 
0.001816 -0.121499 
0.015330 -0.105881 
0.012784 -0.105392 
0.015300 -0.095812 
0.007547 -0.122456 
0.010148 -0.114280 
0.009638 -0.122980 
0.010355 -0.095023 
0.010394 -0.104948 
0.008142 -0.104563 
0.003661 -0.121700 
0.005862 -0.113455 
0.005562 -0.122023 
0.005901 -0.025701 
0.010720 -0.050527 
0.008487 -0.038245 
0.007018 -0.038209 
0.007178 -0.050344 
0.014836 -0.085189 
0.010017 -0.084551 
0.012341 -0.084848 
0.013919 -0.074062 
0.012543 -0.062487 
0.003800 -0.083952 
0.006577 -0.062038 
0.005394 -0.073248 
0.005775 -0.084100 
0.007837 -0.084301 
0.010399 -0.062309 
0.009371 -0.073580 
0.008420 -0.062160 
0.018482 -0.022312 
0.023427 -0.030962 
0.035801 -0.057557 
0.030790 -0.044934 
0.035473 -0.049800 
0.026234 -0.041856 
0.027269 -0.053216 
0.041548 -0.099210 
0.041694 -0.089829 
0.045197 -0.090185 
0.034202 -0.088428 
0.037981 -0.089171 
0.034461 -0.098789 
0.043030 -0.071384 
0.040928 -0.079830 
0.039052 -0.069120 
0.023564 -0.086505 
0.020972 -0.096757 
0.026957 -0.064590 
0.025633 -0.075741 
0.027420 -0.097798 
0.026923 -0.087069 
0.030486 -0.087712 
0.034874 -0.067154 
0.033032 -0.077392 
0.030783 -0.065654 
0.021411 -0.157563 
0.025010 -0.151623 
0.027293 -0.148519 
0.020393 -0.155054 
0.022697 -0.153753 
0.017097 -0.161072 
0.034151 -0.136017 
0.028432 -0.145344 
0.031619 -0.138701 
0.011888 -0.154713 
0.013853 -0.155382 
0.009420 -0.160408 
0.023726 -0.142124 
0.018662 -0.149250 
0.021133 -0.142182 
0.013028 -0.161662 
0.015941 -0.155740 
0.018130 -0.155672 
0.043774 -0.107019 
0.039102 -0.116371 
0.040643 -0.108041 
0.034507 -0.131674 
0.037027 -0.124239 
0.039841 -0.122231 
0.031082 -0.126158 
0.034090 -0.125493 
0.028914 -0.134146 
0.023503 -0.148573 
0.026365 -0.141611 
0.029010 -0.140516 
0.001984 -0.148632 
0.000676 -0.153024 
0.006178 -0.137664 
0.003843 -0.143528 
0.002161 -0.154038 
0.003046 -0.149185 
0.004196 -0.149928 
0.018046 -0.106399 
0.014956 -0.115355 
0.013147 -0.132392 
0.014216 -0.124201 
0.016723 -0.124833 
0.011856 -0.123572 
0.008887 -0.131013 
0.006406 -0.158237 
0.008380 -0.152841 
0.010061 -0.153835 
0.005457 -0.150821 
0.006848 -0.151812 
0.004013 -0.155916 
0.013934 -0.140680 