# vtk DataFile Version 2.0
Unstructured Grid Example
ASCII
DATASET UNSTRUCTURED_GRID

POINTS 16641 float
-0.000015 -0.215524 0.000000 
1.000015 -0.215524 0.000000 
1.000000 1.000000 0.000000 
0.000000 1.000000 0.000000 
0.500000 -0.099988 0.000000 
0.976418 0.345628 0.000000 
0.500000 1.000000 0.000000 
0.023582 0.345628 0.000000 
0.500000 0.347048 0.000000 
0.248533 -0.163227 0.000000 
0.500000 0.092005 0.000000 
0.239275 0.070614 0.000000 
0.751467 -0.163227 0.000000 
0.760725 0.070614 0.000000 
1.003883 0.056368 0.000000 
0.742159 0.340547 0.000000 
0.955068 0.651175 0.000000 
0.731915 0.653681 0.000000 
0.750000 1.000000 0.000000 
0.500000 0.655854 0.000000 
0.250000 1.000000 0.000000 
0.268085 0.653681 0.000000 
0.044932 0.651175 0.000000 
0.257841 0.340547 0.000000 
-0.003883 0.056368 0.000000 
0.126494 -0.203669 0.000000 
0.235706 -0.049576 0.000000 
0.113575 -0.075072 0.000000 
0.500000 -0.012118 0.000000 
0.365317 -0.022564 0.000000 
0.367881 -0.117445 0.000000 
0.372782 0.208445 0.000000 
0.367787 0.085747 0.000000 
0.500000 0.212018 0.000000 
0.632119 -0.117445 0.000000 
0.634683 -0.022564 0.000000 
0.886425 -0.075072 0.000000 
0.764294 -0.049576 0.000000 
0.873506 -0.203669 0.000000 
0.632213 0.085747 0.000000 
0.627218 0.208445 0.000000 
1.007206 -0.083972 0.000000 
0.883993 0.057062 0.000000 
0.859985 0.338286 0.000000 
0.873150 0.194204 0.000000 
0.991647 0.199618 0.000000 
0.751943 0.200225 0.000000 
0.621962 0.345043 0.000000 
0.962787 0.495698 0.000000 
0.848887 0.490414 0.000000 
0.851296 0.822804 0.000000 
0.844041 0.651627 0.000000 
0.959758 0.813935 0.000000 
0.734490 0.491850 0.000000 
0.618043 0.494530 0.000000 
0.875000 1.000000 0.000000 
0.737201 0.824317 0.000000 
0.500000 0.824831 0.000000 
0.619379 0.824704 0.000000 
0.625000 1.000000 0.000000 
0.616872 0.655251 0.000000 
0.500000 0.495715 0.000000 
0.375000 1.000000 0.000000 
0.380621 0.824704 0.000000 
0.148704 0.822804 0.000000 
0.262799 0.824317 0.000000 
0.125000 1.000000 0.000000 
0.383128 0.655251 0.000000 
0.381957 0.494530 0.000000 
0.040242 0.813935 0.000000 
0.155959 0.651627 0.000000 
0.140015 0.338286 0.000000 
0.151113 0.490414 0.000000 
0.037213 0.495698 0.000000 
0.265510 0.491850 0.000000 
0.378038 0.345043 0.000000 
0.008353 0.199618 0.000000 
0.126850 0.194204 0.000000 
0.116007 0.057062 0.000000 
-0.007206 -0.083972 0.000000 
0.248057 0.200225 0.000000 
0.062729 -0.210870 0.000000 
0.117931 -0.140097 0.000000 
0.056984 -0.147201 0.000000 
0.238420 -0.106891 0.000000 
0.177916 -0.126882 0.000000 
0.190215 -0.190124 0.000000 
0.174231 -0.001243 0.000000 
0.173990 -0.064196 0.000000 
0.236476 0.009475 0.000000 
0.500000 -0.058160 0.000000 
0.432482 -0.061570 0.000000 
0.432903 -0.104491 0.000000 
0.432739 0.035840 0.000000 
0.432319 -0.014791 0.000000 
0.500000 0.037937 0.000000 
0.306329 -0.137499 0.000000 
0.366006 -0.071480 0.000000 
0.301239 -0.087039 0.000000 
0.437595 0.277042 0.000000 
0.436217 0.211085 0.000000 
0.500000 0.277743 0.000000 
0.302881 0.078769 0.000000 
0.370136 0.145316 0.000000 
0.306204 0.140104 0.000000 
0.500000 0.150061 0.000000 
0.434858 0.148826 0.000000 
0.433646 0.090384 0.000000 
0.299590 -0.034680 0.000000 
0.366045 0.029789 0.000000 
0.300466 0.020528 0.000000 
0.567097 -0.104491 0.000000 
0.567518 -0.061570 0.000000 
0.698761 -0.087039 0.000000 
0.633994 -0.071480 0.000000 
0.693671 -0.137499 0.000000 
0.567681 -0.014791 0.000000 
0.567261 0.035840 0.000000 
0.943016 -0.147201 0.000000 
0.882069 -0.140097 0.000000 
0.937271 -0.210870 0.000000 
0.763524 0.009475 0.000000 
0.826010 -0.064196 0.000000 
0.825769 -0.001243 0.000000 
0.809785 -0.190124 0.000000 
0.822084 -0.126882 0.000000 
0.761580 -0.106891 0.000000 
0.563783 0.211085 0.000000 
0.562405 0.277042 0.000000 
0.566354 0.090384 0.000000 
0.565142 0.148826 0.000000 
0.693796 0.140104 0.000000 
0.629864 0.145316 0.000000 
0.697119 0.078769 0.000000 
0.700410 -0.034680 0.000000 
0.699534 0.020528 0.000000 
0.633955 0.029789 0.000000 
1.004352 -0.151399 0.000000 
0.946786 -0.081294 0.000000 
0.944260 0.054550 0.000000 
0.947094 -0.013941 0.000000 
1.007032 -0.014356 0.000000 
0.886727 -0.009451 0.000000 
0.822937 0.062844 0.000000 
0.918263 0.340202 0.000000 
0.925484 0.266830 0.000000 
0.984091 0.272191 0.000000 
0.807105 0.266396 0.000000 
0.866559 0.265301 0.000000 
0.801342 0.338735 0.000000 
0.998483 0.127717 0.000000 
0.932648 0.194850 0.000000 
0.939153 0.124127 0.000000 
0.624516 0.275057 0.000000 
0.561107 0.346543 0.000000 
0.756679 0.134132 0.000000 
0.690004 0.204571 0.000000 
0.682357 0.342877 0.000000 
0.686092 0.272173 0.000000 
0.746971 0.269013 0.000000 
0.879191 0.124854 0.000000 
0.812968 0.196395 0.000000 
0.818437 0.128611 0.000000 
0.969146 0.420059 0.000000 
0.911512 0.415113 0.000000 
0.901462 0.570213 0.000000 
0.905730 0.491722 0.000000 
0.957876 0.572681 0.000000 
0.853933 0.413282 0.000000 
0.796127 0.413490 0.000000 
0.918238 0.909479 0.000000 
0.905960 0.819982 0.000000 
0.971130 0.900060 0.000000 
0.788338 0.652675 0.000000 
0.845691 0.735979 0.000000 
0.790108 0.737272 0.000000 
0.955246 0.731427 0.000000 
0.900411 0.733908 0.000000 
0.899381 0.650826 0.000000 
0.619743 0.418260 0.000000 
0.559985 0.419405 0.000000 
0.737878 0.414836 0.000000 
0.679079 0.416608 0.000000 
0.674997 0.572649 0.000000 
0.676535 0.493254 0.000000 
0.732374 0.571513 0.000000 
0.845377 0.569813 0.000000 
0.789125 0.570449 0.000000 
0.791898 0.490717 0.000000 
0.937500 1.000000 0.000000 
0.861511 0.911372 0.000000 
0.742935 0.911791 0.000000 
0.802707 0.911738 0.000000 
0.812500 1.000000 0.000000 
0.794907 0.823873 0.000000 
0.733464 0.738091 0.000000 
0.500000 0.911773 0.000000 
0.561012 0.911772 0.000000 
0.562500 1.000000 0.000000 
0.558941 0.739327 0.000000 
0.559782 0.824797 0.000000 
0.500000 0.739417 0.000000 
0.687500 1.000000 0.000000 
0.621918 0.911775 0.000000 
0.682604 0.911784 0.000000 
0.559134 0.495404 0.000000 
0.500000 0.419810 0.000000 
0.674722 0.654559 0.000000 
0.617035 0.573622 0.000000 
0.500000 0.574503 0.000000 
0.558634 0.574273 0.000000 
0.558556 0.655697 0.000000 
0.678593 0.824552 0.000000 
0.617652 0.739072 0.000000 
0.675904 0.738663 0.000000 
0.437500 1.000000 0.000000 
0.438988 0.911772 0.000000 
0.317396 0.911784 0.000000 
0.378082 0.911775 0.000000 
0.312500 1.000000 0.000000 
0.440218 0.824797 0.000000 
0.441059 0.739327 0.000000 
0.081762 0.909479 0.000000 
0.138489 0.911372 0.000000 
0.062500 1.000000 0.000000 
0.266536 0.738091 0.000000 
0.205093 0.823873 0.000000 
0.209892 0.737272 0.000000 
0.187500 1.000000 0.000000 
0.197293 0.911738 0.000000 
0.257065 0.911791 0.000000 
0.440866 0.495404 0.000000 
0.440015 0.419405 0.000000 
0.441444 0.655697 0.000000 
0.441366 0.574273 0.000000 
0.325003 0.572649 0.000000 
0.382965 0.573622 0.000000 
0.325278 0.654559 0.000000 
0.321407 0.824552 0.000000 
0.324096 0.738663 0.000000 
0.382348 0.739072 0.000000 
0.028870 0.900060 0.000000 
0.094040 0.819982 0.000000 
0.100619 0.650826 0.000000 
0.099589 0.733908 0.000000 
0.044754 0.731427 0.000000 
0.154309 0.735979 0.000000 
0.211662 0.652675 0.000000 
0.081737 0.340202 0.000000 
0.088488 0.415113 0.000000 
0.030854 0.420059 0.000000 
0.203873 0.413490 0.000000 
0.146067 0.413282 0.000000 
0.198658 0.338735 0.000000 
0.042124 0.572681 0.000000 
0.094270 0.491722 0.000000 
0.098538 0.570213 0.000000 
0.380257 0.418260 0.000000 
0.438893 0.346543 0.000000 
0.267626 0.571513 0.000000 
0.323465 0.493254 0.000000 
0.317643 0.342877 0.000000 
0.320921 0.416608 0.000000 
0.262122 0.414836 0.000000 
0.154623 0.569813 0.000000 
0.208102 0.490717 0.000000 
0.210875 0.570449 0.000000 
0.015909 0.272191 0.000000 
0.074516 0.266830 0.000000 
0.060847 0.124127 0.000000 
0.067352 0.194850 0.000000 
0.001517 0.127717 0.000000 
0.133441 0.265301 0.000000 
0.192895 0.266396 0.000000 
0.053214 -0.081294 0.000000 
-0.004352 -0.151399 0.000000 
0.177063 0.062844 0.000000 
0.113273 -0.009451 0.000000 
-0.007032 -0.014356 0.000000 
0.052906 -0.013941 0.000000 
0.055740 0.054550 0.000000 
0.375484 0.275057 0.000000 
0.253029 0.269013 0.000000 
0.313908 0.272173 0.000000 
0.309996 0.204571 0.000000 
0.243321 0.134132 0.000000 
0.120809 0.124854 0.000000 
0.181563 0.128611 0.000000 
0.187032 0.196395 0.000000 
0.031236 -0.213303 0.000000 
0.059824 -0.179382 0.000000 
0.028774 -0.181738 0.000000 
0.121807 -0.172218 0.000000 
0.090874 -0.176356 0.000000 
0.094512 -0.207798 0.000000 
0.085018 -0.111622 0.000000 
0.087557 -0.144218 0.000000 
0.115189 -0.107663 0.000000 
0.242115 -0.135037 0.000000 
0.212156 -0.147546 0.000000 
0.220479 -0.178124 0.000000 
0.205604 -0.087335 0.000000 
0.207891 -0.117400 0.000000 
0.236479 -0.078426 0.000000 
0.158502 -0.198011 0.000000 
0.182533 -0.158486 0.000000 
0.152437 -0.166479 0.000000 
0.206349 0.035024 0.000000 
0.205149 0.003925 0.000000 
0.237679 0.039763 0.000000 
0.143716 -0.070232 0.000000 
0.173713 -0.032816 0.000000 
0.143248 -0.038072 0.000000 
0.235772 -0.020290 0.000000 
0.204516 -0.026781 0.000000 
0.204596 -0.057169 0.000000 
0.148036 -0.134440 0.000000 
0.175276 -0.095502 0.000000 
0.145229 -0.102334 0.000000 
0.500000 -0.079635 0.000000 
0.466258 -0.080615 0.000000 
0.466314 -0.101123 0.000000 
0.466113 -0.036402 0.000000 
0.466171 -0.059018 0.000000 
0.500000 -0.035643 0.000000 
0.400022 -0.109985 0.000000 
0.432711 -0.083527 0.000000 
0.399535 -0.088293 0.000000 
0.466538 0.064003 0.000000 
0.466334 0.037408 0.000000 
0.500000 0.064469 0.000000 
0.398694 -0.018074 0.000000 
0.432457 0.010038 0.000000 
0.398878 0.007131 0.000000 
0.500000 0.012409 0.000000 
0.466190 0.011811 0.000000 
0.466116 -0.012791 0.000000 
0.276999 -0.149721 0.000000 
0.303369 -0.112381 0.000000 
0.272510 -0.123158 0.000000 
0.366871 -0.094790 0.000000 
0.334807 -0.102873 0.000000 
0.336624 -0.126682 0.000000 
0.332540 -0.053755 0.000000 
0.333388 -0.078622 0.000000 
0.365470 -0.047429 0.000000 
0.432333 -0.038658 0.000000 
0.398757 -0.042360 0.000000 
0.399060 -0.065756 0.000000 
[...]
POINT_DATA 16641

SCALARS u_h float 2
LOOKUP_TABLE default
-0.000015 -0.215524 
0.000015 -0.215524 
0.000000 0.000000 
0.000000 0.000000 
0.000000 -0.099988 
-0.023582 -0.154372 
0.000000 0.000000 
0.023582 -0.154372 
0.000000 -0.152952 
-0.001467 -0.163227 
0.000000 -0.157995 
-0.010725 -0.179386 
0.001467 -0.163227 
0.010725 -0.179386 
0.003883 -0.193632 
-0.007841 -0.159453 
-0.044932 -0.098825 
-0.018085 -0.096319 
0.000000 0.000000 
0.000000 -0.094146 
0.000000 0.000000 
0.018085 -0.096319 
0.044932 -0.098825 
0.007841 -0.159453 
-0.003883 -0.193632 
0.001494 -0.203669 
-0.014294 -0.174576 
-0.011425 -0.200072 
0.000000 -0.137118 
-0.009683 -0.147564 
-0.007119 -0.117445 
-0.002218 -0.166555 
-0.007213 -0.164253 
0.000000 -0.162982 
0.007119 -0.117445 
0.009683 -0.147564 
0.011425 -0.200072 
0.014294 -0.174576 
-0.001494 -0.203669 
0.007213 -0.164253 
0.002218 -0.166555 
0.007206 -0.208972 
0.008993 -0.192938 
-0.015015 -0.161714 
-0.001850 -0.180796 
-0.008353 -0.175382 
0.001943 -0.174775 
-0.003038 -0.154957 
-0.037213 -0.129302 
-0.026113 -0.134586 
-0.023704 -0.052196 
-0.030959 -0.098373 
-0.040242 -0.061065 
-0.015510 -0.133150 
-0.006957 -0.130470 
0.000000 0.000000 
-0.012799 -0.050683 
0.000000 -0.050169 
-0.005621 -0.050296 
0.000000 0.000000 
-0.008128 -0.094749 
0.000000 -0.129285 
0.000000 0.000000 
0.005621 -0.050296 
0.023704 -0.052196 
0.012799 -0.050683 
0.000000 0.000000 
0.008128 -0.094749 
0.006957 -0.130470 
0.040242 -0.061065 
0.030959 -0.098373 
0.015015 -0.161714 
0.026113 -0.134586 
0.037213 -0.129302 
0.015510 -0.133150 
0.003038 -0.154957 
0.008353 -0.175382 
0.001850 -0.180796 
-0.008993 -0.192938 
-0.007206 -0.208972 
-0.001943 -0.174775 
0.000229 -0.210870 
-0.007069 -0.202597 
-0.005516 -0.209701 
-0.011580 -0.169391 
-0.009584 -0.189382 
0.002715 -0.190124 
-0.013269 -0.188743 
-0.013510 -0.189196 
-0.013524 -0.178025 
0.000000 -0.120660 
-0.005018 -0.124070 
-0.004597 -0.104491 
-0.004761 -0.151660 
-0.005181 -0.139791 
0.000000 -0.149563 
-0.006171 -0.137499 
-0.008994 -0.133980 
-0.011261 -0.149539 
0.000095 -0.160458 
-0.001283 -0.163915 
0.000000 -0.159757 
-0.009619 -0.171231 
-0.004864 -0.167184 
-0.006296 -0.172396 
0.000000 -0.162439 
-0.002642 -0.163674 
-0.003854 -0.159616 
-0.012910 -0.159680 
-0.008955 -0.157711 
-0.012034 -0.166972 
0.004597 -0.104491 
0.005018 -0.124070 
0.011261 -0.149539 
0.008994 -0.133980 
0.006171 -0.137499 
0.005181 -0.139791 
0.004761 -0.151660 
0.005516 -0.209701 
0.007069 -0.202597 
-0.000229 -0.210870 
0.013524 -0.178025 
0.013510 -0.189196 
0.013269 -0.188743 
-0.002715 -0.190124 
0.009584 -0.189382 
0.011580 -0.169391 
0.001283 -0.163915 
-0.000095 -0.160458 
0.003854 -0.159616 
0.002642 -0.163674 
0.006296 -0.172396 
0.004864 -0.167184 
0.009619 -0.171231 
0.012910 -0.159680 
0.012034 -0.166972 
0.008955 -0.157711 
0.004352 -0.213899 
0.009286 -0.206294 
0.006760 -0.195450 
0.009594 -0.201441 
0.007032 -0.201856 
0.011727 -0.196951 
0.010437 -0.187156 
-0.019237 -0.159798 
-0.012016 -0.170670 
-0.015909 -0.165309 
-0.005395 -0.171104 
-0.008441 -0.172199 
-0.011158 -0.161265 
-0.001517 -0.184783 
-0.004852 -0.180150 
0.001653 -0.188373 
-0.000484 -0.162443 
-0.001393 -0.153457 
0.006679 -0.178368 
0.002504 -0.170429 
-0.005143 -0.157123 
-0.001408 -0.165327 
-0.003029 -0.168487 
0.004191 -0.187646 
0.000468 -0.178605 
0.005937 -0.183889 
-0.030854 -0.142441 
-0.025988 -0.147387 
-0.036038 -0.117287 
-0.031770 -0.133278 
-0.042124 -0.114819 
-0.021067 -0.149218 
-0.016373 -0.149010 
-0.019262 -0.028021 
-0.031540 -0.055018 
-0.028870 -0.037440 
-0.024162 -0.097325 
-0.029309 -0.076521 
-0.022392 -0.075228 
-0.044754 -0.081073 
-0.037089 -0.078592 
-0.038119 -0.099174 
-0.005257 -0.144240 
-0.002515 -0.143095 
-0.012122 -0.147664 
-0.008421 -0.145892 
-0.012503 -0.114851 
-0.010965 -0.131746 
-0.017626 -0.115987 
-0.029623 -0.117687 
-0.023375 -0.117051 
-0.020602 -0.134283 
0.000000 0.000000 
-0.013489 -0.026128 
-0.007065 -0.025709 
-0.009793 -0.025762 
0.000000 0.000000 
-0.017593 -0.051127 
-0.016536 -0.074409 
0.000000 -0.025727 
-0.001488 -0.025728 
0.000000 0.000000 
-0.003559 -0.073173 
-0.002718 -0.050203 
0.000000 -0.073083 
0.000000 0.000000 
-0.003082 -0.025725 
-0.004896 -0.025716 
-0.003366 -0.129596 
0.000000 -0.142690 
-0.012778 -0.095441 
-0.007965 -0.113878 
0.000000 -0.112997 
-0.003866 -0.113227 
-0.003944 -0.094303 
-0.008907 -0.050448 
-0.007348 -0.073428 
-0.011596 -0.073837 
0.000000 0.000000 
0.001488 -0.025728 
0.004896 -0.025716 
0.003082 -0.025725 
0.000000 0.000000 
0.002718 -0.050203 
0.003559 -0.073173 
0.019262 -0.028021 
0.013489 -0.026128 
0.000000 0.000000 
0.016536 -0.074409 
0.017593 -0.051127 
0.022392 -0.075228 
0.000000 0.000000 
0.009793 -0.025762 
0.007065 -0.025709 
0.003366 -0.129596 
0.002515 -0.143095 
0.003944 -0.094303 
0.003866 -0.113227 
0.012503 -0.114851 
0.007965 -0.113878 
0.012778 -0.095441 
0.008907 -0.050448 
0.011596 -0.073837 
0.007348 -0.073428 
0.028870 -0.037440 
0.031540 -0.055018 
0.038119 -0.099174 
0.037089 -0.078592 
0.044754 -0.081073 
0.029309 -0.076521 
0.024162 -0.097325 
0.019237 -0.159798 
0.025988 -0.147387 
0.030854 -0.142441 
0.016373 -0.149010 
0.021067 -0.149218 
0.011158 -0.161265 
0.042124 -0.114819 
0.031770 -0.133278 
0.036038 -0.117287 
0.005257 -0.144240 
0.001393 -0.153457 
0.017626 -0.115987 
0.010965 -0.131746 
0.005143 -0.157123 
0.008421 -0.145892 
0.012122 -0.147664 
0.029623 -0.117687 
0.020602 -0.134283 
0.023375 -0.117051 
0.015909 -0.165309 
0.012016 -0.170670 
-0.001653 -0.188373 
0.004852 -0.180150 
0.001517 -0.184783 
0.008441 -0.172199 
0.005395 -0.171104 
-0.009286 -0.206294 
-0.004352 -0.213899 
-0.010437 -0.187156 
-0.011727 -0.196951 
-0.007032 -0.201856 
-0.009594 -0.201441 
-0.006760 -0.195450 
0.000484 -0.162443 
0.003029 -0.168487 
0.001408 -0.165327 
-0.002504 -0.170429 
-0.006679 -0.178368 
-0.004191 -0.187646 
-0.005937 -0.183889 
-0.000468 -0.178605 
-0.000014 -0.213303 
-0.002676 -0.210632 
-0.002476 -0.212988 
-0.003193 -0.203468 
-0.002876 -0.207606 
0.000762 -0.207798 
-0.008732 -0.205372 
-0.006193 -0.206718 
-0.009811 -0.201413 
-0.007885 -0.166287 
-0.006594 -0.178796 
0.001729 -0.178124 
-0.013146 -0.181085 
-0.010859 -0.179900 
-0.013521 -0.172176 
0.002252 -0.198011 
-0.004967 -0.189736 
-0.003813 -0.197729 
-0.012401 -0.183726 
-0.013601 -0.183575 
-0.012321 -0.178987 
-0.012534 -0.195232 
-0.013787 -0.189066 
-0.013002 -0.194322 
-0.014228 -0.176540 
-0.014234 -0.183031 
-0.014154 -0.182169 
-0.008214 -0.196940 
-0.012224 -0.189252 
-0.011021 -0.196084 
0.000000 -0.110885 
-0.002492 -0.111865 
-0.002436 -0.101123 
-0.002637 -0.130152 
-0.002579 -0.121518 
0.000000 -0.129393 
-0.006228 -0.109985 
-0.004789 -0.114777 
-0.006715 -0.119543 
-0.002212 -0.154747 
-0.002416 -0.150092 
0.000000 -0.154281 
-0.007556 -0.143074 
-0.005043 -0.146212 
-0.007372 -0.149119 
0.000000 -0.143841 
-0.002560 -0.144439 
-0.002634 -0.137791 
-0.004251 -0.149721 
-0.009131 -0.143631 
-0.008740 -0.154408 
-0.008129 -0.126040 
-0.008943 -0.134123 
-0.007126 -0.126682 
-0.011210 -0.147505 
-0.010362 -0.141122 
-0.009530 -0.141179 
-0.005167 -0.132408 
-0.007493 -0.136110 
-0.007190 -0.128256 
0.000361 -0.156935 
0.000028 -0.159934 
0.000000 -0.156785 
-0.001815 -0.165044 
-0.000590 -0.162640 
-0.000783 -0.163619 
0.000000 -0.161830 
-0.000316 -0.162035 
-0.000664 -0.163217 
-0.010348 -0.175253 
-0.008040 -0.172203 
-0.008587 -0.175658 
-0.006093 -0.166168 
-0.007198 -0.168992 
-0.008561 -0.167511 
-0.004105 -0.169423 
-0.005698 -0.169628 
-0.003562 -0.167310 
0.000000 -0.160712 
-0.001667 -0.161070 
-0.001958 -0.158404 
-0.001011 -0.163462 
-0.001348 -0.162751 
0.000000 -0.163191 
-0.005625 -0.161588 
-0.003275 -0.162128 
-0.004768 -0.163849 
-0.002837 -0.165566 
-0.003830 -0.165172 
-0.001972 -0.164265 
-0.011679 -0.159057 
-0.011491 -0.153151 
-0.012479 -0.154939 
-0.013275 -0.163275 
-0.013868 -0.166930 
-0.004357 -0.156128 
-0.008183 -0.161435 
-0.006369 -0.158381 
-0.006964 -0.154224 
-0.009475 -0.153084 
-0.011845 -0.174159 
-0.013717 -0.169977 
-0.013000 -0.172394 
-0.010973 -0.169485 
-0.009737 -0.165184 
-0.011280 -0.157996 
-0.010667 -0.162011 
-0.012716 -0.163699 
0.002436 -0.101123 
0.002492 -0.111865 
0.006715 -0.119543 
0.004789 -0.114777 
0.006228 -0.109985 
0.002579 -0.121518 
0.002637 -0.130152 
0.008740 -0.154408 
0.009131 -0.143631 
0.004251 -0.149721 
0.009530 -0.141179 
0.010362 -0.141122 
0.011210 -0.147505 
0.007126 -0.126682 
0.008943 -0.134123 
0.008129 -0.126040 
0.002416 -0.150092 
0.002212 -0.154747 
0.002634 -0.137791 
0.002560 -0.144439 
0.007372 -0.149119 
0.005043 -0.146212 
0.007556 -0.143074 
0.007190 -0.128256 
0.007493 -0.136110 
0.005167 -0.132408 
0.002476 -0.212988 
0.002676 -0.210632 
0.000014 -0.213303 
0.009811 -0.201413 
0.006193 -0.206718 
0.008732 -0.205372 
-0.000762 -0.207798 
0.002876 -0.207606 
0.003193 -0.203468 
0.012321 -0.178987 
0.013601 -0.183575 
0.012401 -0.183726 
0.014154 -0.182169 
0.014234 -0.183031 
0.014228 -0.176540 
0.013002 -0.194322 
0.013787 -0.189066 
0.012534 -0.195232 
-0.001729 -0.178124 
0.006594 -0.178796 
0.007885 -0.166287 
0.003813 -0.197729 
0.004967 -0.189736 
-0.002252 -0.198011 
0.013521 -0.172176 
0.010859 -0.179900 
0.013146 -0.181085 
0.011021 -0.196084 
0.012224 -0.189252 
0.008214 -0.196940 
-0.000028 -0.159934 
-0.000361 -0.156935 
0.000664 -0.163217 
0.000316 -0.162035 
0.000783 -0.163619 
0.000590 -0.162640 
0.001815 -0.165044 
0.001958 -0.158404 
0.001667 -0.161070 
0.004768 -0.163849 
0.003275 -0.162128 
0.005625 -0.161588 
0.001348 -0.162751 
0.001011 -0.163462 
0.008587 -0.175658 
0.008040 -0.172203 
0.010348 -0.175253 
0.003562 -0.167310 
0.005698 -0.169628 
0.004105 -0.169423 
0.008561 -0.167511 
0.007198 -0.168992 
0.006093 -0.166168 
0.001972 -0.164265 
0.003830 -0.165172 
0.002837 -0.165566 
0.011679 -0.159057 
0.013868 -0.166930 
0.013275 -0.163275 
0.012479 -0.154939 
0.011491 -0.153151 
0.011845 -0.174159 
0.009737 -0.165184 
0.010973 -0.169485 
0.013000 -0.172394 
0.013717 -0.169977 
0.004357 -0.156128 
0.009475 -0.153084 
0.006964 -0.154224 
0.006369 -0.158381 
0.008183 -0.161435 
0.012716 -0.163699 
0.010667 -0.162011 
0.011280 -0.157996 
0.002212 -0.215134 
0.004940 -0.211947 
0.008285 -0.207978 
0.006970 -0.210242 
0.006107 -0.211797 
0.007804 -0.208215 
0.010324 -0.203718 
0.005408 -0.195156 
0.007241 -0.198792 
0.005790 -0.197840 
0.009665 -0.197316 
0.008519 -0.198581 
0.007957 -0.194669 
0.007520 -0.205606 
0.008392 -0.202175 
0.008761 -0.205259 
0.012112 -0.188131 
0.010747 -0.183424 
0.012020 -0.198597 
0.012611 -0.193265 
0.009836 -0.190386 
0.011514 -0.191977 
0.010676 -0.195083 
0.009876 -0.204020 
0.010704 -0.199692 
0.010959 -0.201822 
-0.021412 -0.157602 
-0.017697 -0.163225 
-0.019765 -0.159963 
-0.013665 -0.166692 
-0.015653 -0.165417 
-0.017095 -0.161120 
-0.012081 -0.170440 
-0.013938 -0.168547 
-0.010199 -0.173589 
-0.006815 -0.165520 
-0.008317 -0.166483 
-0.009425 -0.160473 
-0.005114 -0.176725 
-0.006841 -0.171908 
-0.003693 -0.176201 
-0.013028 -0.161719 
-0.009972 -0.167086 
-0.011763 -0.167201 
0.001412 -0.189275 
0.000141 -0.187206 
0.003004 -0.191290 
-0.006553 -0.178368 
-0.003077 -0.182902 
-0.004803 -0.180157 
-0.000016 -0.184865 
-0.001475 -0.184411 
-0.003276 -0.180905 
-0.010174 -0.171836 
-0.006688 -0.176568 
-0.008392 -0.175576 
-0.000760 -0.157390 
-0.000680 -0.153061 
0.000861 -0.164928 
-0.000236 -0.161308 
-0.002170 -0.154100 
-0.001227 -0.158128 
-0.001791 -0.159114 
0.008819 -0.179189 
0.006628 -0.175358 
0.002337 -0.172600 
0.004527 -0.174342 
0.004367 -0.176903 
0.004435 -0.171805 
0.002457 -0.168379 
-0.006414 -0.158306 
-0.004312 -0.162978 
-0.005478 -0.164315 
-0.002481 -0.160295 
-0.003316 -0.161609 
-0.004023 -0.155984 
-0.000540 -0.171972 
-0.002126 -0.166920 
0.000105 -0.170127 
0.000789 -0.166504 
0.000544 -0.168268 
-0.000867 -0.163806 
0.004433 -0.192050 
0.001279 -0.184429 
0.003008 -0.188466 
0.005701 -0.191727 
0.006795 -0.190472 
-0.004121 -0.169922 
0.001318 -0.176822 
-0.001392 -0.173686 
-0.002447 -0.175141 
-0.000594 -0.179979 
0.008735 -0.182617 
0.007690 -0.188431 
0.008349 -0.185757 
0.006445 -0.181267 
0.003950 -0.179343 
0.002387 -0.183260 
0.003285 -0.181514 
0.005176 -0.186068 
-0.027302 -0.148551 
-0.025016 -0.151660 
-0.031643 -0.138730 
-0.028447 -0.145376 
-0.034179 -0.136030 
-0.022703 -0.153794 
-0.020398 -0.155102 
-0.040705 -0.108067 
-0.039154 -0.116396 
-0.043839 -0.107023 
-0.028945 -0.134193 
-0.034131 -0.125530 
-0.031121 -0.126205 
-0.039887 -0.122238 
-0.037070 -0.124263 
-0.034541 -0.131700 
-0.013861 -0.155444 
-0.011897 -0.154777 
-0.018136 -0.155725 
-0.015948 -0.155797 
-0.021153 -0.142240 
-0.018676 -0.149308 
-0.023747 -0.142177 
-0.029032 -0.140555 
-0.026386 -0.141658 
-0.023516 -0.148621 
-0.013108 -0.015566 
-0.023668 -0.031077 
-0.018740 -0.022792 
-0.027402 -0.053278 
-0.026408 -0.041931 
-0.022458 -0.040205 
-0.035667 -0.049871 
-0.030981 -0.045031 
-0.035952 -0.057631 
-0.021025 -0.096810 
-0.023632 -0.086558 
-0.020492 -0.086061 
-0.030566 -0.087768 
-0.026997 -0.087124 
-0.027484 -0.097854 
-0.023557 -0.063906 
-0.025717 -0.075795 
-0.027062 -0.064646 
-0.045286 -0.090191 
-0.041780 -0.089863 
-0.041621 -0.099238 
-0.039175 -0.069175 
-0.041030 -0.079873 
-0.043155 -0.071402 
-0.034531 -0.098840 
-0.038066 -0.089220 
-0.034286 -0.088482 
-0.030899 -0.065715 
-0.033130 -0.077450 
-0.034996 -0.067217 
-0.001983 -0.148683 
-0.000978 -0.148338 
-0.004202 -0.149992 
-0.003049 -0.149244 
-0.004540 -0.137151 
-0.003844 -0.143586 
-0.006183 -0.137723 
-0.010070 -0.153901 
-0.008390 -0.152908 
-0.011806 -0.139970 
-0.010201 -0.146793 
-0.013951 -0.140744 
-0.006857 -0.151880 
-0.005465 -0.150887 
-0.015365 -0.105933 
-0.014986 -0.115411 
-0.018087 -0.106453 
-0.008899 -0.131072 
-0.011876 -0.123629 
-0.009654 -0.123036 
-0.016751 -0.124893 
-0.014240 -0.124260 
-0.013166 -0.132454 
-0.006777 -0.145023 
-0.009802 -0.139174 
-0.007931 -0.138410 
-0.037402 -0.108514 
-0.030609 -0.108341 
-0.034009 -0.108558 
-0.032839 -0.117669 
-0.028097 -0.126429 
-0.020984 -0.106982 
-0.019409 -0.125484 
-0.020426 -0.116546 
-0.024052 -0.107496 
-0.027272 -0.107964 
-0.014183 -0.148430 
-0.023319 -0.134581 
-0.018639 -0.141958 
-0.016232 -0.141431 
-0.017992 -0.133781 
-0.026453 -0.117453 
-0.022202 -0.125981 
-0.025109 -0.126322 
0.000000 0.000000 
-0.010063 -0.013743 
-0.006944 -0.012971 
-0.008247 -0.013174 
0.000000 0.000000 
-0.015989 -0.026705 
-0.019163 -0.039288 
-0.003642 -0.012924 
-0.004299 -0.012904 
0.000000 0.000000 
-0.011971 -0.038399 
-0.008341 -0.025720 
-0.010150 -0.038315 
0.000000 0.000000 
-0.005046 -0.012892 
-0.005910 -0.012903 
-0.019337 -0.074777 
-0.017579 -0.085622 
-0.020453 -0.051535 
-0.020388 -0.063390 
-0.014940 -0.062740 
-0.017528 -0.063019 
-0.015061 -0.050863 
-0.011477 -0.025872 
-0.014030 -0.038543 
-0.016396 -0.038804 
0.000000 -0.013013 
-0.000380 -0.013013 
0.000000 0.000000 
-0.001063 -0.038125 
-0.000737 -0.025728 
0.000000 -0.038121 
0.000000 0.000000 
-0.000766 -0.013009 
-0.001167 -0.013003 
-0.001890 -0.083900 
-0.001765 -0.073107 
0.000000 -0.083868 
-0.004135 -0.050242 
-0.003193 -0.061896 
-0.004856 -0.061967 
0.000000 -0.061836 
-0.001583 -0.061852 
-0.001347 -0.050178 
0.000000 0.000000 
-0.002523 -0.012965 
-0.003055 -0.012946 
-0.001588 -0.012994 
-0.002038 -0.012981 
0.000000 0.000000 
-0.005692 -0.038194 
-0.003954 -0.025721 
-0.004439 -0.038170 
-0.002145 -0.038135 
-0.003264 -0.038150 
-0.002265 -0.025727 
-0.001244 -0.142792 
0.000000 -0.148224 
-0.005121 -0.129970 
-0.002980 -0.136722 
0.000000 -0.136366 
-0.001476 -0.136456 
-0.001669 -0.129364 
-0.015340 -0.095860 
-0.012813 -0.105442 
-0.008160 -0.104610 
-0.010418 -0.104996 
-0.010382 -0.095068 
-0.010168 -0.114333 
-0.007558 -0.122510 
0.000000 -0.103871 
-0.001966 -0.103920 
-0.001957 -0.094186 
-0.001818 -0.121551 
-0.001918 -0.113056 
0.000000 -0.121483 
-0.005992 -0.094492 
-0.003961 -0.104063 
-0.006017 -0.104296 
-0.005569 -0.122076 
-0.005873 -0.113505 
-0.003665 -0.121752 
-0.005925 -0.025710 
-0.007203 -0.050364 
-0.007044 -0.038224 
-0.008520 -0.038262 
-0.010761 -0.050551 
-0.003811 -0.083991 
-0.007859 -0.084339 
-0.005790 -0.084138 
-0.005411 -0.073281 
-0.006598 -0.062064 
-0.014880 -0.085233 
-0.012587 -0.062518 
-0.013965 -0.074100 
-0.012377 -0.084889 
-0.010045 -0.084591 
-0.008448 -0.062187 
-0.009400 -0.073613 
-0.010434 -0.062338 
0.000000 0.000000 
0.000380 -0.013013 
0.001167 -0.013003 
0.000766 -0.013009 
0.000000 0.000000 
0.000737 -0.025728 
0.001063 -0.038125 
0.003055 -0.012946 
0.002523 -0.012965 
0.000000 0.000000 
0.004439 -0.038170 
0.003954 -0.025721 
0.005692 -0.038194 
0.000000 0.000000 
0.002038 -0.012981 
0.001588 -0.012994 
0.001765 -0.073107 
0.001890 -0.083900 
0.001347 -0.050178 
0.001583 -0.061852 
0.004856 -0.061967 
0.003193 -0.061896 
0.004135 -0.050242 
0.002265 -0.025727 
0.003264 -0.038150 
0.002145 -0.038135 
0.013108 -0.015566 
0.010063 -0.013743 
0.000000 0.000000 
0.019163 -0.039288 
0.015989 -0.026705 
0.022458 -0.040205 
0.000000 0.000000 
0.008247 -0.013174 
0.006944 -0.012971 
0.017579 -0.085622 
0.019337 -0.074777 
0.020492 -0.086061 
0.015061 -0.050863 
0.017528 -0.063019 
0.014940 -0.062740 
0.023557 -0.063906 
0.020388 -0.063390 
0.020453 -0.051535 
0.000000 0.000000 
0.004299 -0.012904 
0.003642 -0.012924 
0.005910 -0.012903 
0.005046 -0.012892 
0.000000 0.000000 
0.010150 -0.038315 
0.008341 -0.025720 
0.011971 -0.038399 
0.016396 -0.038804 
0.014030 -0.038543 
0.011477 -0.025872 
0.001244 -0.142792 
0.000978 -0.148338 
0.001669 -0.129364 
0.001476 -0.136456 
0.004540 -0.137151 
0.002980 -0.136722 
0.005121 -0.129970 
0.001957 -0.094186 
0.001966 -0.103920 
0.006017 -0.104296 
0.003961 -0.104063 
0.005992 -0.094492 
0.001918 -0.113056 
0.001818 -0.121551 
0.015365 -0.105933 
0.012813 -0.105442 
0.015340 -0.095860 
0.007558 -0.122510 
0.010168 -0.114333 
0.009654 -0.123036 
0.010382 -0.095068 
0.010418 -0.104996 
0.008160 -0.104610 
0.003665 -0.121752 
0.005873 -0.113505 
0.005569 -0.122076 
0.005925 -0.025710 
0.010761 -0.050551 
0.008520 -0.038262 
0.007044 -0.038224 
0.007203 -0.050364 
0.014880 -0.085233 
0.010045 -0.084591 
0.012377 -0.084889 
0.013965 -0.074100 
0.012587 -0.062518 
0.003811 -0.083991 
0.006598 -0.062064 
0.005411 -0.073281 
0.005790 -0.084138 
0.007859 -0.084339 
0.010434 -0.062338 
0.009400 -0.073613 
0.008448 -0.062187 
0.018740 -0.022792 
0.023668 -0.031077 
0.035952 -0.057631 
0.030981 -0.045031 
0.035667 -0.049871 
0.026408 -0.041931 
0.027402 -0.053278 
0.041621 -0.099238 
0.041780 -0.089863 
0.045286 -0.090191 
0.034286 -0.088482 
0.038066 -0.089220 
0.034531 -0.098840 
0.043155 -0.071402 
0.041030 -0.079873 
0.039175 -0.069175 
0.023632 -0.086558 
0.021025 -0.096810 
0.027062 -0.064646 
0.025717 -0.075795 
0.027484 -0.097854 
0.026997 -0.087124 
0.030566 -0.087768 
0.034996 -0.067217 
0.033130 -0.077450 
0.030899 -0.065715 
0.021412 -0.157602 
0.025016 -0.151660 
0.027302 -0.148551 
0.020398 -0.155102 
0.022703 -0.153794 
0.017095 -0.161120 
0.034179 -0.136030 
0.028447 -0.145376 
0.031643 -0.138730 
0.011897 -0.154777 
0.013861 -0.155444 
0.009425 -0.160473 
0.023747 -0.142177 
0.018676 -0.149308 
0.021153 -0.142240 
0.013028 -0.161719 
0.015948 -0.155797 
0.018136 -0.155725 
0.043839 -0.107023 
0.039154 -0.116396 
0.040705 -0.108067 
0.034541 -0.131700 
0.037070 -0.124263 
0.039887 -0.122238 
0.031121 -0.126205 
0.034131 -0.125530 
0.028945 -0.134193 
0.023516 -0.148621 
0.026386 -0.141658 
0.029032 -0.140555 
0.001983 -0.148683 
0.000680 -0.153061 
0.006183 -0.137723 
0.003844 -0.143586 
0.002170 -0.154100 
0.003049 -0.149244 
0.004202 -0.149992 
0.018087 -0.106453 
0.014986 -0.115411 
0.013166 -0.132454 
0.014240 -0.124260 
0.016751 -0.124893 
0.011876 -0.123629 
0.008899 -0.131072 
0.006414 -0.158306 
0.008390 -0.152908 
0.010070 -0.153901 
0.005465 -0.150887 
0.006857 -0.151880 
0.004023 -0.155984 
0.013951 -0.140744 
0.010201 -0.146793 