# vtk DataFile Version 2.0
Unstructured Grid Example
ASCII
DATASET UNSTRUCTURED_GRID

POINTS 64 float
0.000000 0.000000 0.000000 
0.031250 0.000000 0.000000 
0.031250 0.000000 0.000000 
0.062500 0.000000 0.000000 
0.062500 0.000000 0.000000 
0.093750 0.000000 0.000000 
0.093750 0.000000 0.000000 
0.125000 0.000000 0.000000 
0.187500 0.000000 0.000000 
0.218750 0.000000 0.000000 
0.218750 0.845478 0.000000 
0.250000 -1.690956 0.000000 
0.125000 0.000000 0.000000 
0.156250 0.000000 0.000000 
0.156250 0.000000 0.000000 
0.187500 0.000000 0.000000 
0.437500 -10.285407 0.000000 
0.468750 0.618203 0.000000 
0.468750 -5.590767 0.000000 
0.500000 2.132533 0.000000 
0.375000 -4.070875 0.000000 
0.406250 -6.788393 0.000000 
0.406250 -5.114238 0.000000 
0.437500 -7.419186 0.000000 
0.250000 1.237748 0.000000 
0.281250 -5.011929 0.000000 
0.281250 -1.889615 0.000000 
0.312500 -5.006879 0.000000 
0.312500 -3.282537 0.000000 
0.343750 -5.338299 0.000000 
0.343750 -4.329376 0.000000 
0.375000 -5.300384 0.000000 
0.500000 2.132533 0.000000 
0.531250 -5.590767 0.000000 
0.531250 0.618203 0.000000 
0.562500 -10.285407 0.000000 
0.562500 -7.419186 0.000000 
0.593750 -5.114238 0.000000 
0.593750 -6.788393 0.000000 
0.625000 -4.070875 0.000000 
0.687500 -5.006879 0.000000 
0.718750 -1.889615 0.000000 
0.718750 -5.011929 0.000000 
0.750000 1.237748 0.000000 
0.625000 -5.300384 0.000000 
0.656250 -4.329376 0.000000 
0.656250 -5.338299 0.000000 
0.687500 -3.282537 0.000000 
0.937500 0.000000 0.000000 
0.968750 0.000000 0.000000 
0.968750 0.000000 0.000000 
1.000000 0.000000 0.000000 
0.875000 0.000000 0.000000 
0.906250 0.000000 0.000000 
0.906250 0.000000 0.000000 
0.937500 0.000000 0.000000 
0.750000 -1.690956 0.000000 
0.781250 0.845478 0.000000 
0.781250 0.000000 0.000000 
0.812500 0.000000 0.000000 
0.812500 0.000000 0.000000 
0.843750 0.000000 0.000000 
0.843750 0.000000 0.000000 
0.875000 0.000000 0.000000 

CELLS 32 96
2  0 1 
2  2 3 
2  4 5 
2  6 7 
2  8 9 
2  10 11 
2  12 13 
2  14 15 
2  16 17 
2  18 19 
2  20 21 
2  22 23 
2  24 25 
2  26 27 
2  28 29 
2  30 31 
2  32 33 
2  34 35 
2  36 37 
2  38 39 
2  40 41 
2  42 43 
2  44 45 
2  46 47 
2  48 49 
2  50 51 
2  52 53 
2  54 55 
2  56 57 
2  58 59 
2  60 61 
2  62 63 

CELL_TYPES 32
3
3
3
3
3
3
3
3
3
3
3
3
3
3
3
3
3
3
3
3
3
3
3
3
3
3
3
3
3
3
3
3

POINT_DATA 64

SCALARS lambda_h float 1
LOOKUP_TABLE default
0.000000 
0.000000 
0.000000 
0.000000 
0.000000 
0.000000 
0.000000 
0.000000 
0.000000 
0.000000 
0.845478 
-1.690956 
0.000000 
0.000000 
0.000000 
0.000000 
-10.285407 
0.618203 
-5.590767 
2.132533 
-4.070875 
-6.788393 
-5.114238 
-7.419186 
1.237748 
-5.011929 
-1.889615 
-5.006879 
-3.282537 
-5.338299 
-4.329376 
-5.300384 
2.132533 
-5.590767 
0.618203 
-10.285407 
-7.419186 
-5.114238 
-6.788393 
-4.070875 
-5.006879 
-1.889615 
-5.011929 
1.237748 
-5.300384 
-4.329376 
-5.338299 
-3.282537 
0.000000 
0.000000 
0.000000 
0.000000 
0.000000 
0.000000 
0.000000 
0.000000 
-1.690956 
0.845478 
0.000000 
0.000000 
0.000000 
0.000000 
0.000000 
0.000000 

