# vtk DataFile Version 2.0
Unstructured Grid Example
ASCII
DATASET UNSTRUCTURED_GRID

POINTS 32 float
0.000000 0.000000 0.000000 
0.062500 0.000000 0.000000 
0.062500 0.000000 0.000000 
0.125000 0.000000 0.000000 
0.125000 0.000000 0.000000 
0.187500 0.000000 0.000000 
0.187500 0.908187 0.000000 
0.250000 -1.816374 0.000000 
0.375000 -4.585961 0.000000 
0.437500 -5.639181 0.000000 
0.437500 -5.550488 0.000000 
0.500000 -4.763347 0.000000 
0.250000 1.993064 0.000000 
0.312500 -6.710689 0.000000 
0.312500 -2.681841 0.000000 
0.375000 -6.064631 0.000000 
0.500000 -4.763347 0.000000 
0.562500 -5.550488 0.000000 
0.562500 -5.639181 0.000000 
0.625000 -4.585961 0.000000 
0.625000 -6.064631 0.000000 
0.687500 -2.681841 0.000000 
0.687500 -6.710689 0.000000 
0.750000 1.993064 0.000000 
0.875000 0.000000 0.000000 
0.937500 0.000000 0.000000 
0.937500 0.000000 0.000000 
1.000000 0.000000 0.000000 
0.750000 -1.816374 0.000000 
0.812500 0.908187 0.000000 
0.812500 0.000000 0.000000 
0.875000 0.000000 0.000000 

CELLS 16 48
2  0 1 
2  2 3 
2  4 5 
2  6 7 
2  8 9 
2  10 11 
2  12 13 
2  14 15 
2  16 17 
2  18 19 
2  20 21 
2  22 23 
2  24 25 
2  26 27 
2  28 29 
2  30 31 

CELL_TYPES 16
3
3
3
3
3
3
3
3
3
3
3
3
3
3
3
3

POINT_DATA 32

SCALARS lambda_h float 1
LOOKUP_TABLE default
0.000000 
0.000000 
0.000000 
0.000000 
0.000000 
0.000000 
0.908187 
-1.816374 
-4.585961 
-5.639181 
-5.550488 
-4.763347 
1.993064 
-6.710689 
-2.681841 
-6.064631 
-4.763347 
-5.550488 
-5.639181 
-4.585961 
-6.064631 
-2.681841 
-6.710689 
1.993064 
0.000000 
0.000000 
0.000000 
0.000000 
-1.816374 
0.908187 
0.000000 
0.000000 

