# vtk DataFile Version 2.0
Unstructured Grid Example
ASCII
DATASET UNSTRUCTURED_GRID

POINTS 25 float
0.003935 -0.178988 0.000000 
0.996065 -0.178988 0.000000 
1.000000 1.000000 0.000000 
0.000000 1.000000 0.000000 
0.500000 -0.089356 0.000000 
0.971444 0.375967 0.000000 
0.500000 1.000000 0.000000 
0.028556 0.375967 0.000000 
0.500000 0.375344 0.000000 
0.247267 -0.153614 0.000000 
0.500000 0.109203 0.000000 
0.251501 0.093645 0.000000 
0.752733 -0.153614 0.000000 
0.748499 0.093645 0.000000 
0.987981 0.088236 0.000000 
0.737948 0.374012 0.000000 
0.966232 0.675021 0.000000 
0.737995 0.679734 0.000000 
0.750000 1.000000 0.000000 
0.500000 0.680806 0.000000 
0.250000 1.000000 0.000000 
0.262005 0.679734 0.000000 
0.033768 0.675021 0.000000 
0.262052 0.374012 0.000000 
0.012019 0.088236 0.000000 

CELLS 32 128
3  0 9 11 
3  4 10 9 
3  8 11 10 
3  9 10 11 
3  4 12 10 
3  1 13 12 
3  8 10 13 
3  12 13 10 
3  1 14 13 
3  5 15 14 
3  8 13 15 
3  14 15 13 
3  5 16 15 
3  2 17 16 
3  8 15 17 
3  16 17 15 
3  2 18 17 
3  6 19 18 
3  8 17 19 
3  18 19 17 
3  6 20 19 
3  3 21 20 
3  8 19 21 
3  20 21 19 
3  3 22 21 
3  7 23 22 
3  8 21 23 
3  22 23 21 
3  7 24 23 
3  0 11 24 
3  8 23 11 
3  24 11 23 

CELL_TYPES 32
5
5
5
5
5
5
5
5
5
5
5
5
5
5
5
5
5
5
5
5
5
5
5
5
5
5
5
5
5
5
5
5

POINT_DATA 25

SCALARS u_h float 2
LOOKUP_TABLE default
0.003935 -0.178988 
-0.003935 -0.178988 
0.000000 0.000000 
0.000000 0.000000 
-0.000000 -0.089356 
-0.028556 -0.124033 
0.000000 0.000000 
0.028556 -0.124033 
-0.000000 -0.124656 
-0.002733 -0.153614 
-0.000000 -0.140797 
0.001501 -0.156355 
0.002733 -0.153614 
-0.001501 -0.156355 
-0.012019 -0.161764 
-0.012052 -0.125988 
-0.033768 -0.074979 
-0.012005 -0.070266 
0.000000 0.000000 
-0.000000 -0.069194 
0.000000 0.000000 
0.012005 -0.070266 
0.033768 -0.074979 
0.012052 -0.125988 
0.012019 -0.161764 

CELL_DATA 32

SCALARS epsilon float 4
LOOKUP_TABLE default
-0.028658 -0.007232 0.000000 0.059966
0.010872 -0.174276 0.000000 0.161793
-0.006023 0.064215 0.000000 0.029227
-0.006947 -0.010088 0.000000 0.039977
0.010872 -0.174276 0.000000 -0.161793
-0.028658 -0.007232 0.000000 -0.059966
-0.006023 0.064215 0.000000 -0.029227
-0.006947 -0.010088 0.000000 -0.039977
-0.043138 0.066074 0.000000 -0.026912
-0.065815 0.140230 0.000000 -0.031418
-0.048794 0.113981 0.000000 -0.024278
-0.043031 0.113539 0.000000 -0.031401
-0.067865 0.177650 0.000000 -0.007608
-0.082231 0.259490 0.000000 0.062791
-0.049365 0.198885 0.000000 -0.002077
-0.090802 0.199019 0.000000 -0.007539
0.000703 0.243466 0.000000 0.022854
0.000000 0.240273 0.000000 0.000000
-0.049170 0.198060 0.000000 -0.001750
-0.048226 0.243633 0.000000 0.022336
0.000000 0.240273 0.000000 0.000000
0.000703 0.243466 0.000000 -0.022854
-0.049170 0.198060 0.000000 0.001750
-0.048226 0.243633 0.000000 -0.022336
-0.082231 0.259490 0.000000 -0.062791
-0.067865 0.177650 0.000000 0.007608
-0.049365 0.198885 0.000000 0.002077
-0.090802 0.199019 0.000000 0.007539
-0.065815 0.140230 0.000000 0.031418
-0.043138 0.066074 0.000000 0.026912
-0.048794 0.113981 0.000000 0.024278
-0.043031 0.113539 0.000000 0.031401

SCALARS sigma float 4
LOOKUP_TABLE default
-0.700774 -0.454012 -0.358898 0.904253
-0.622049 -3.328346 -1.634032 1.244052
0.508409 1.734217 0.581922 0.572576
-0.240715 -0.320395 -0.170350 0.629669
-0.622049 -3.328346 -1.634032 -1.244052
-0.700774 -0.454012 -0.358898 -0.904253
0.508409 1.734217 0.581922 -0.572576
-0.240715 -0.320395 -0.170350 -0.629669
-0.447437 1.410718 0.229360 -0.449424
-0.315433 3.476038 0.744151 -0.456973
-0.138819 2.809496 0.651869 -0.390491
0.009774 2.863469 0.705079 -0.543650
-0.014949 4.672106 1.097848 -0.087905
0.368233 7.545932 1.772585 0.838442
0.651042 5.623914 1.495197 -0.054094
-0.366086 5.138208 1.082172 -0.185249
2.453209 7.860308 2.441687 0.374808
2.402732 7.718274 2.402732 0.000000
0.648193 5.597181 1.488898 -0.044714
1.103399 7.270196 1.954066 0.326989
2.402732 7.718274 2.402732 0.000000
2.453209 7.860308 2.441687 -0.374808
0.648193 5.597181 1.488898 0.044714
1.103399 7.270196 1.954066 -0.326989
0.368233 7.545932 1.772585 -0.838442
-0.014949 4.672106 1.097848 0.087905
0.651042 5.623914 1.495197 0.054094
-0.366086 5.138208 1.082172 0.185249
-0.315433 3.476038 0.744151 0.456973
-0.447437 1.410718 0.229360 0.449424
-0.138819 2.809496 0.651869 0.390491
0.009774 2.863469 0.705079 0.543650

