# vtk DataFile Version 2.0
Unstructured Grid Example
ASCII
DATASET UNSTRUCTURED_GRID

POINTS 9 float
0.026638 -0.190024 0.000000 
0.973362 -0.190024 0.000000 
1.000000 1.000000 0.000000 
0.000000 1.000000 0.000000 
0.500000 -0.062773 0.000000 
0.967032 0.375200 0.000000 
0.500000 1.000000 0.000000 
0.032968 0.375200 0.000000 
0.500000 0.388511 0.000000 

CELLS 8 32
3  0 4 8 
3  4 1 8 
3  1 5 8 
3  5 2 8 
3  2 6 8 
3  6 3 8 
3  3 7 8 
3  7 0 8 

CELL_TYPES 8
5
5
5
5
5
5
5
5

POINT_DATA 9

SCALARS u_h float 2
LOOKUP_TABLE default
0.026638 -0.190024 
-0.026638 -0.190024 
0.000000 0.000000 
0.000000 0.000000 
0.000000 -0.062773 
-0.032968 -0.124800 
0.000000 0.000000 
0.032968 -0.124800 
0.000000 -0.111489 

CELL_DATA 8

SCALARS epsilon float 4
LOOKUP_TABLE default
-0.054691 -0.057769 0.000000 0.140541
-0.054691 -0.057769 0.000000 -0.140541
-0.068346 0.122056 0.000000 -0.018403
-0.065014 0.221395 0.000000 0.023269
0.000000 0.198945 0.000000 -0.000000
0.000000 0.198945 0.000000 -0.000000
-0.065014 0.221395 0.000000 -0.023269
-0.068346 0.122056 0.000000 0.018403

SCALARS sigma float 4
LOOKUP_TABLE default
-1.221272 -1.848325 -1.124594 1.558039
-1.221272 -1.848325 -1.124594 -1.558039
-0.534746 2.834679 0.537100 -0.344429
0.454573 6.260058 1.563811 0.236987
1.989453 6.209751 1.989453 -0.000000
1.989453 6.209751 1.989453 -0.000000
0.454573 6.260058 1.563811 -0.236987
-0.534746 2.834679 0.537100 0.344429

