# vtk DataFile Version 2.0
Unstructured Grid Example
ASCII
DATASET UNSTRUCTURED_GRID

POINTS 1089 float
0.003239 -0.183619 0.000000 
0.996761 -0.183619 0.000000 
1.000000 1.000000 0.000000 
0.000000 1.000000 0.000000 
0.500000 -0.099823 0.000000 
0.967931 0.371126 0.000000 
0.500000 1.000000 0.000000 
0.032069 0.371126 0.000000 
0.500000 0.372085 0.000000 
0.250889 -0.161929 0.000000 
0.500000 0.096294 0.000000 
0.251547 0.087462 0.000000 
0.749111 -0.161929 0.000000 
0.748453 0.087462 0.000000 
0.987831 0.085089 0.000000 
0.736676 0.368888 0.000000 
0.960222 0.671868 0.000000 
0.735645 0.676818 0.000000 
0.750000 1.000000 0.000000 
0.500000 0.677865 0.000000 
0.250000 1.000000 0.000000 
0.264355 0.676818 0.000000 
0.039778 0.671868 0.000000 
0.263324 0.368888 0.000000 
0.012169 0.085089 0.000000 
0.128629 -0.181677 0.000000 
0.245980 -0.040913 0.000000 
0.125747 -0.052651 0.000000 
0.500000 -0.027467 0.000000 
0.371390 -0.025770 0.000000 
0.366791 -0.117498 0.000000 
0.378332 0.228135 0.000000 
0.374967 0.094393 0.000000 
0.500000 0.229606 0.000000 
0.633209 -0.117498 0.000000 
0.628610 -0.025770 0.000000 
0.874253 -0.052651 0.000000 
0.754020 -0.040913 0.000000 
0.871371 -0.181677 0.000000 
0.625033 0.094393 0.000000 
0.621668 0.228135 0.000000 
0.995181 -0.052655 0.000000 
0.868765 0.081926 0.000000 
0.852574 0.367313 0.000000 
0.860325 0.221814 0.000000 
0.977538 0.226385 0.000000 
0.741998 0.224324 0.000000 
0.619001 0.371276 0.000000 
0.961285 0.519326 0.000000 
0.848133 0.518437 0.000000 
0.858788 0.836743 0.000000 
0.849336 0.675129 0.000000 
0.968401 0.829621 0.000000 
0.734137 0.520116 0.000000 
0.617813 0.521672 0.000000 
0.875000 1.000000 0.000000 
0.741514 0.837369 0.000000 
0.500000 0.837465 0.000000 
0.621282 0.837431 0.000000 
0.625000 1.000000 0.000000 
0.618621 0.677588 0.000000 
0.500000 0.522267 0.000000 
0.375000 1.000000 0.000000 
0.378718 0.837431 0.000000 
0.141212 0.836743 0.000000 
0.258486 0.837369 0.000000 
0.125000 1.000000 0.000000 
0.381379 0.677588 0.000000 
0.382187 0.521672 0.000000 
0.031599 0.829621 0.000000 
0.150664 0.675129 0.000000 
0.147426 0.367313 0.000000 
0.151867 0.518437 0.000000 
0.038715 0.519326 0.000000 
0.265863 0.520116 0.000000 
0.380999 0.371276 0.000000 
0.022462 0.226385 0.000000 
0.139675 0.221814 0.000000 
0.131235 0.081926 0.000000 
0.004819 -0.052655 0.000000 
0.258002 0.224324 0.000000 
0.065676 -0.183466 0.000000 
0.125859 -0.118070 0.000000 
0.064775 -0.119713 0.000000 
0.245233 -0.102139 0.000000 
0.186072 -0.112787 0.000000 
0.191289 -0.175922 0.000000 
0.187890 0.017100 0.000000 
0.185786 -0.048369 0.000000 
0.248465 0.022201 0.000000 
0.500000 -0.088260 0.000000 
0.434189 -0.075887 0.000000 
0.434819 -0.104038 0.000000 
0.436908 0.033733 0.000000 
0.436405 -0.024456 0.000000 
0.500000 0.033474 0.000000 
0.304975 -0.137843 0.000000 
0.368543 -0.077521 0.000000 
0.305467 -0.087939 0.000000 
0.439809 0.299571 0.000000 
0.439091 0.229245 0.000000 
0.500000 0.299835 0.000000 
0.312826 0.091331 0.000000 
0.376686 0.159916 0.000000 
0.315435 0.157627 0.000000 
0.500000 0.161684 0.000000 
0.438305 0.161268 0.000000 
0.437539 0.095950 0.000000 
0.307645 -0.032193 0.000000 
0.373243 0.032147 0.000000 
0.310200 0.027867 0.000000 
0.565181 -0.104038 0.000000 
0.565811 -0.075887 0.000000 
0.694533 -0.087939 0.000000 
0.631457 -0.077521 0.000000 
0.695025 -0.137843 0.000000 
0.563595 -0.024456 0.000000 
0.563092 0.033733 0.000000 
0.935225 -0.119713 0.000000 
0.874141 -0.118070 0.000000 
0.934324 -0.183466 0.000000 
0.751535 0.022201 0.000000 
0.814214 -0.048369 0.000000 
0.812110 0.017100 0.000000 
0.808711 -0.175922 0.000000 
0.813928 -0.112787 0.000000 
0.754767 -0.102139 0.000000 
0.560909 0.229245 0.000000 
0.560191 0.299571 0.000000 
0.562461 0.095950 0.000000 
0.561695 0.161268 0.000000 
0.684565 0.157627 0.000000 
0.623314 0.159916 0.000000 
0.687174 0.091331 0.000000 
0.692355 -0.032193 0.000000 
0.689800 0.027867 0.000000 
0.626757 0.032147 0.000000 
0.996615 -0.119355 0.000000 
0.934646 -0.053886 0.000000 
0.928413 0.082095 0.000000 
0.932219 0.013473 0.000000 
0.992140 0.015681 0.000000 
0.872191 0.014014 0.000000 
0.808875 0.083963 0.000000 
0.910190 0.368133 0.000000 
0.914362 0.294895 0.000000 
0.972460 0.298285 0.000000 
0.797836 0.294366 0.000000 
0.856201 0.293861 0.000000 
0.794809 0.367777 0.000000 
0.982798 0.155337 0.000000 
0.919013 0.222815 0.000000 
0.923835 0.151883 0.000000 
0.620196 0.298681 0.000000 
0.559591 0.371984 0.000000 
0.745190 0.154868 0.000000 
0.682086 0.226374 0.000000 
0.678068 0.370168 0.000000 
0.679873 0.297295 0.000000 
0.739093 0.295706 0.000000 
0.864642 0.151175 0.000000 
0.801373 0.222569 0.000000 
0.805158 0.152431 0.000000 
0.964042 0.444693 0.000000 
0.906839 0.442563 0.000000 
0.903788 0.595231 0.000000 
0.904600 0.518243 0.000000 
0.959891 0.595031 0.000000 
0.849805 0.442173 0.000000 
0.792600 0.442744 0.000000 
0.925229 0.917671 0.000000 
0.914729 0.834920 0.000000 
0.978622 0.911784 0.000000 
0.793000 0.676153 0.000000 
0.852902 0.755435 0.000000 
0.796116 0.756322 0.000000 
0.962790 0.749962 0.000000 
0.908188 0.753477 0.000000 
0.904800 0.673608 0.000000 
0.618172 0.445679 0.000000 
0.559165 0.446241 0.000000 
0.734970 0.443738 0.000000 
0.676816 0.444794 0.000000 
0.676443 0.598543 0.000000 
0.676246 0.520983 0.000000 
0.734329 0.597871 0.000000 
0.847864 0.596098 0.000000 
0.791472 0.597042 0.000000 
0.791408 0.519196 0.000000 
0.937500 1.000000 0.000000 
0.866611 0.918455 0.000000 
0.745620 0.918499 0.000000 
0.806434 0.918536 0.000000 
0.812500 1.000000 0.000000 
0.800735 0.837237 0.000000 
0.738087 0.756734 0.000000 
0.500000 0.918410 0.000000 
0.561571 0.918409 0.000000 
0.562500 1.000000 0.000000 
0.559961 0.757199 0.000000 
0.560702 0.837449 0.000000 
0.500000 0.757244 0.000000 
0.687500 1.000000 0.000000 
0.623079 0.918424 0.000000 
0.684457 0.918455 0.000000 
0.558997 0.522108 0.000000 
0.500000 0.446412 0.000000 
0.677441 0.677273 0.000000 
0.617961 0.599044 0.000000 
0.500000 0.599480 0.000000 
0.559079 0.599358 0.000000 
0.559406 0.677783 0.000000 
0.681609 0.837410 0.000000 
0.619755 0.757108 0.000000 
0.679204 0.756962 0.000000 
0.437500 1.000000 0.000000 
0.438429 0.918409 0.000000 
0.315543 0.918455 0.000000 
0.376921 0.918424 0.000000 
0.312500 1.000000 0.000000 
0.439298 0.837449 0.000000 
0.440039 0.757199 0.000000 
0.074771 0.917671 0.000000 
0.133389 0.918455 0.000000 
0.062500 1.000000 0.000000 
0.261913 0.756734 0.000000 
0.199265 0.837237 0.000000 
0.203884 0.756322 0.000000 
0.187500 1.000000 0.000000 
0.193566 0.918536 0.000000 
0.254380 0.918499 0.000000 
0.441003 0.522108 0.000000 
0.440835 0.446241 0.000000 
0.440594 0.677783 0.000000 
0.440921 0.599358 0.000000 
0.323557 0.598543 0.000000 
0.382039 0.599044 0.000000 
0.322559 0.677273 0.000000 
0.318391 0.837410 0.000000 
0.320796 0.756962 0.000000 
0.380245 0.757108 0.000000 
0.021378 0.911784 0.000000 
0.085271 0.834920 0.000000 
0.095200 0.673608 0.000000 
0.091812 0.753477 0.000000 
0.037210 0.749962 0.000000 
0.147098 0.755435 0.000000 
0.207000 0.676153 0.000000 
0.089810 0.368133 0.000000 
0.093161 0.442563 0.000000 
0.035958 0.444693 0.000000 
0.207400 0.442744 0.000000 
0.150195 0.442173 0.000000 
0.205191 0.367777 0.000000 
0.040109 0.595031 0.000000 
0.095400 0.518243 0.000000 
0.096212 0.595231 0.000000 
0.381828 0.445679 0.000000 
0.440409 0.371984 0.000000 
0.265671 0.597871 0.000000 
0.323754 0.520983 0.000000 
0.321932 0.370168 0.000000 
0.323184 0.444794 0.000000 
0.265030 0.443738 0.000000 
0.152136 0.596098 0.000000 
0.208592 0.519196 0.000000 
0.208528 0.597042 0.000000 
0.027540 0.298285 0.000000 
0.085638 0.294895 0.000000 
0.076165 0.151883 0.000000 
0.080987 0.222815 0.000000 
0.017202 0.155337 0.000000 
0.143799 0.293861 0.000000 
0.202164 0.294366 0.000000 
0.065354 -0.053886 0.000000 
0.003385 -0.119355 0.000000 
0.191125 0.083963 0.000000 
0.127809 0.014014 0.000000 
0.007860 0.015681 0.000000 
0.067781 0.013473 0.000000 
0.071587 0.082095 0.000000 
0.379804 0.298681 0.000000 
0.260907 0.295706 0.000000 
0.320127 0.297295 0.000000 
0.317914 0.226374 0.000000 
0.254810 0.154868 0.000000 
0.135358 0.151175 0.000000 
0.194842 0.152431 0.000000 
0.198627 0.222569 0.000000 
0.034389 -0.183571 0.000000 
0.065136 -0.151891 0.000000 
0.034151 -0.151942 0.000000 
0.126940 -0.150180 0.000000 
0.096089 -0.151389 0.000000 
0.097114 -0.182924 0.000000 
0.095219 -0.086625 0.000000 
0.095394 -0.119245 0.000000 
0.125480 -0.085529 0.000000 
0.246628 -0.132230 0.000000 
0.217586 -0.139565 0.000000 
0.221844 -0.170529 0.000000 
0.215343 -0.076729 0.000000 
0.215745 -0.108237 0.000000 
0.245247 -0.071729 0.000000 
0.160091 -0.179457 0.000000 
0.187855 -0.144612 0.000000 
0.157579 -0.148017 0.000000 
0.219591 0.052302 0.000000 
0.218073 0.019463 0.000000 
0.249964 0.054560 0.000000 
0.155799 -0.050921 0.000000 
0.186639 -0.015789 0.000000 
0.156598 -0.017977 0.000000 
0.247107 -0.009617 0.000000 
0.216769 -0.012954 0.000000 
0.215795 -0.044996 0.000000 
0.156105 -0.115987 0.000000 
0.185508 -0.080691 0.000000 
0.155575 -0.083594 0.000000 
0.500000 -0.067855 0.000000 
0.472312 -0.090575 0.000000 
0.470584 -0.100685 0.000000 
0.468501 -0.054727 0.000000 
0.467168 -0.082484 0.000000 
0.500000 -0.057846 0.000000 
0.400341 -0.109705 0.000000 
0.436272 -0.087562 0.000000 
0.400854 -0.093069 0.000000 
0.468663 0.064565 0.000000 
0.468576 0.033624 0.000000 
0.500000 0.064578 0.000000 
0.403843 -0.024290 0.000000 
0.436663 0.004029 0.000000 
0.404498 0.003831 0.000000 
0.500000 0.002869 0.000000 
0.468556 0.003400 0.000000 
0.468589 -0.026087 0.000000 
0.277494 -0.149376 0.000000 
0.305141 -0.113728 0.000000 
0.275379 -0.122680 0.000000 
0.367802 -0.100180 0.000000 
0.335924 -0.106325 0.000000 
0.334642 -0.127101 0.000000 
0.338040 -0.056038 0.000000 
0.336723 -0.082051 0.000000 
0.370197 -0.052543 0.000000 
0.435908 -0.051243 0.000000 
0.402867 -0.050619 0.000000 
0.400834 -0.074763 0.000000 
[...]
POINT_DATA 1089

SCALARS u_h float 2
LOOKUP_TABLE default
0.003239 -0.183619 
-0.003239 -0.183619 
0.000000 0.000000 
0.000000 0.000000 
-0.000000 -0.099823 
-0.032069 -0.128874 
0.000000 0.000000 
0.032069 -0.128874 
-0.000000 -0.127915 
0.000889 -0.161929 
-0.000000 -0.153706 
0.001547 -0.162538 
-0.000889 -0.161929 
-0.001547 -0.162538 
-0.012169 -0.164911 
-0.013324 -0.131112 
-0.039778 -0.078132 
-0.014355 -0.073182 
0.000000 0.000000 
-0.000000 -0.072135 
0.000000 0.000000 
0.014355 -0.073182 
0.039778 -0.078132 
0.013324 -0.131112 
0.012169 -0.164911 
0.003629 -0.181677 
-0.004020 -0.165913 
0.000747 -0.177651 
-0.000000 -0.152467 
-0.003610 -0.150770 
-0.008209 -0.117498 
0.003332 -0.146865 
-0.000033 -0.155607 
-0.000000 -0.145394 
0.008209 -0.117498 
0.003610 -0.150770 
-0.000747 -0.177651 
0.004020 -0.165913 
-0.003629 -0.181677 
0.000033 -0.155607 
-0.003332 -0.146865 
-0.004819 -0.177655 
-0.006235 -0.168074 
-0.022426 -0.132687 
-0.014675 -0.153186 
-0.022462 -0.148615 
-0.008002 -0.150676 
-0.005999 -0.128724 
-0.038715 -0.105674 
-0.026867 -0.106563 
-0.016212 -0.038257 
-0.025664 -0.074871 
-0.031599 -0.045379 
-0.015863 -0.104884 
-0.007187 -0.103328 
0.000000 0.000000 
-0.008486 -0.037631 
-0.000000 -0.037535 
-0.003718 -0.037569 
0.000000 0.000000 
-0.006379 -0.072412 
-0.000000 -0.102733 
0.000000 0.000000 
0.003718 -0.037569 
0.016212 -0.038257 
0.008486 -0.037631 
0.000000 0.000000 
0.006379 -0.072412 
0.007187 -0.103328 
0.031599 -0.045379 
0.025664 -0.074871 
0.022426 -0.132687 
0.026867 -0.106563 
0.038715 -0.105674 
0.015863 -0.104884 
0.005999 -0.128724 
0.022462 -0.148615 
0.014675 -0.153186 
0.006235 -0.168074 
0.004819 -0.177655 
0.008002 -0.150676 
0.003176 -0.183466 
0.000859 -0.180570 
0.002275 -0.182213 
-0.004767 -0.164639 
-0.001428 -0.175287 
0.003789 -0.175922 
0.000390 -0.170400 
-0.001714 -0.173369 
-0.001535 -0.165299 
-0.000000 -0.150760 
-0.003311 -0.138387 
-0.002681 -0.104038 
-0.000592 -0.153767 
-0.001095 -0.149456 
-0.000000 -0.154026 
-0.007525 -0.137843 
-0.006457 -0.140021 
-0.007033 -0.150439 
0.002309 -0.137929 
0.001591 -0.145755 
-0.000000 -0.137665 
0.000326 -0.158669 
0.001686 -0.152584 
0.002935 -0.154873 
-0.000000 -0.150816 
0.000805 -0.151232 
0.000039 -0.154050 
-0.004855 -0.157193 
-0.001757 -0.155353 
-0.002300 -0.159633 
0.002681 -0.104038 
0.003311 -0.138387 
0.007033 -0.150439 
0.006457 -0.140021 
0.007525 -0.137843 
0.001095 -0.149456 
0.000592 -0.153767 
-0.002275 -0.182213 
-0.000859 -0.180570 
-0.003176 -0.183466 
0.001535 -0.165299 
0.001714 -0.173369 
-0.000390 -0.170400 
-0.003789 -0.175922 
0.001428 -0.175287 
0.004767 -0.164639 
-0.001591 -0.145755 
-0.002309 -0.137929 
-0.000039 -0.154050 
-0.000805 -0.151232 
-0.002935 -0.154873 
-0.001686 -0.152584 
-0.000326 -0.158669 
0.004855 -0.157193 
0.002300 -0.159633 
0.001757 -0.155353 
-0.003385 -0.181855 
-0.002854 -0.178886 
-0.009087 -0.167905 
-0.005281 -0.174027 
-0.007860 -0.171819 
-0.002809 -0.173486 
-0.003625 -0.166037 
-0.027310 -0.131867 
-0.023138 -0.142605 
-0.027540 -0.139215 
-0.014664 -0.143134 
-0.018799 -0.143639 
-0.017691 -0.132223 
-0.017202 -0.157163 
-0.018487 -0.152185 
-0.013665 -0.160617 
-0.004804 -0.138819 
-0.002909 -0.128016 
-0.004810 -0.157632 
-0.005414 -0.148626 
-0.009432 -0.129832 
-0.007627 -0.140205 
-0.010907 -0.141794 
-0.010358 -0.161325 
-0.011127 -0.152431 
-0.007342 -0.160069 
-0.035958 -0.117807 
-0.030661 -0.119937 
-0.033712 -0.092269 
-0.032900 -0.106757 
-0.040109 -0.092469 
-0.025195 -0.120327 
-0.019900 -0.119756 
-0.012271 -0.019829 
-0.022771 -0.040080 
-0.021378 -0.025716 
-0.019500 -0.073847 
-0.022098 -0.057065 
-0.016384 -0.056178 
-0.037210 -0.062538 
-0.029312 -0.059023 
-0.032700 -0.076392 
-0.006828 -0.116821 
-0.003335 -0.116259 
-0.015030 -0.118762 
-0.010684 -0.117706 
-0.011057 -0.088957 
-0.011254 -0.104017 
-0.015671 -0.089629 
-0.027136 -0.091402 
-0.021028 -0.090458 
-0.021092 -0.105804 
0.000000 0.000000 
-0.008389 -0.019045 
-0.004380 -0.019001 
-0.006066 -0.018964 
0.000000 0.000000 
-0.011765 -0.037763 
-0.011913 -0.055766 
-0.000000 -0.019090 
-0.000929 -0.019091 
0.000000 0.000000 
-0.002539 -0.055301 
-0.001798 -0.037551 
-0.000000 -0.055256 
0.000000 0.000000 
-0.001921 -0.019076 
-0.003043 -0.019045 
-0.003503 -0.102892 
-0.000000 -0.116088 
-0.010059 -0.072727 
-0.007039 -0.088456 
-0.000000 -0.088020 
-0.003421 -0.088142 
-0.003094 -0.072217 
-0.005891 -0.037590 
-0.005245 -0.055392 
-0.008296 -0.055538 
0.000000 0.000000 
0.000929 -0.019091 
0.003043 -0.019045 
0.001921 -0.019076 
0.000000 0.000000 
0.001798 -0.037551 
0.002539 -0.055301 
0.012271 -0.019829 
0.008389 -0.019045 
0.000000 0.000000 
0.011913 -0.055766 
0.011765 -0.037763 
0.016384 -0.056178 
0.000000 0.000000 
0.006066 -0.018964 
0.004380 -0.019001 
0.003503 -0.102892 
0.003335 -0.116259 
0.003094 -0.072217 
0.003421 -0.088142 
0.011057 -0.088957 
0.007039 -0.088456 
0.010059 -0.072727 
0.005891 -0.037590 
0.008296 -0.055538 
0.005245 -0.055392 
0.021378 -0.025716 
0.022771 -0.040080 
0.032700 -0.076392 
0.029312 -0.059023 
0.037210 -0.062538 
0.022098 -0.057065 
0.019500 -0.073847 
0.027310 -0.131867 
0.030661 -0.119937 
0.035958 -0.117807 
0.019900 -0.119756 
0.025195 -0.120327 
0.017691 -0.132223 
0.040109 -0.092469 
0.032900 -0.106757 
0.033712 -0.092269 
0.006828 -0.116821 
0.002909 -0.128016 
0.015671 -0.089629 
0.011254 -0.104017 
0.009432 -0.129832 
0.010684 -0.117706 
0.015030 -0.118762 
0.027136 -0.091402 
0.021092 -0.105804 
0.021028 -0.090458 
0.027540 -0.139215 
0.023138 -0.142605 
0.013665 -0.160617 
0.018487 -0.152185 
0.017202 -0.157163 
0.018799 -0.143639 
0.014664 -0.143134 
0.002854 -0.178886 
0.003385 -0.181855 
0.003625 -0.166037 
0.002809 -0.173486 
0.007860 -0.171819 
0.005281 -0.174027 
0.009087 -0.167905 
0.004804 -0.138819 
0.010907 -0.141794 
0.007627 -0.140205 
0.005414 -0.148626 
0.004810 -0.157632 
0.010358 -0.161325 
0.007342 -0.160069 
0.011127 -0.152431 
0.003139 -0.183571 
0.002636 -0.183141 
0.002901 -0.183192 
0.001940 -0.181430 
0.002339 -0.182639 
0.003364 -0.182924 
0.001469 -0.180375 
0.001644 -0.181745 
0.000480 -0.179279 
-0.003372 -0.163480 
-0.001164 -0.170815 
0.003094 -0.170529 
-0.003407 -0.170479 
-0.003005 -0.170737 
-0.004753 -0.165479 
0.003841 -0.179457 
0.000355 -0.175862 
0.001329 -0.179267 
0.000841 -0.166448 
-0.000677 -0.168037 
-0.000036 -0.164190 
-0.000451 -0.175921 
-0.000861 -0.172039 
0.000348 -0.174227 
-0.002893 -0.165867 
-0.001981 -0.169204 
-0.002955 -0.169996 
-0.000145 -0.178487 
-0.001992 -0.174441 
-0.000675 -0.177344 
-0.000000 -0.099105 
0.003562 -0.121825 
0.001834 -0.100685 
-0.000249 -0.148477 
-0.001582 -0.144984 
-0.000000 -0.151596 
-0.005909 -0.109705 
-0.001228 -0.118812 
-0.005396 -0.124319 
-0.000087 -0.154185 
-0.000174 -0.153876 
-0.000000 -0.154172 
-0.002407 -0.149290 
-0.000837 -0.152221 
-0.001752 -0.152419 
-0.000000 -0.153381 
-0.000194 -0.152850 
-0.000161 -0.151087 
-0.003756 -0.149376 
-0.007359 -0.144978 
-0.005871 -0.153930 
-0.007198 -0.131430 
-0.007826 -0.137575 
-0.009108 -0.127101 
-0.005710 -0.149788 
-0.007027 -0.144551 
-0.004803 -0.146293 
-0.001592 -0.144993 
-0.003383 -0.144369 
-0.005416 -0.137263 
0.001291 -0.133040 
0.001138 -0.137717 
-0.000000 -0.133022 
0.002432 -0.146217 
0.001963 -0.142118 
0.002999 -0.142534 
-0.000000 -0.141801 
0.000969 -0.141874 
0.000786 -0.145481 
0.000818 -0.160572 
0.001639 -0.157098 
0.002306 -0.158701 
0.000830 -0.154461 
0.001159 -0.155655 
0.000057 -0.156976 
0.003302 -0.150957 
0.002244 -0.153630 
0.002524 -0.150036 
-0.000000 -0.152587 
0.000218 -0.152689 
0.000049 -0.153785 
0.000596 -0.148508 
0.000404 -0.150921 
-0.000000 -0.148409 
-0.000012 -0.154630 
0.000413 -0.152996 
0.000601 -0.153573 
0.001835 -0.149313 
0.001221 -0.151781 
0.001202 -0.148805 
-0.006299 -0.157381 
-0.004466 -0.153514 
-0.006046 -0.154432 
-0.005728 -0.159848 
-0.004705 -0.161467 
-0.000300 -0.154333 
-0.000894 -0.155939 
-0.000606 -0.154873 
-0.001179 -0.154192 
-0.002641 -0.153698 
-0.000656 -0.161819 
-0.003459 -0.162305 
-0.002093 -0.162409 
-0.000991 -0.159535 
-0.001052 -0.157526 
-0.003298 -0.155928 
-0.002167 -0.157215 
-0.003593 -0.158885 
-0.001834 -0.100685 
-0.003562 -0.121825 
0.005396 -0.124319 
0.001228 -0.118812 
0.005909 -0.109705 
0.001582 -0.144984 
0.000249 -0.148477 
0.005871 -0.153930 
0.007359 -0.144978 
0.003756 -0.149376 
0.004803 -0.146293 
0.007027 -0.144551 
0.005710 -0.149788 
0.009108 -0.127101 
0.007826 -0.137575 
0.007198 -0.131430 
0.000174 -0.153876 
0.000087 -0.154185 
0.000161 -0.151087 
0.000194 -0.152850 
0.001752 -0.152419 
0.000837 -0.152221 
0.002407 -0.149290 
0.005416 -0.137263 
0.003383 -0.144369 
0.001592 -0.144993 
-0.002901 -0.183192 
-0.002636 -0.183141 
-0.003139 -0.183571 
-0.000480 -0.179279 
-0.001644 -0.181745 
-0.001469 -0.180375 
-0.003364 -0.182924 
-0.002339 -0.182639 
-0.001940 -0.181430 
0.000036 -0.164190 
0.000677 -0.168037 
-0.000841 -0.166448 
0.002955 -0.169996 
0.001981 -0.169204 
0.002893 -0.165867 
-0.000348 -0.174227 
0.000861 -0.172039 
0.000451 -0.175921 
-0.003094 -0.170529 
0.001164 -0.170815 
0.003372 -0.163480 
-0.001329 -0.179267 
-0.000355 -0.175862 
-0.003841 -0.179457 
0.004753 -0.165479 
0.003005 -0.170737 
0.003407 -0.170479 
0.000675 -0.177344 
0.001992 -0.174441 
0.000145 -0.178487 
-0.001138 -0.137717 
-0.001291 -0.133040 
-0.000786 -0.145481 
-0.000969 -0.141874 
-0.002999 -0.142534 
-0.001963 -0.142118 
-0.002432 -0.146217 
-0.000049 -0.153785 
-0.000218 -0.152689 
-0.000601 -0.153573 
-0.000413 -0.152996 
0.000012 -0.154630 
-0.000404 -0.150921 
-0.000596 -0.148508 
-0.002306 -0.158701 
-0.001639 -0.157098 
-0.000818 -0.160572 
-0.002524 -0.150036 
-0.002244 -0.153630 
-0.003302 -0.150957 
-0.000057 -0.156976 
-0.001159 -0.155655 
-0.000830 -0.154461 
-0.001202 -0.148805 
-0.001221 -0.151781 
-0.001835 -0.149313 
0.006299 -0.157381 
0.004705 -0.161467 
0.005728 -0.159848 
0.006046 -0.154432 
0.004466 -0.153514 
0.000656 -0.161819 
0.001052 -0.157526 
0.000991 -0.159535 
0.002093 -0.162409 
0.003459 -0.162305 
0.000300 -0.154333 
0.002641 -0.153698 
0.001179 -0.154192 
0.000606 -0.154873 
0.000894 -0.155939 
0.003593 -0.158885 
0.002167 -0.157215 
0.003298 -0.155928 
-0.003199 -0.183088 
-0.002823 -0.182179 
-0.003816 -0.178543 
-0.003102 -0.180600 
-0.003900 -0.180008 
-0.002323 -0.180768 
-0.001846 -0.178615 
-0.010586 -0.166805 
-0.008428 -0.170182 
-0.009890 -0.168478 
-0.005712 -0.171351 
-0.007050 -0.171116 
-0.007639 -0.168303 
-0.006150 -0.174898 
-0.006532 -0.173284 
-0.004973 -0.176085 
-0.001915 -0.168410 
-0.002496 -0.164410 
-0.001559 -0.175719 
-0.001576 -0.172243 
-0.004886 -0.167291 
-0.003120 -0.169939 
-0.004397 -0.170942 
-0.003858 -0.176626 
-0.004048 -0.174088 
-0.002731 -0.176512 
-0.029722 -0.130717 
-0.027605 -0.136114 
-0.029902 -0.134167 
-0.022987 -0.138085 
-0.025299 -0.137381 
-0.024866 -0.132485 
-0.025046 -0.144026 
-0.025336 -0.141257 
-0.022940 -0.146144 
-0.014168 -0.137330 
-0.016257 -0.137877 
-0.015452 -0.131715 
-0.016781 -0.148588 
-0.016694 -0.143532 
-0.014823 -0.148447 
-0.020024 -0.132572 
-0.018439 -0.138240 
-0.020691 -0.138339 
-0.014628 -0.161136 
-0.015401 -0.159287 
-0.012933 -0.163171 
-0.020456 -0.150776 
-0.017927 -0.155156 
-0.019831 -0.152991 
-0.014269 -0.157269 
-0.016074 -0.156544 
-0.016556 -0.152954 
-0.020954 -0.143363 
-0.018799 -0.148319 
-0.020856 -0.147539 
-0.002626 -0.133217 
-0.001443 -0.127865 
-0.004096 -0.143114 
-0.003525 -0.138300 
-0.004421 -0.128309 
-0.004003 -0.133547 
-0.005443 -0.134012 
-0.003173 -0.160349 
-0.003786 -0.156239 
-0.006639 -0.149647 
-0.005238 -0.153212 
-0.006429 -0.154403 
-0.004199 -0.152037 
-0.004317 -0.147680 
-0.011317 -0.130469 
-0.010329 -0.135958 
-0.012189 -0.136670 
-0.006966 -0.134588 
-0.008590 -0.135249 
-0.007664 -0.129240 
-0.009503 -0.146468 
-0.009206 -0.140998 
-0.007969 -0.145569 
-0.005277 -0.143838 
-0.006562 -0.144672 
-0.006165 -0.139464 
-0.011315 -0.164405 
-0.012519 -0.157431 
-0.011983 -0.161264 
-0.009753 -0.164941 
-0.008244 -0.164871 
-0.012730 -0.142529 
-0.009502 -0.151633 
-0.011165 -0.147300 
-0.012944 -0.147988 
-0.012858 -0.152980 
-0.004231 -0.161911 
-0.006802 -0.164281 
-0.005453 -0.163260 
-0.006002 -0.158946 
-0.007770 -0.155518 
-0.010838 -0.157129 
-0.009247 -0.156459 
-0.008804 -0.160896 
-0.034152 -0.123477 
-0.031663 -0.125072 
-0.034763 -0.112937 
-0.033352 -0.119147 
-0.037488 -0.111873 
-0.029106 -0.126056 
-0.026516 -0.126556 
-0.036902 -0.085071 
-0.036983 -0.092513 
-0.040187 -0.085448 
-0.029878 -0.106766 
-0.033507 -0.099681 
-0.030339 -0.099491 
-0.039603 -0.099208 
-0.036621 -0.099630 
-0.035866 -0.106434 
-0.018907 -0.126179 
-0.016533 -0.125696 
-0.023928 -0.126683 
-0.021381 -0.126531 
-0.023366 -0.113352 
-0.022507 -0.120123 
-0.026187 -0.113620 
-0.031938 -0.113507 
-0.029061 -0.113700 
-0.027927 -0.120295 
-0.007823 -0.010403 
-0.015930 -0.021520 
-0.013262 -0.014082 
-0.019155 -0.038891 
-0.018030 -0.030061 
-0.014863 -0.029085 
-0.027226 -0.035975 
-0.022243 -0.032130 
-0.027049 -0.042145 
-0.016808 -0.073481 
-0.018142 -0.065127 
-0.015579 -0.064817 
-0.024164 -0.066116 
-0.020996 -0.065545 
-0.022452 -0.074302 
-0.016648 -0.047307 
-0.019060 -0.056531 
-0.019444 -0.047757 
-0.038814 -0.070505 
-0.035147 -0.069138 
-0.036315 -0.077287 
-0.030659 -0.051613 
-0.033303 -0.060593 
-0.034855 -0.054188 
-0.029106 -0.075570 
-0.031346 -0.067901 
-0.027636 -0.066890 
-0.022716 -0.048516 
-0.025528 -0.057865 
-0.026494 -0.049748 
-0.003156 -0.122353 
-0.001580 -0.122215 
-0.006469 -0.122984 
-0.004778 -0.122615 
-0.005225 -0.109971 
-0.005047 -0.116493 
-0.007070 -0.110260 
-0.014275 -0.125137 
-0.012143 -0.124550 
-0.013243 -0.111513 
-0.012791 -0.118225 
-0.015566 -0.112006 
-0.010137 -0.123975 
-0.008250 -0.123445 
-0.012818 -0.081237 
-0.013278 -0.089273 
-0.015157 -0.081542 
-0.009161 -0.103645 
-0.011255 -0.096646 
-0.009155 -0.096323 
-0.015903 -0.097418 
-0.013498 -0.097014 
-0.013483 -0.104435 
-0.008701 -0.117231 
-0.011060 -0.111045 
-0.009008 -0.110622 
-0.033464 -0.084510 
-0.026640 -0.083304 
-0.030006 -0.083896 
-0.030399 -0.091869 
-0.027197 -0.099156 
-0.017698 -0.081894 
-0.018479 -0.097851 
-0.018251 -0.090025 
-0.020458 -0.082300 
-0.023443 -0.082769 
-0.017402 -0.119286 
-0.023924 -0.106223 
-0.020638 -0.112961 
-0.018033 -0.112499 
-0.018400 -0.105348 
-0.023997 -0.090921 
-0.021231 -0.098299 
-0.024146 -0.098743 
0.000000 0.000000 
-0.006004 -0.009751 
-0.004156 -0.009492 
-0.004929 -0.009551 
0.000000 0.000000 
-0.010012 -0.019257 
-0.012477 -0.028655 
-0.002198 -0.009544 
-0.002588 -0.009521 
0.000000 0.000000 
-0.007667 -0.028368 
-0.005167 -0.018978 
-0.006494 -0.028367 
0.000000 0.000000 
-0.003031 -0.009500 
-0.003543 -0.009485 
-0.014019 -0.055937 
-0.013270 -0.064580 
-0.013796 -0.037931 
-0.014245 -0.047040 
-0.010307 -0.046773 
-0.012153 -0.046878 
-0.010017 -0.037677 
-0.007117 -0.018975 
-0.009010 -0.028392 
-0.010581 -0.028468 
-0.000000 -0.009623 
-0.000231 -0.009623 
0.000000 0.000000 
-0.000682 -0.028402 
-0.000460 -0.019092 
-0.000000 -0.028397 
0.000000 0.000000 
-0.000467 -0.009621 
-0.000711 -0.009616 
-0.001410 -0.063831 
-0.001259 -0.055273 
-0.000000 -0.063809 
-0.002735 -0.037560 
-0.002189 -0.046522 
-0.003328 -0.046544 
-0.000000 -0.046492 
-0.001085 -0.046504 
-0.000891 -0.037543 
0.000000 0.000000 
-0.001530 -0.009582 
-0.001848 -0.009565 
-0.000967 -0.009608 
-0.001238 -0.009597 
0.000000 0.000000 
-0.003645 -0.028393 
-0.002461 -0.019063 
-0.002845 -0.028400 
-0.001376 -0.028404 
-0.002093 -0.028403 
-0.001413 -0.019086 
-0.001664 -0.116126 
-0.000000 -0.122200 
-0.005309 -0.103075 
-0.003450 -0.109762 
-0.000000 -0.109592 
-0.001718 -0.109637 
-0.001742 -0.102778 
-0.012115 -0.072934 
-0.010658 -0.080975 
-0.006772 -0.080568 
-0.008651 -0.080752 
-0.008156 -0.072554 
-0.008985 -0.088684 
-0.007177 -0.096051 
-0.000000 -0.080212 
-0.001632 -0.080245 
-0.001535 -0.072162 
-0.001735 -0.095577 
-0.001699 -0.088057 
-0.000000 -0.095535 
-0.004700 -0.072300 
-0.003288 -0.080315 
-0.004992 -0.080422 
-0.005299 -0.095835 
-0.005193 -0.088275 
-0.003493 -0.095676 
-0.003678 -0.019024 
-0.004763 -0.037579 
-0.004507 -0.028385 
-0.005450 -0.028375 
-0.007122 -0.037606 
-0.002843 -0.063872 
-0.005867 -0.064013 
-0.004321 -0.063933 
-0.003860 -0.055340 
-0.004523 -0.046572 
-0.011178 -0.064392 
-0.008657 -0.046701 
-0.010018 -0.055638 
-0.009268 -0.064240 
-0.007507 -0.064115 
-0.005794 -0.046606 
-0.006715 -0.055458 
-0.007163 -0.046648 
0.000000 0.000000 
0.000231 -0.009623 
0.000711 -0.009616 
0.000467 -0.009621 
0.000000 0.000000 
0.000460 -0.019092 
0.000682 -0.028402 
0.001848 -0.009565 
0.001530 -0.009582 
0.000000 0.000000 
0.002845 -0.028400 
0.002461 -0.019063 
0.003645 -0.028393 
0.000000 0.000000 
0.001238 -0.009597 
0.000967 -0.009608 
0.001259 -0.055273 
0.001410 -0.063831 
0.000891 -0.037543 
0.001085 -0.046504 
0.003328 -0.046544 
0.002189 -0.046522 
0.002735 -0.037560 
0.001413 -0.019086 
0.002093 -0.028403 
0.001376 -0.028404 
0.007823 -0.010403 
0.006004 -0.009751 
0.000000 0.000000 
0.012477 -0.028655 
0.010012 -0.019257 
0.014863 -0.029085 
0.000000 0.000000 
0.004929 -0.009551 
0.004156 -0.009492 
0.013270 -0.064580 
0.014019 -0.055937 
0.015579 -0.064817 
0.010017 -0.037677 
0.012153 -0.046878 
0.010307 -0.046773 
0.016648 -0.047307 
0.014245 -0.047040 
0.013796 -0.037931 
0.000000 0.000000 
0.002588 -0.009521 
0.002198 -0.009544 
0.003543 -0.009485 
0.003031 -0.009500 
0.000000 0.000000 
0.006494 -0.028367 
0.005167 -0.018978 
0.007667 -0.028368 
0.010581 -0.028468 
0.009010 -0.028392 
0.007117 -0.018975 
0.001664 -0.116126 
0.001580 -0.122215 
0.001742 -0.102778 
0.001718 -0.109637 
0.005225 -0.109971 
0.003450 -0.109762 
0.005309 -0.103075 
0.001535 -0.072162 
0.001632 -0.080245 
0.004992 -0.080422 
0.003288 -0.080315 
0.004700 -0.072300 
0.001699 -0.088057 
0.001735 -0.095577 
0.012818 -0.081237 
0.010658 -0.080975 
0.012115 -0.072934 
0.007177 -0.096051 
0.008985 -0.088684 
0.009155 -0.096323 
0.008156 -0.072554 
0.008651 -0.080752 
0.006772 -0.080568 
0.003493 -0.095676 
0.005193 -0.088275 
0.005299 -0.095835 
0.003678 -0.019024 
0.007122 -0.037606 
0.005450 -0.028375 
0.004507 -0.028385 
0.004763 -0.037579 
0.011178 -0.064392 
0.007507 -0.064115 
0.009268 -0.064240 
0.010018 -0.055638 
0.008657 -0.046701 
0.002843 -0.063872 
0.004523 -0.046572 
0.003860 -0.055340 
0.004321 -0.063933 
0.005867 -0.064013 
0.007163 -0.046648 
0.006715 -0.055458 
0.005794 -0.046606 
0.013262 -0.014082 
0.015930 -0.021520 
0.027049 -0.042145 
0.022243 -0.032130 
0.027226 -0.035975 
0.018030 -0.030061 
0.019155 -0.038891 
0.036315 -0.077287 
0.035147 -0.069138 
0.038814 -0.070505 
0.027636 -0.066890 
0.031346 -0.067901 
0.029106 -0.075570 
0.034855 -0.054188 
0.033303 -0.060593 
0.030659 -0.051613 
0.018142 -0.065127 
0.016808 -0.073481 
0.019444 -0.047757 
0.019060 -0.056531 
0.022452 -0.074302 
0.020996 -0.065545 
0.024164 -0.066116 
0.026494 -0.049748 
0.025528 -0.057865 
0.022716 -0.048516 
0.029722 -0.130717 
0.031663 -0.125072 
0.034152 -0.123477 
0.026516 -0.126556 
0.029106 -0.126056 
0.024866 -0.132485 
0.037488 -0.111873 
0.033352 -0.119147 
0.034763 -0.112937 
0.016533 -0.125696 
0.018907 -0.126179 
0.015452 -0.131715 
0.026187 -0.113620 
0.022507 -0.120123 
0.023366 -0.113352 
0.020024 -0.132572 
0.021381 -0.126531 
0.023928 -0.126683 
0.040187 -0.085448 
0.036983 -0.092513 
0.036902 -0.085071 
0.035866 -0.106434 
0.036621 -0.099630 
0.039603 -0.099208 
0.030339 -0.099491 
0.033507 -0.099681 
0.029878 -0.106766 
0.027927 -0.120295 
0.029061 -0.113700 
0.031938 -0.113507 
0.003156 -0.122353 
0.001443 -0.127865 
0.007070 -0.110260 
0.005047 -0.116493 
0.004421 -0.128309 
0.004778 -0.122615 
0.006469 -0.122984 
0.015157 -0.081542 
0.013278 -0.089273 
0.013483 -0.104435 
0.013498 -0.097014 
0.015903 -0.097418 
0.011255 -0.096646 
0.009161 -0.103645 
0.011317 -0.130469 
0.012143 -0.124550 
0.014275 -0.125137 
0.008250 -0.123445 