# vtk DataFile Version 2.0
Unstructured Grid Example
ASCII
DATASET UNSTRUCTURED_GRID

POINTS 81 float
0.006360 -0.183308 0.000000 
0.993640 -0.183308 0.000000 
1.000000 1.000000 0.000000 
0.000000 1.000000 0.000000 
0.500000 -0.097183 0.000000 
0.970022 0.372861 0.000000 
0.500000 1.000000 0.000000 
0.029978 0.372861 0.000000 
0.500000 0.374293 0.000000 
0.251191 -0.159507 0.000000 
0.500000 0.104918 0.000000 
0.251110 0.090536 0.000000 
0.748809 -0.159507 0.000000 
0.748890 0.090536 0.000000 
0.987819 0.085624 0.000000 
0.737896 0.371547 0.000000 
0.963101 0.673143 0.000000 
0.736989 0.678172 0.000000 
0.750000 1.000000 0.000000 
0.500000 0.679428 0.000000 
0.250000 1.000000 0.000000 
0.263011 0.678172 0.000000 
0.036899 0.673143 0.000000 
0.262104 0.371547 0.000000 
0.012181 0.085624 0.000000 
0.129820 -0.178618 0.000000 
0.247429 -0.038519 0.000000 
0.126621 -0.050413 0.000000 
0.500000 -0.009903 0.000000 
0.370296 -0.018622 0.000000 
0.369894 -0.114322 0.000000 
0.377001 0.232807 0.000000 
0.373600 0.100729 0.000000 
0.500000 0.234496 0.000000 
0.630106 -0.114322 0.000000 
0.629704 -0.018622 0.000000 
0.873379 -0.050413 0.000000 
0.752571 -0.038519 0.000000 
0.870180 -0.178618 0.000000 
0.626400 0.100729 0.000000 
0.622999 0.232807 0.000000 
0.994423 -0.051835 0.000000 
0.868881 0.083850 0.000000 
0.853955 0.369409 0.000000 
0.861427 0.223881 0.000000 
0.978482 0.227307 0.000000 
0.743275 0.227402 0.000000 
0.620017 0.374546 0.000000 
0.963830 0.520422 0.000000 
0.850079 0.520126 0.000000 
0.860870 0.837643 0.000000 
0.851537 0.676327 0.000000 
0.971337 0.831969 0.000000 
0.735465 0.522150 0.000000 
0.618341 0.523896 0.000000 
0.875000 1.000000 0.000000 
0.742332 0.837980 0.000000 
0.500000 0.838265 0.000000 
0.621579 0.838087 0.000000 
0.625000 1.000000 0.000000 
0.619124 0.679006 0.000000 
0.500000 0.524360 0.000000 
0.375000 1.000000 0.000000 
0.378421 0.838087 0.000000 
0.139130 0.837643 0.000000 
0.257668 0.837980 0.000000 
0.125000 1.000000 0.000000 
0.380876 0.679006 0.000000 
0.381659 0.523896 0.000000 
0.028663 0.831969 0.000000 
0.148463 0.676327 0.000000 
0.146045 0.369409 0.000000 
0.149921 0.520126 0.000000 
0.036170 0.520422 0.000000 
0.264535 0.522150 0.000000 
0.379983 0.374546 0.000000 
0.021518 0.227307 0.000000 
0.138573 0.223881 0.000000 
0.131119 0.083850 0.000000 
0.005577 -0.051835 0.000000 
0.256725 0.227402 0.000000 

CELLS 128 512
3  0 25 27 
3  9 26 25 
3  11 27 26 
3  25 26 27 
3  4 28 30 
3  10 29 28 
3  9 30 29 
3  28 29 30 
3  8 31 33 
3  11 32 31 
3  10 33 32 
3  31 32 33 
3  9 29 26 
3  10 32 29 
3  11 26 32 
3  29 32 26 
3  4 34 28 
3  12 35 34 
3  10 28 35 
3  34 35 28 
3  1 36 38 
3  13 37 36 
3  12 38 37 
3  36 37 38 
3  8 33 40 
3  10 39 33 
3  13 40 39 
3  33 39 40 
3  12 37 35 
3  13 39 37 
3  10 35 39 
3  37 39 35 
3  1 41 36 
3  14 42 41 
3  13 36 42 
3  41 42 36 
3  5 43 45 
3  15 44 43 
3  14 45 44 
3  43 44 45 
3  8 40 47 
3  13 46 40 
3  15 47 46 
3  40 46 47 
3  14 44 42 
3  15 46 44 
3  13 42 46 
3  44 46 42 
3  5 48 43 
3  16 49 48 
3  15 43 49 
3  48 49 43 
3  2 50 52 
3  17 51 50 
3  16 52 51 
3  50 51 52 
3  8 47 54 
3  15 53 47 
3  17 54 53 
3  47 53 54 
3  16 51 49 
3  17 53 51 
3  15 49 53 
3  51 53 49 
3  2 55 50 
3  18 56 55 
3  17 50 56 
3  55 56 50 
3  6 57 59 
3  19 58 57 
3  18 59 58 
3  57 58 59 
3  8 54 61 
3  17 60 54 
3  19 61 60 
3  54 60 61 
3  18 58 56 
3  19 60 58 
3  17 56 60 
3  58 60 56 
3  6 62 57 
3  20 63 62 
3  19 57 63 
3  62 63 57 
3  3 64 66 
3  21 65 64 
3  20 66 65 
3  64 65 66 
3  8 61 68 
3  19 67 61 
3  21 68 67 
3  61 67 68 
3  20 65 63 
3  21 67 65 
3  19 63 67 
3  65 67 63 
3  3 69 64 
3  22 70 69 
3  21 64 70 
3  69 70 64 
3  7 71 73 
3  23 72 71 
3  22 73 72 
3  71 72 73 
3  8 68 75 
3  21 74 68 
3  23 75 74 
3  68 74 75 
3  22 72 70 
3  23 74 72 
3  21 70 74 
3  72 74 70 
3  7 76 71 
3  24 77 76 
3  23 71 77 
3  76 77 71 
3  0 27 79 
3  11 78 27 
3  24 79 78 
3  27 78 79 
3  8 75 31 
3  23 80 75 
3  11 31 80 
3  75 80 31 
3  24 78 77 
3  11 80 78 
3  23 77 80 
3  78 80 77 

CELL_TYPES 128
5
5
5
5
5
5
5
5
5
5
5
5
5
5
5
5
5
5
5
5
5
5
5
5
5
5
5
5
5
5
5
5
5
5
5
5
5
5
5
5
5
5
5
5
5
5
5
5
5
5
5
5
5
5
5
5
5
5
5
5
5
5
5
5
5
5
5
5
5
5
5
5
5
5
5
5
5
5
5
5
5
5
5
5
5
5
5
5
5
5
5
5
5
5
5
5
5
5
5
5
5
5
5
5
5
5
5
5
5
5
5
5
5
5
5
5
5
5
5
5
5
5
5
5
5
5
5
5

POINT_DATA 81

SCALARS u_h float 2
LOOKUP_TABLE default
0.006360 -0.183308 
-0.006360 -0.183308 
0.000000 0.000000 
0.000000 0.000000 
0.000000 -0.097183 
-0.029978 -0.127139 
0.000000 0.000000 
0.029978 -0.127139 
-0.000000 -0.125707 
0.001191 -0.159507 
0.000000 -0.145082 
0.001110 -0.159464 
-0.001191 -0.159507 
-0.001110 -0.159464 
-0.012181 -0.164376 
-0.012104 -0.128453 
-0.036899 -0.076857 
-0.013011 -0.071828 
0.000000 0.000000 
0.000000 -0.070572 
0.000000 0.000000 
0.013011 -0.071828 
0.036899 -0.076857 
0.012104 -0.128453 
0.012181 -0.164376 
0.004820 -0.178618 
-0.002571 -0.163519 
0.001621 -0.175413 
0.000000 -0.134903 
-0.004704 -0.143622 
-0.005106 -0.114322 
0.002001 -0.142193 
-0.001400 -0.149271 
0.000000 -0.140504 
0.005106 -0.114322 
0.004704 -0.143622 
-0.001621 -0.175413 
0.002571 -0.163519 
-0.004820 -0.178618 
0.001400 -0.149271 
-0.002001 -0.142193 
-0.005577 -0.176835 
-0.006119 -0.166150 
-0.021045 -0.130591 
-0.013573 -0.151119 
-0.021518 -0.147693 
-0.006725 -0.147598 
-0.004983 -0.125454 
-0.036170 -0.104578 
-0.024921 -0.104874 
-0.014130 -0.037357 
-0.023463 -0.073673 
-0.028663 -0.043031 
-0.014535 -0.102850 
-0.006659 -0.101104 
0.000000 0.000000 
-0.007668 -0.037020 
-0.000000 -0.036735 
-0.003421 -0.036913 
0.000000 0.000000 
-0.005876 -0.070994 
-0.000000 -0.100640 
0.000000 0.000000 
0.003421 -0.036913 
0.014130 -0.037357 
0.007668 -0.037020 
0.000000 0.000000 
0.005876 -0.070994 
0.006659 -0.101104 
0.028663 -0.043031 
0.023463 -0.073673 
0.021045 -0.130591 
0.024921 -0.104874 
0.036170 -0.104578 
0.014535 -0.102850 
0.004983 -0.125454 
0.021518 -0.147693 
0.013573 -0.151119 
0.006119 -0.166150 
0.005577 -0.176835 
0.006725 -0.147598 

CELL_DATA 128

SCALARS epsilon float 4
LOOKUP_TABLE default
-0.011125 0.026941 0.000000 0.005341
-0.024067 -0.014627 0.000000 0.063444
-0.036467 0.033675 0.000000 0.061239
-0.031313 0.032347 0.000000 0.033109
0.040014 -0.320991 0.000000 0.098033
0.036928 -0.082037 0.000000 0.037918
-0.053226 -0.136748 0.000000 0.236900
0.036654 -0.255699 0.000000 0.046898
-0.016138 0.111526 0.000000 0.006040
-0.022087 0.055997 0.000000 0.052418
0.011141 0.036461 0.000000 0.016163
-0.016149 0.054754 0.000000 0.020181
-0.011700 -0.013736 0.000000 0.066916
0.010599 -0.046517 0.000000 0.030586
-0.022239 0.032802 0.000000 0.054485
-0.021307 -0.036174 0.000000 0.096720
0.040014 -0.320991 0.000000 -0.098033
-0.053226 -0.136748 0.000000 -0.236900
0.036928 -0.082037 0.000000 -0.037918
0.036654 -0.255699 0.000000 -0.046898
-0.011125 0.026941 0.000000 -0.005341
-0.036467 0.033675 0.000000 -0.061239
-0.024067 -0.014627 0.000000 -0.063444
-0.031313 0.032347 0.000000 -0.033109
-0.016138 0.111526 0.000000 -0.006040
0.011141 0.036461 0.000000 -0.016163
-0.022087 0.055997 0.000000 -0.052418
-0.016149 0.054754 0.000000 -0.020181
-0.011700 -0.013736 0.000000 -0.066916
-0.022239 0.032802 0.000000 -0.054485
0.010599 -0.046517 0.000000 -0.030586
-0.021307 -0.036174 0.000000 -0.096720
-0.032058 0.050575 0.000000 -0.002178
-0.047677 0.095551 0.000000 -0.021094
-0.042127 0.070866 0.000000 -0.043508
-0.031941 0.071043 0.000000 -0.023784
-0.070325 0.153200 0.000000 -0.023906
-0.073486 0.150204 0.000000 -0.038862
-0.061190 0.126914 0.000000 -0.027279
-0.062582 0.152793 0.000000 -0.019553
-0.040376 0.125118 0.000000 -0.011360
-0.039431 0.089468 0.000000 -0.042884
-0.058740 0.140953 0.000000 -0.032781
-0.039206 0.124927 0.000000 -0.031263
-0.047310 0.113973 0.000000 -0.024650
-0.056608 0.140884 0.000000 -0.034535
-0.042240 0.089483 0.000000 -0.047603
-0.056272 0.111886 0.000000 -0.043713
-0.071736 0.166115 0.000000 -0.014413
-0.093970 0.198002 0.000000 -0.002138
-0.074165 0.184843 0.000000 -0.023266
-0.093531 0.185254 0.000000 -0.015567
-0.096013 0.297739 0.000000 0.104154
-0.084172 0.251426 0.000000 0.032989
-0.110040 0.237313 0.000000 0.025339
-0.117856 0.254068 0.000000 0.022760
-0.040569 0.176354 0.000000 -0.005952
-0.058841 0.184275 0.000000 -0.019934
-0.064778 0.218813 0.000000 0.000678
-0.065072 0.176244 0.000000 -0.012784
-0.112864 0.220219 0.000000 -0.003770
-0.086873 0.218836 0.000000 0.000524
-0.086646 0.184281 0.000000 -0.016964
-0.086303 0.219961 0.000000 -0.000318
0.003787 0.256560 0.000000 0.053527
0.001120 0.254593 0.000000 0.029070
-0.052311 0.241623 0.000000 0.020416
-0.048572 0.256797 0.000000 0.055406
0.000000 0.252922 0.000000 0.000000
-0.027740 0.235723 0.000000 -0.000563
0.000223 0.253970 0.000000 0.012972
-0.027473 0.254001 0.000000 0.012785
-0.054691 0.180993 0.000000 -0.001541
-0.058655 0.213016 0.000000 0.000522
-0.048107 0.212706 0.000000 -0.001357
-0.054657 0.212989 0.000000 0.001696
-0.033312 0.254633 0.000000 0.029764
-0.047921 0.237236 0.000000 0.008508
-0.057841 0.241771 0.000000 0.018988
-0.034413 0.237194 0.000000 0.009364
0.000000 0.252922 0.000000 0.000000
0.000223 0.253970 0.000000 -0.012972
-0.027740 0.235723 0.000000 0.000563
-0.027473 0.254001 0.000000 -0.012785
0.003787 0.256560 0.000000 -0.053527
-0.052311 0.241623 0.000000 -0.020416
0.001120 0.254593 0.000000 -0.029070
-0.048572 0.256797 0.000000 -0.055406
-0.054691 0.180993 0.000000 0.001541
-0.048107 0.212706 0.000000 0.001357
-0.058655 0.213016 0.000000 -0.000522
-0.054657 0.212989 0.000000 -0.001696
-0.033312 0.254633 0.000000 -0.029764
-0.057841 0.241771 0.000000 -0.018988
-0.047921 0.237236 0.000000 -0.008508
-0.034413 0.237194 0.000000 -0.009364
-0.096013 0.297739 0.000000 -0.104154
-0.110040 0.237313 0.000000 -0.025339
-0.084172 0.251426 0.000000 -0.032989
-0.117856 0.254068 0.000000 -0.022760
-0.071736 0.166115 0.000000 0.014413
-0.074165 0.184843 0.000000 0.023266
-0.093970 0.198002 0.000000 0.002138
-0.093531 0.185254 0.000000 0.015567
-0.040569 0.176354 0.000000 0.005952
-0.064778 0.218813 0.000000 -0.000678
-0.058841 0.184275 0.000000 0.019934
-0.065072 0.176244 0.000000 0.012784
-0.112864 0.220219 0.000000 0.003770
-0.086646 0.184281 0.000000 0.016964
-0.086873 0.218836 0.000000 -0.000524
-0.086303 0.219961 0.000000 0.000318
-0.070325 0.153200 0.000000 0.023906
-0.061190 0.126914 0.000000 0.027279
-0.073486 0.150204 0.000000 0.038862
-0.062582 0.152793 0.000000 0.019553
-0.032058 0.050575 0.000000 0.002178
-0.042127 0.070866 0.000000 0.043508
-0.047677 0.095551 0.000000 0.021094
-0.031941 0.071043 0.000000 0.023784
-0.040376 0.125118 0.000000 0.011360
-0.058740 0.140953 0.000000 0.032781
-0.039431 0.089468 0.000000 0.042884
-0.039206 0.124927 0.000000 0.031263
-0.047310 0.113973 0.000000 0.024650
-0.042240 0.089483 0.000000 0.047603
-0.056608 0.140884 0.000000 0.034535
-0.056272 0.111886 0.000000 0.043713

SCALARS sigma float 4
LOOKUP_TABLE default
-0.020758 0.613340 0.158165 0.108794
-0.593751 -0.642340 -0.386939 0.913124
-0.506376 0.569134 -0.027911 1.016685
-0.435028 0.541641 0.010331 0.577309
-1.934728 -4.584624 -2.809771 0.147573
0.205628 -1.637261 -0.451098 0.512942
-0.686090 -2.848268 -1.899736 1.609616
-1.578979 -4.423879 -2.190446 0.236121
0.679227 3.077488 0.953886 0.131607
0.045261 1.344934 0.339107 0.939393
0.674515 1.111934 0.476026 0.302340
0.123501 1.361061 0.386053 0.342166
-0.258084 -0.500752 -0.254362 1.004114
-0.169817 -1.054131 -0.359180 0.467734
-0.180942 0.688400 0.105636 0.925060
-0.633740 -1.062419 -0.574818 1.352401
-1.934728 -4.584624 -2.809771 -0.147573
-0.686090 -2.848268 -1.899736 -1.609616
0.205628 -1.637261 -0.451098 -0.512942
-1.578979 -4.423879 -2.190446 -0.236121
-0.020758 0.613340 0.158165 -0.108794
-0.506376 0.569134 -0.027911 -1.016685
-0.593751 -0.642340 -0.386939 -0.913124
-0.435028 0.541641 0.010331 -0.577309
0.679227 3.077488 0.953886 -0.131607
0.674515 1.111934 0.476026 -0.302340
0.045261 1.344934 0.339107 -0.939393
0.123501 1.361061 0.386053 -0.342166
-0.258084 -0.500752 -0.254362 -1.004114
-0.180942 0.688400 0.105636 -0.925060
-0.169817 -1.054131 -0.359180 -0.467734
-0.633740 -1.062419 -0.574818 -1.352401
-0.329072 1.064392 0.185170 -0.045893
-0.292613 2.250010 0.478748 -0.300853
-0.348789 1.572027 0.287386 -0.757686
-0.124144 1.676427 0.391023 -0.394181
-0.310212 3.842492 0.828745 -0.277417
-0.393711 3.718860 0.767175 -0.638751
-0.335013 3.097190 0.657242 -0.347343
-0.124050 3.910572 0.902109 -0.213870
0.177221 3.245970 0.847421 -0.173197
-0.111357 2.164949 0.500368 -0.755231
-0.120670 3.568711 0.822130 -0.573788
0.225946 3.258003 0.857209 -0.607362
-0.109157 2.832363 0.666628 -0.350267
-0.065904 3.591427 0.842760 -0.614447
-0.170770 2.137526 0.472432 -0.845178
-0.325750 2.684767 0.556140 -0.737832
-0.221022 4.243448 0.943796 -0.126189
-0.451358 5.066032 1.040317 -0.022452
-0.095194 4.853247 1.106781 -0.415226
-0.556296 4.637723 0.917227 -0.221514
0.324049 9.038673 2.017255 1.238800
0.259008 7.139042 1.672539 0.419927
-0.478067 6.294706 1.272729 0.250366
-0.512360 6.810565 1.362121 0.105975
0.663615 4.944201 1.357851 -0.086072
0.278645 5.007588 1.254338 -0.397361
0.445794 6.149396 1.540350 -0.050879
0.044154 4.656579 1.111722 -0.245470
-0.682606 5.621364 1.073553 -0.161379
-0.095622 5.885246 1.319634 -0.055522
-0.400124 4.682283 0.976356 -0.311544
-0.071587 5.932094 1.336579 -0.074610
2.665583 8.454622 2.603475 0.877843
2.575498 8.293318 2.557131 0.476755
0.978148 7.143423 1.893123 0.303591
1.213943 7.826414 2.082255 0.845592
2.529222 8.193715 2.529222 0.000000
1.579182 7.212305 2.079829 -0.015853
2.545596 8.240634 2.541936 0.212738
1.763472 7.901717 2.265272 0.196471
0.345575 4.938084 1.263021 -0.037677
0.546429 6.015071 1.543609 -0.020681
0.814841 6.129956 1.645998 -0.035802
0.648225 6.062015 1.583326 0.010209
1.607996 7.873167 2.213206 0.466646
1.052311 7.025422 1.893153 0.116572
0.835289 7.080702 1.839301 0.260519
1.411880 7.188081 2.027808 0.144073
2.529222 8.193715 2.529222 0.000000
2.545596 8.240634 2.541936 -0.212738
1.579182 7.212305 2.079829 0.015853
1.763472 7.901717 2.265272 -0.196471
2.665583 8.454622 2.603475 -0.877843
0.978148 7.143423 1.893123 -0.303591
2.575498 8.293318 2.557131 -0.476755
1.213943 7.826414 2.082255 -0.845592
0.345575 4.938084 1.263021 0.037677
0.814841 6.129956 1.645998 0.035802
0.546429 6.015071 1.543609 0.020681
0.648225 6.062015 1.583326 -0.010209
1.607996 7.873167 2.213206 -0.466646
0.835289 7.080702 1.839301 -0.260519
1.052311 7.025422 1.893153 -0.116572
1.411880 7.188081 2.027808 -0.144073
0.324049 9.038673 2.017255 -1.238800
-0.478067 6.294706 1.272729 -0.250366
0.259008 7.139042 1.672539 -0.419927
-0.512360 6.810565 1.362121 -0.105975
-0.221022 4.243448 0.943796 0.126189
-0.095194 4.853247 1.106781 0.415226
-0.451358 5.066032 1.040317 0.022452
-0.556296 4.637723 0.917227 0.221514
0.663615 4.944201 1.357851 0.086072
0.445794 6.149396 1.540350 0.050879
0.278645 5.007588 1.254338 0.397361
0.044154 4.656579 1.111722 0.245470
-0.682606 5.621364 1.073553 0.161379
-0.400124 4.682283 0.976356 0.311544
-0.095622 5.885246 1.319634 0.055522
-0.071587 5.932094 1.336579 0.074610
-0.310212 3.842492 0.828745 0.277417
-0.335013 3.097190 0.657242 0.347343
-0.393711 3.718860 0.767175 0.638751
-0.124050 3.910572 0.902109 0.213870
-0.329072 1.064392 0.185170 0.045893
-0.348789 1.572027 0.287386 0.757686
-0.292613 2.250010 0.478748 0.300853
-0.124144 1.676427 0.391023 0.394181
0.177221 3.245970 0.847421 0.173197
-0.120670 3.568711 0.822130 0.573788
-0.111357 2.164949 0.500368 0.755231
0.225946 3.258003 0.857209 0.607362
-0.109157 2.832363 0.666628 0.350267
-0.170770 2.137526 0.472432 0.845178
-0.065904 3.591427 0.842760 0.614447
-0.325750 2.684767 0.556140 0.737832

