# vtk DataFile Version 2.0
Unstructured Grid Example
ASCII
DATASET UNSTRUCTURED_GRID

POINTS 25 float
0.019694 -0.203109 0.000000 
0.980306 -0.203109 0.000000 
1.000000 1.000000 0.000000 
0.000000 1.000000 0.000000 
0.500000 -0.100000 0.000000 
0.964403 0.363550 0.000000 
0.500000 1.000000 0.000000 
0.035597 0.363550 0.000000 
0.500000 0.368732 0.000000 
0.261612 -0.188989 0.000000 
0.500000 0.097175 0.000000 
0.258658 0.073818 0.000000 
0.738388 -0.188989 0.000000 
0.741342 0.073818 0.000000 
0.977136 0.069422 0.000000 
0.733926 0.363168 0.000000 
0.962339 0.669098 0.000000 
0.736966 0.675326 0.000000 
0.750000 1.000000 0.000000 
0.500000 0.677666 0.000000 
0.250000 1.000000 0.000000 
0.263034 0.675326 0.000000 
0.037661 0.669098 0.000000 
0.266074 0.363168 0.000000 
0.022864 0.069422 0.000000 

CELLS 32 128
3  0 9 11 
3  4 10 9 
3  8 11 10 
3  9 10 11 
3  4 12 10 
3  1 13 12 
3  8 10 13 
3  12 13 10 
3  1 14 13 
3  5 15 14 
3  8 13 15 
3  14 15 13 
3  5 16 15 
3  2 17 16 
3  8 15 17 
3  16 17 15 
3  2 18 17 
3  6 19 18 
3  8 17 19 
3  18 19 17 
3  6 20 19 
3  3 21 20 
3  8 19 21 
3  20 21 19 
3  3 22 21 
3  7 23 22 
3  8 21 23 
3  22 23 21 
3  7 24 23 
3  0 11 24 
3  8 23 11 
3  24 11 23 

CELL_TYPES 32
5
5
5
5
5
5
5
5
5
5
5
5
5
5
5
5
5
5
5
5
5
5
5
5
5
5
5
5
5
5
5
5

POINT_DATA 25

SCALARS u_h float 2
LOOKUP_TABLE default
0.019694 -0.203109 
-0.019694 -0.203109 
0.000000 0.000000 
0.000000 0.000000 
0.000000 -0.100000 
-0.035597 -0.136450 
0.000000 0.000000 
0.035597 -0.136450 
0.000000 -0.131268 
0.011612 -0.188989 
0.000000 -0.152825 
0.008658 -0.176182 
-0.011612 -0.188989 
-0.008658 -0.176182 
-0.022864 -0.180578 
-0.016074 -0.136832 
-0.037661 -0.080902 
-0.013034 -0.074674 
0.000000 0.000000 
0.000000 -0.072334 
0.000000 0.000000 
0.013034 -0.074674 
0.037661 -0.080902 
0.016074 -0.136832 
0.022864 -0.180578 

CELL_DATA 32

SCALARS epsilon float 4
LOOKUP_TABLE default
-0.032125 0.052110 0.000000 0.020746
-0.047525 -0.120014 0.000000 0.225124
-0.035231 0.086503 0.000000 0.042951
-0.034077 0.055229 0.000000 0.038279
-0.047525 -0.120014 0.000000 -0.225124
-0.032125 0.052110 0.000000 -0.020746
-0.035231 0.086503 0.000000 -0.042951
-0.034077 0.055229 0.000000 -0.038279
-0.058575 0.086023 0.000000 -0.014713
-0.079948 0.161354 0.000000 -0.026357
-0.066583 0.144857 0.000000 -0.025127
-0.058541 0.144904 0.000000 -0.023003
-0.081084 0.198337 0.000000 -0.003709
-0.092275 0.277544 0.000000 0.069154
-0.066067 0.219353 0.000000 -0.002632
-0.102975 0.219453 0.000000 -0.003383
0.000806 0.256445 0.000000 0.024690
0.000000 0.249585 0.000000 -0.000000
-0.053492 0.208995 0.000000 -0.003775
-0.052201 0.256849 0.000000 0.022451
0.000000 0.249585 0.000000 -0.000000
0.000806 0.256445 0.000000 -0.024690
-0.053492 0.208995 0.000000 0.003775
-0.052201 0.256849 0.000000 -0.022451
-0.092275 0.277544 0.000000 -0.069154
-0.081084 0.198337 0.000000 0.003709
-0.066067 0.219353 0.000000 0.002632
-0.102975 0.219453 0.000000 0.003383
-0.079948 0.161354 0.000000 0.026357
-0.058575 0.086023 0.000000 0.014713
-0.066583 0.144857 0.000000 0.025127
-0.058541 0.144904 0.000000 0.023003

SCALARS sigma float 4
LOOKUP_TABLE default
-0.297432 1.102536 0.199844 0.387604
-0.587778 -2.667462 -1.675392 1.787648
0.000034 2.084679 0.512720 0.851209
-0.277531 1.165587 0.211526 0.708718
-0.587778 -2.667462 -1.675392 -1.787648
-0.297432 1.102536 0.199844 -0.387604
0.000034 2.084679 0.512720 -0.851209
-0.277531 1.165587 0.211526 -0.708718
-0.640521 1.827228 0.274482 -0.255520
-0.455630 3.999909 0.814058 -0.390799
-0.279293 3.597546 0.782740 -0.448446
-0.084510 3.689617 0.863630 -0.406547
-0.144002 5.230263 1.172535 -0.049683
0.279861 8.128103 1.852683 0.880850
0.419427 6.152323 1.532866 -0.137903
-0.465671 5.712827 1.164783 -0.154840
2.585722 8.353412 2.572506 0.404910
2.495855 8.067683 2.495855 -0.000000
0.640969 5.933044 1.555026 -0.098323
1.122609 7.715800 2.046481 0.300535
2.495855 8.067683 2.495855 -0.000000
2.585722 8.353412 2.572506 -0.404910
0.640969 5.933044 1.555026 0.098323
1.122609 7.715800 2.046481 -0.300535
0.279861 8.128103 1.852683 -0.880850
-0.144002 5.230263 1.172535 0.049683
0.419427 6.152323 1.532866 0.137903
-0.465671 5.712827 1.164783 0.154840
-0.455630 3.999909 0.814058 0.390799
-0.640521 1.827228 0.274482 0.255520
-0.279293 3.597546 0.782740 0.448446
-0.084510 3.689617 0.863630 0.406547

