# vtk DataFile Version 2.0
Unstructured Grid Example
ASCII
DATASET UNSTRUCTURED_GRID

POINTS 1089 float
0.016474 -0.209756 0.000000 
0.983526 -0.209756 0.000000 
1.000000 1.000000 0.000000 
0.000000 1.000000 0.000000 
0.500000 -0.100000 0.000000 
0.954006 0.351317 0.000000 
0.500000 1.000000 0.000000 
0.045994 0.351317 0.000000 
0.500000 0.352509 0.000000 
0.266139 -0.215475 0.000000 
0.500000 0.058915 0.000000 
0.265917 0.053507 0.000000 
0.733861 -0.215475 0.000000 
0.734083 0.053507 0.000000 
0.968904 0.058459 0.000000 
0.728267 0.350166 0.000000 
0.951965 0.661493 0.000000 
0.732050 0.668839 0.000000 
0.750000 1.000000 0.000000 
0.500000 0.669801 0.000000 
0.250000 1.000000 0.000000 
0.267950 0.668839 0.000000 
0.048035 0.661493 0.000000 
0.271733 0.350166 0.000000 
0.031096 0.058459 0.000000 
0.140965 -0.214566 0.000000 
0.264232 -0.085148 0.000000 
0.144200 -0.084657 0.000000 
0.500000 -0.074281 0.000000 
0.382688 -0.080389 0.000000 
0.394111 -0.205889 0.000000 
0.384142 0.200885 0.000000 
0.382485 0.056555 0.000000 
0.500000 0.202062 0.000000 
0.605889 -0.205889 0.000000 
0.617312 -0.080389 0.000000 
0.855800 -0.084657 0.000000 
0.735768 -0.085148 0.000000 
0.859035 -0.214566 0.000000 
0.617515 0.056555 0.000000 
0.615858 0.200885 0.000000 
0.976766 -0.079562 0.000000 
0.851088 0.053518 0.000000 
0.840949 0.348961 0.000000 
0.845542 0.198318 0.000000 
0.960793 0.202436 0.000000 
0.730818 0.198773 0.000000 
0.614651 0.351876 0.000000 
0.950146 0.504186 0.000000 
0.839510 0.505152 0.000000 
0.856219 0.832827 0.000000 
0.843701 0.666705 0.000000 
0.963430 0.824051 0.000000 
0.728247 0.507163 0.000000 
0.614827 0.508516 0.000000 
0.875000 1.000000 0.000000 
0.739930 0.833676 0.000000 
0.500000 0.833759 0.000000 
0.620486 0.833742 0.000000 
0.625000 1.000000 0.000000 
0.616828 0.669574 0.000000 
0.500000 0.508999 0.000000 
0.375000 1.000000 0.000000 
0.379514 0.833742 0.000000 
0.143781 0.832827 0.000000 
0.260070 0.833676 0.000000 
0.125000 1.000000 0.000000 
0.383172 0.669574 0.000000 
0.385173 0.508516 0.000000 
0.036570 0.824051 0.000000 
0.156299 0.666705 0.000000 
0.159051 0.348961 0.000000 
0.160490 0.505152 0.000000 
0.049854 0.504186 0.000000 
0.271753 0.507163 0.000000 
0.385349 0.351876 0.000000 
0.039207 0.202436 0.000000 
0.154458 0.198318 0.000000 
0.148912 0.053518 0.000000 
0.023234 -0.079562 0.000000 
0.269182 0.198773 0.000000 
0.078642 -0.212474 0.000000 
0.142474 -0.150781 0.000000 
0.081066 -0.148722 0.000000 
0.264808 -0.151580 0.000000 
0.203752 -0.151788 0.000000 
0.203436 -0.215634 0.000000 
0.205697 -0.017147 0.000000 
0.204403 -0.085500 0.000000 
0.264701 -0.016696 0.000000 
0.500000 -0.122983 0.000000 
0.448332 -0.141828 0.000000 
0.435872 -0.139650 0.000000 
0.440875 -0.010644 0.000000 
0.441514 -0.077443 0.000000 
0.500000 -0.009257 0.000000 
0.329412 -0.213476 0.000000 
0.386041 -0.145368 0.000000 
0.325505 -0.149733 0.000000 
0.442343 0.276273 0.000000 
0.441969 0.201743 0.000000 
0.500000 0.276486 0.000000 
0.324165 0.054805 0.000000 
0.383287 0.127837 0.000000 
0.325329 0.126475 0.000000 
0.500000 0.129460 0.000000 
0.441516 0.128984 0.000000 
0.441080 0.058151 0.000000 
0.323619 -0.083442 0.000000 
0.382056 -0.012888 0.000000 
0.323416 -0.015186 0.000000 
0.564128 -0.139650 0.000000 
0.551668 -0.141828 0.000000 
0.674495 -0.149733 0.000000 
0.613959 -0.145368 0.000000 
0.670588 -0.213476 0.000000 
0.558486 -0.077443 0.000000 
0.559125 -0.010644 0.000000 
0.918934 -0.148722 0.000000 
0.857526 -0.150781 0.000000 
0.921358 -0.212474 0.000000 
0.735299 -0.016696 0.000000 
0.795597 -0.085500 0.000000 
0.794303 -0.017147 0.000000 
0.796564 -0.215634 0.000000 
0.796248 -0.151788 0.000000 
0.735192 -0.151580 0.000000 
0.558031 0.201743 0.000000 
0.557657 0.276273 0.000000 
0.558920 0.058151 0.000000 
0.558484 0.128984 0.000000 
0.674671 0.126475 0.000000 
0.616713 0.127837 0.000000 
0.675835 0.054805 0.000000 
0.676381 -0.083442 0.000000 
0.676584 -0.015186 0.000000 
0.617944 -0.012888 0.000000 
0.980349 -0.145769 0.000000 
0.916252 -0.082680 0.000000 
0.909941 0.055245 0.000000 
0.913239 -0.014606 0.000000 
0.972934 -0.011400 0.000000 
0.853640 -0.016476 0.000000 
0.792465 0.053008 0.000000 
0.897323 0.349371 0.000000 
0.899966 0.273831 0.000000 
0.957106 0.276292 0.000000 
0.786177 0.273045 0.000000 
0.843008 0.272937 0.000000 
0.784664 0.349370 0.000000 
0.964797 0.129791 0.000000 
0.903095 0.199579 0.000000 
0.906494 0.126685 0.000000 
0.615129 0.275604 0.000000 
0.557410 0.352416 0.000000 
0.732486 0.125349 0.000000 
0.673432 0.199783 0.000000 
0.671614 0.351070 0.000000 
0.672352 0.274675 0.000000 
0.729337 0.273731 0.000000 
0.848314 0.125153 0.000000 
0.788145 0.198177 0.000000 
0.790325 0.124812 0.000000 
0.951505 0.427192 0.000000 
0.895451 0.426178 0.000000 
0.895358 0.583679 0.000000 
0.894684 0.504271 0.000000 
0.950169 0.582273 0.000000 
0.839693 0.426374 0.000000 
0.783911 0.427112 0.000000 
0.923668 0.915594 0.000000 
0.911263 0.830561 0.000000 
0.975714 0.908775 0.000000 
0.788445 0.668063 0.000000 
0.848800 0.749325 0.000000 
0.792869 0.750477 0.000000 
0.956090 0.741973 0.000000 
0.902933 0.746744 0.000000 
0.897908 0.664471 0.000000 
0.614525 0.429563 0.000000 
0.557339 0.430005 0.000000 
0.727851 0.428012 0.000000 
0.671391 0.428869 0.000000 
0.672901 0.588142 0.000000 
0.671791 0.507942 0.000000 
0.729615 0.587495 0.000000 
0.840726 0.585276 0.000000 
0.785569 0.586567 0.000000 
0.784129 0.506206 0.000000 
0.937500 1.000000 0.000000 
0.865460 0.916574 0.000000 
0.744887 0.916719 0.000000 
0.805514 0.916727 0.000000 
0.812500 1.000000 0.000000 
0.798719 0.833486 0.000000 
0.735543 0.750980 0.000000 
0.500000 0.916629 0.000000 
0.561381 0.916631 0.000000 
0.562500 1.000000 0.000000 
0.559325 0.751416 0.000000 
0.560302 0.833748 0.000000 
0.500000 0.751451 0.000000 
0.687500 1.000000 0.000000 
0.622703 0.916649 0.000000 
0.683901 0.916681 0.000000 
0.557502 0.508869 0.000000 
0.500000 0.430145 0.000000 
0.674754 0.669296 0.000000 
0.615595 0.588576 0.000000 
0.500000 0.588935 0.000000 
0.557894 0.588834 0.000000 
0.558509 0.669734 0.000000 
0.680422 0.833728 0.000000 
0.618487 0.751345 0.000000 
0.677304 0.751218 0.000000 
0.437500 1.000000 0.000000 
0.438619 0.916631 0.000000 
0.316099 0.916681 0.000000 
0.377297 0.916649 0.000000 
0.312500 1.000000 0.000000 
0.439698 0.833748 0.000000 
0.440675 0.751416 0.000000 
0.076332 0.915594 0.000000 
0.134540 0.916574 0.000000 
0.062500 1.000000 0.000000 
0.264457 0.750980 0.000000 
0.201281 0.833486 0.000000 
0.207131 0.750477 0.000000 
0.187500 1.000000 0.000000 
0.194486 0.916727 0.000000 
0.255113 0.916719 0.000000 
0.442498 0.508869 0.000000 
0.442661 0.430005 0.000000 
0.441491 0.669734 0.000000 
0.442106 0.588834 0.000000 
0.327099 0.588142 0.000000 
0.384405 0.588576 0.000000 
0.325246 0.669296 0.000000 
0.319578 0.833728 0.000000 
0.322696 0.751218 0.000000 
0.381513 0.751345 0.000000 
0.024286 0.908775 0.000000 
0.088737 0.830561 0.000000 
0.102092 0.664471 0.000000 
0.097067 0.746744 0.000000 
0.043910 0.741973 0.000000 
0.151200 0.749325 0.000000 
0.211555 0.668063 0.000000 
0.102677 0.349371 0.000000 
0.104549 0.426178 0.000000 
0.048495 0.427192 0.000000 
0.216089 0.427112 0.000000 
0.160307 0.426374 0.000000 
0.215336 0.349370 0.000000 
0.049831 0.582273 0.000000 
0.105316 0.504271 0.000000 
0.104642 0.583679 0.000000 
0.385475 0.429563 0.000000 
0.442590 0.352416 0.000000 
0.270385 0.587495 0.000000 
0.328209 0.507942 0.000000 
0.328386 0.351070 0.000000 
0.328609 0.428869 0.000000 
0.272149 0.428012 0.000000 
0.159274 0.585276 0.000000 
0.215871 0.506206 0.000000 
0.214431 0.586567 0.000000 
0.042894 0.276292 0.000000 
0.100034 0.273831 0.000000 
0.093506 0.126685 0.000000 
0.096905 0.199579 0.000000 
0.035203 0.129791 0.000000 
0.156992 0.272937 0.000000 
0.213823 0.273045 0.000000 
0.083748 -0.082680 0.000000 
0.019651 -0.145769 0.000000 
0.207535 0.053008 0.000000 
0.146360 -0.016476 0.000000 
0.027066 -0.011400 0.000000 
0.086761 -0.014606 0.000000 
0.090059 0.055245 0.000000 
0.384871 0.275604 0.000000 
0.270663 0.273731 0.000000 
0.327648 0.274675 0.000000 
0.326568 0.199783 0.000000 
0.267514 0.125349 0.000000 
0.151686 0.125153 0.000000 
0.209675 0.124812 0.000000 
0.211855 0.198177 0.000000 
0.047547 -0.211134 0.000000 
0.079836 -0.180894 0.000000 
0.048894 -0.179542 0.000000 
0.141719 -0.182983 0.000000 
0.110777 -0.182056 0.000000 
0.109783 -0.213636 0.000000 
0.112845 -0.117114 0.000000 
0.111781 -0.149874 0.000000 
0.143288 -0.117994 0.000000 
0.265442 -0.183885 0.000000 
0.234526 -0.184132 0.000000 
0.234745 -0.215727 0.000000 
0.234244 -0.118948 0.000000 
0.234316 -0.151852 0.000000 
0.264384 -0.118643 0.000000 
0.172181 -0.215238 0.000000 
0.203596 -0.184041 0.000000 
0.172659 -0.183650 0.000000 
0.235935 0.017831 0.000000 
0.235241 -0.017058 0.000000 
0.265239 0.018196 0.000000 
0.174341 -0.085222 0.000000 
0.204970 -0.051562 0.000000 
0.175138 -0.051329 0.000000 
0.264349 -0.051152 0.000000 
0.234709 -0.051505 0.000000 
0.234371 -0.085481 0.000000 
0.173134 -0.151424 0.000000 
0.204003 -0.118924 0.000000 
0.173679 -0.118601 0.000000 
0.500000 -0.101297 0.000000 
0.468287 -0.119264 0.000000 
0.471086 -0.128914 0.000000 
0.469875 -0.109766 0.000000 
0.466243 -0.106998 0.000000 
0.500000 -0.103287 0.000000 
0.421625 -0.178375 0.000000 
0.441440 -0.144657 0.000000 
0.418421 -0.172858 0.000000 
0.470414 0.024165 0.000000 
0.470375 -0.009801 0.000000 
0.500000 0.024506 0.000000 
0.412175 -0.078763 0.000000 
0.441018 -0.044278 0.000000 
0.411594 -0.045495 0.000000 
0.500000 -0.042277 0.000000 
0.470425 -0.043247 0.000000 
0.470561 -0.076323 0.000000 
0.297669 -0.214789 0.000000 
0.327140 -0.181981 0.000000 
0.296326 -0.183219 0.000000 
0.388255 -0.176426 0.000000 
0.357811 -0.179875 0.000000 
0.361476 -0.211053 0.000000 
0.354113 -0.115277 0.000000 
0.355726 -0.147906 0.000000 
0.383866 -0.113290 0.000000 
0.442794 -0.110202 0.000000 
0.413575 -0.111402 0.000000 
0.416828 -0.142930 0.000000 
[...]
POINT_DATA 1089

SCALARS u_h float 2
LOOKUP_TABLE default
0.016474 -0.209756 
-0.016474 -0.209756 
0.000000 0.000000 
0.000000 0.000000 
0.000000 -0.100000 
-0.045994 -0.148683 
0.000000 0.000000 
0.045994 -0.148683 
0.000000 -0.147491 
0.016139 -0.215475 
0.000000 -0.191085 
0.015917 -0.196493 
-0.016139 -0.215475 
-0.015917 -0.196493 
-0.031096 -0.191541 
-0.021733 -0.149834 
-0.048035 -0.088507 
-0.017950 -0.081161 
0.000000 0.000000 
0.000000 -0.080199 
0.000000 0.000000 
0.017950 -0.081161 
0.048035 -0.088507 
0.021733 -0.149834 
0.031096 -0.191541 
0.015965 -0.214566 
0.014232 -0.210148 
0.019200 -0.209657 
0.000000 -0.199281 
0.007688 -0.205389 
0.019111 -0.205889 
0.009142 -0.174115 
0.007485 -0.193445 
0.000000 -0.172938 
-0.019111 -0.205889 
-0.007688 -0.205389 
-0.019200 -0.209657 
-0.014232 -0.210148 
-0.015965 -0.214566 
-0.007485 -0.193445 
-0.009142 -0.174115 
-0.023234 -0.204562 
-0.023912 -0.196482 
-0.034051 -0.151039 
-0.029458 -0.176682 
-0.039207 -0.172564 
-0.019182 -0.176227 
-0.010349 -0.148124 
-0.049854 -0.120814 
-0.035490 -0.119848 
-0.018781 -0.042173 
-0.031299 -0.083295 
-0.036570 -0.050949 
-0.021753 -0.117837 
-0.010173 -0.116484 
0.000000 0.000000 
-0.010070 -0.041324 
0.000000 -0.041241 
-0.004514 -0.041258 
0.000000 0.000000 
-0.008172 -0.080426 
0.000000 -0.116001 
0.000000 0.000000 
0.004514 -0.041258 
0.018781 -0.042173 
0.010070 -0.041324 
0.000000 0.000000 
0.008172 -0.080426 
0.010173 -0.116484 
0.036570 -0.050949 
0.031299 -0.083295 
0.034051 -0.151039 
0.035490 -0.119848 
0.049854 -0.120814 
0.021753 -0.117837 
0.010349 -0.148124 
0.039207 -0.172564 
0.029458 -0.176682 
0.023912 -0.196482 
0.023234 -0.204562 
0.019182 -0.176227 
0.016142 -0.212474 
0.017474 -0.213281 
0.018566 -0.211222 
0.014808 -0.214080 
0.016252 -0.214288 
0.015936 -0.215634 
0.018197 -0.204647 
0.016903 -0.210500 
0.014701 -0.204196 
-0.000000 -0.185483 
0.010832 -0.204328 
-0.001628 -0.139650 
0.003375 -0.198144 
0.004014 -0.202443 
0.000000 -0.196757 
0.016912 -0.213476 
0.011041 -0.207868 
0.013005 -0.212233 
0.004843 -0.161227 
0.004469 -0.173257 
0.000000 -0.161014 
0.011665 -0.195195 
0.008287 -0.184663 
0.012829 -0.186025 
0.000000 -0.183040 
0.004016 -0.183516 
0.003580 -0.191849 
0.011119 -0.208442 
0.007056 -0.200388 
0.010916 -0.202686 
0.001628 -0.139650 
-0.010832 -0.204328 
-0.013005 -0.212233 
-0.011041 -0.207868 
-0.016912 -0.213476 
-0.004014 -0.202443 
-0.003375 -0.198144 
-0.018566 -0.211222 
-0.017474 -0.213281 
-0.016142 -0.212474 
-0.014701 -0.204196 
-0.016903 -0.210500 
-0.018197 -0.204647 
-0.015936 -0.215634 
-0.016252 -0.214288 
-0.014808 -0.214080 
-0.004469 -0.173257 
-0.004843 -0.161227 
-0.003580 -0.191849 
-0.004016 -0.183516 
-0.012829 -0.186025 
-0.008287 -0.184663 
-0.011665 -0.195195 
-0.011119 -0.208442 
-0.010916 -0.202686 
-0.007056 -0.200388 
-0.019651 -0.208269 
-0.021248 -0.207680 
-0.027559 -0.194755 
-0.024261 -0.202106 
-0.027066 -0.198900 
-0.021360 -0.203976 
-0.020035 -0.196992 
-0.040177 -0.150629 
-0.037534 -0.163669 
-0.042894 -0.161208 
-0.026323 -0.164455 
-0.031992 -0.164563 
-0.027836 -0.150630 
-0.035203 -0.182709 
-0.034405 -0.175421 
-0.031006 -0.185815 
-0.009871 -0.161896 
-0.005090 -0.147584 
-0.017514 -0.187151 
-0.014068 -0.175217 
-0.015886 -0.148930 
-0.015148 -0.162825 
-0.020663 -0.163769 
-0.026686 -0.187347 
-0.024355 -0.176823 
-0.022175 -0.187688 
-0.048495 -0.135308 
-0.042049 -0.136322 
-0.042142 -0.103821 
-0.042816 -0.120729 
-0.049831 -0.105227 
-0.035307 -0.136126 
-0.028589 -0.135388 
-0.013832 -0.021906 
-0.026237 -0.044439 
-0.024286 -0.028725 
-0.024055 -0.081937 
-0.026200 -0.063175 
-0.019631 -0.062023 
-0.043910 -0.070527 
-0.034567 -0.065756 
-0.039592 -0.085529 
-0.010475 -0.132937 
-0.005161 -0.132495 
-0.022149 -0.134488 
-0.016109 -0.133631 
-0.014599 -0.099358 
-0.015709 -0.117058 
-0.020385 -0.100005 
-0.034274 -0.102224 
-0.026931 -0.100933 
-0.028371 -0.118794 
0.000000 0.000000 
-0.009540 -0.020926 
-0.005113 -0.020781 
-0.006986 -0.020773 
0.000000 0.000000 
-0.013781 -0.041514 
-0.014457 -0.061520 
0.000000 -0.020871 
-0.001119 -0.020869 
0.000000 0.000000 
-0.003175 -0.061084 
-0.002198 -0.041252 
0.000000 -0.061049 
0.000000 0.000000 
-0.002297 -0.020851 
-0.003599 -0.020819 
-0.004998 -0.116131 
0.000000 -0.132355 
-0.012746 -0.080704 
-0.009405 -0.098924 
0.000000 -0.098565 
-0.004606 -0.098666 
-0.003991 -0.080266 
-0.007078 -0.041272 
-0.006513 -0.061155 
-0.010196 -0.061282 
0.000000 0.000000 
0.001119 -0.020869 
0.003599 -0.020819 
0.002297 -0.020851 
0.000000 0.000000 
0.002198 -0.041252 
0.003175 -0.061084 
0.013832 -0.021906 
0.009540 -0.020926 
0.000000 0.000000 
0.014457 -0.061520 
0.013781 -0.041514 
0.019631 -0.062023 
0.000000 0.000000 
0.006986 -0.020773 
0.005113 -0.020781 
0.004998 -0.116131 
0.005161 -0.132495 
0.003991 -0.080266 
0.004606 -0.098666 
0.014599 -0.099358 
0.009405 -0.098924 
0.012746 -0.080704 
0.007078 -0.041272 
0.010196 -0.061282 
0.006513 -0.061155 
0.024286 -0.028725 
0.026237 -0.044439 
0.039592 -0.085529 
0.034567 -0.065756 
0.043910 -0.070527 
0.026200 -0.063175 
0.024055 -0.081937 
0.040177 -0.150629 
0.042049 -0.136322 
0.048495 -0.135308 
0.028589 -0.135388 
0.035307 -0.136126 
0.027836 -0.150630 
0.049831 -0.105227 
0.042816 -0.120729 
0.042142 -0.103821 
0.010475 -0.132937 
0.005090 -0.147584 
0.020385 -0.100005 
0.015709 -0.117058 
0.015886 -0.148930 
0.016109 -0.133631 
0.022149 -0.134488 
0.034274 -0.102224 
0.028371 -0.118794 
0.026931 -0.100933 
0.042894 -0.161208 
0.037534 -0.163669 
0.031006 -0.185815 
0.034405 -0.175421 
0.035203 -0.182709 
0.031992 -0.164563 
0.026323 -0.164455 
0.021248 -0.207680 
0.019651 -0.208269 
0.020035 -0.196992 
0.021360 -0.203976 
0.027066 -0.198900 
0.024261 -0.202106 
0.027559 -0.194755 
0.009871 -0.161896 
0.020663 -0.163769 
0.015148 -0.162825 
0.014068 -0.175217 
0.017514 -0.187151 
0.026686 -0.187347 
0.022175 -0.187688 
0.024355 -0.176823 
0.016297 -0.211134 
0.017336 -0.212144 
0.017644 -0.210792 
0.016719 -0.214233 
0.017027 -0.213306 
0.016033 -0.213636 
0.019095 -0.210864 
0.018031 -0.212374 
0.018288 -0.211744 
0.015442 -0.215135 
0.015776 -0.215382 
0.015995 -0.215727 
0.015494 -0.212698 
0.015566 -0.214352 
0.014384 -0.212393 
0.015931 -0.215238 
0.016096 -0.215291 
0.016409 -0.214900 
0.017185 -0.200919 
0.016491 -0.204558 
0.015239 -0.200554 
0.018091 -0.210222 
0.017470 -0.207812 
0.018888 -0.207579 
0.014349 -0.207402 
0.015959 -0.207755 
0.015621 -0.210481 
0.016884 -0.213924 
0.016503 -0.212674 
0.017429 -0.212351 
0.000000 -0.132547 
-0.000463 -0.150514 
0.002336 -0.128914 
0.001125 -0.203516 
-0.002507 -0.169498 
0.000000 -0.197037 
0.015375 -0.178375 
0.003940 -0.175907 
0.012171 -0.204108 
0.001664 -0.194585 
0.001625 -0.197301 
0.000000 -0.194244 
0.005925 -0.203763 
0.003518 -0.200528 
0.005344 -0.201745 
0.000000 -0.198527 
0.001675 -0.199497 
0.001811 -0.201323 
0.016419 -0.214789 
0.014640 -0.213231 
0.015076 -0.214469 
0.013255 -0.207676 
0.014061 -0.211125 
0.017726 -0.211053 
0.010363 -0.209027 
0.011976 -0.210406 
0.008866 -0.207040 
0.005294 -0.203952 
0.007325 -0.205152 
0.010578 -0.205430 
0.002473 -0.154455 
0.002404 -0.161056 
0.000000 -0.154438 
0.006774 -0.173635 
0.004670 -0.167454 
0.007070 -0.167782 
0.000000 -0.167190 
0.002319 -0.167251 
0.002217 -0.173016 
0.013797 -0.195928 
0.012219 -0.190818 
0.014453 -0.191488 
0.007865 -0.189280 
0.010015 -0.190061 
0.009551 -0.194344 
0.011059 -0.180210 
0.010530 -0.185347 
0.008721 -0.179604 
0.000000 -0.187337 
0.001864 -0.187505 
0.001752 -0.191317 
0.002105 -0.178330 
0.001985 -0.183168 
0.000000 -0.178230 
0.005491 -0.192585 
0.003787 -0.187932 
0.005786 -0.188546 
0.006451 -0.179057 
0.006115 -0.184033 
0.004248 -0.178618 
0.013959 -0.213409 
0.009424 -0.207047 
0.011813 -0.210611 
0.013160 -0.211717 
0.012730 -0.209477 
0.003426 -0.195255 
0.007194 -0.197151 
0.005271 -0.196138 
0.005187 -0.199195 
0.007169 -0.203144 
0.013240 -0.199956 
0.012643 -0.206747 
0.012835 -0.203566 
0.011210 -0.199152 
0.009183 -0.198191 
0.009015 -0.204555 
0.008975 -0.201598 
0.010854 -0.205788 
-0.002336 -0.128914 
0.000463 -0.150514 
-0.012171 -0.204108 
-0.003940 -0.175907 
-0.015375 -0.178375 
0.002507 -0.169498 
-0.001125 -0.203516 
-0.015076 -0.214469 
-0.014640 -0.213231 
-0.016419 -0.214789 
-0.008866 -0.207040 
-0.011976 -0.210406 
-0.010363 -0.209027 
-0.017726 -0.211053 
-0.014061 -0.211125 
-0.013255 -0.207676 
-0.001625 -0.197301 
-0.001664 -0.194585 
-0.001811 -0.201323 
-0.001675 -0.199497 
-0.005344 -0.201745 
-0.003518 -0.200528 
-0.005925 -0.203763 
-0.010578 -0.205430 
-0.007325 -0.205152 
-0.005294 -0.203952 
-0.017644 -0.210792 
-0.017336 -0.212144 
-0.016297 -0.211134 
-0.018288 -0.211744 
-0.018031 -0.212374 
-0.019095 -0.210864 
-0.016033 -0.213636 
-0.017027 -0.213306 
-0.016719 -0.214233 
-0.015239 -0.200554 
-0.016491 -0.204558 
-0.017185 -0.200919 
-0.015621 -0.210481 
-0.015959 -0.207755 
-0.014349 -0.207402 
-0.018888 -0.207579 
-0.017470 -0.207812 
-0.018091 -0.210222 
-0.015995 -0.215727 
-0.015776 -0.215382 
-0.015442 -0.215135 
-0.016409 -0.214900 
-0.016096 -0.215291 
-0.015931 -0.215238 
-0.014384 -0.212393 
-0.015566 -0.214352 
-0.015494 -0.212698 
-0.017429 -0.212351 
-0.016503 -0.212674 
-0.016884 -0.213924 
-0.002404 -0.161056 
-0.002473 -0.154455 
-0.002217 -0.173016 
-0.002319 -0.167251 
-0.007070 -0.167782 
-0.004670 -0.167454 
-0.006774 -0.173635 
-0.001752 -0.191317 
-0.001864 -0.187505 
-0.005786 -0.188546 
-0.003787 -0.187932 
-0.005491 -0.192585 
-0.001985 -0.183168 
-0.002105 -0.178330 
-0.014453 -0.191488 
-0.012219 -0.190818 
-0.013797 -0.195928 
-0.008721 -0.179604 
-0.010530 -0.185347 
-0.011059 -0.180210 
-0.009551 -0.194344 
-0.010015 -0.190061 
-0.007865 -0.189280 
-0.004248 -0.178618 
-0.006115 -0.184033 
-0.006451 -0.179057 
-0.013959 -0.213409 
-0.012730 -0.209477 
-0.013160 -0.211717 
-0.011813 -0.210611 
-0.009424 -0.207047 
-0.013240 -0.199956 
-0.009183 -0.198191 
-0.011210 -0.199152 
-0.012835 -0.203566 
-0.012643 -0.206747 
-0.003426 -0.195255 
-0.007169 -0.203144 
-0.005187 -0.199195 
-0.005271 -0.196138 
-0.007194 -0.197151 
-0.010854 -0.205788 
-0.008975 -0.201598 
-0.009015 -0.204555 
-0.017972 -0.209311 
-0.019093 -0.209849 
-0.022233 -0.206266 
-0.020627 -0.208326 
-0.021410 -0.206677 
-0.019866 -0.209723 
-0.020245 -0.208809 
-0.029329 -0.193354 
-0.027471 -0.197221 
-0.029062 -0.195417 
-0.024263 -0.199705 
-0.025881 -0.198640 
-0.025760 -0.195786 
-0.025121 -0.201959 
-0.025661 -0.200681 
-0.023912 -0.203706 
-0.019062 -0.201033 
-0.018002 -0.196857 
-0.020224 -0.207057 
-0.019818 -0.204455 
-0.022006 -0.196875 
-0.020865 -0.200880 
-0.022596 -0.200443 
-0.022713 -0.205130 
-0.022835 -0.203198 
-0.021493 -0.206243 
-0.043136 -0.149915 
-0.041760 -0.156439 
-0.044543 -0.155090 
-0.036036 -0.157790 
-0.038927 -0.157307 
-0.037139 -0.150972 
-0.041105 -0.167033 
-0.040234 -0.162673 
-0.038577 -0.168606 
-0.024190 -0.157391 
-0.027151 -0.157722 
-0.024760 -0.150260 
-0.030769 -0.170801 
-0.029166 -0.164604 
-0.028087 -0.170918 
-0.030941 -0.150906 
-0.030127 -0.157932 
-0.033096 -0.157975 
-0.033150 -0.187298 
-0.033111 -0.184487 
-0.031216 -0.189102 
-0.036819 -0.174226 
-0.034987 -0.179523 
-0.037231 -0.177793 
-0.030428 -0.181667 
-0.032725 -0.180793 
-0.031953 -0.176219 
-0.034785 -0.164274 
-0.033415 -0.170419 
-0.036017 -0.169710 
-0.004985 -0.154596 
-0.002534 -0.147462 
-0.009530 -0.168207 
-0.007328 -0.161514 
-0.007690 -0.147811 
-0.007538 -0.154851 
-0.010148 -0.155196 
-0.016689 -0.192023 
-0.015164 -0.186642 
-0.016608 -0.175754 
-0.015894 -0.181396 
-0.018356 -0.181884 
-0.013455 -0.180823 
-0.011575 -0.174656 
-0.018772 -0.149382 
-0.018385 -0.156528 
-0.021263 -0.156982 
-0.012824 -0.155607 
-0.015570 -0.156060 
-0.013079 -0.148504 
-0.019960 -0.170186 
-0.017880 -0.163312 
-0.017279 -0.169723 
-0.012054 -0.168697 
-0.014640 -0.169214 
-0.012477 -0.162343 
-0.029275 -0.190474 
-0.028087 -0.182200 
-0.028868 -0.186752 
-0.027303 -0.191463 
-0.025285 -0.192112 
-0.023483 -0.164162 
-0.021770 -0.176596 
-0.022666 -0.170566 
-0.025381 -0.170824 
-0.026922 -0.176867 
-0.018905 -0.192385 
-0.023212 -0.192459 
-0.021084 -0.192540 
-0.019857 -0.187512 
-0.020823 -0.182247 
-0.025701 -0.182445 
-0.023276 -0.182447 
-0.024454 -0.187646 
-0.047385 -0.142142 
-0.044358 -0.143117 
-0.046022 -0.128625 
-0.045329 -0.136020 
-0.049328 -0.128198 
-0.041232 -0.143636 
-0.038034 -0.143817 
-0.045239 -0.095961 
-0.046065 -0.104607 
-0.049184 -0.097014 
-0.039155 -0.120339 
-0.042683 -0.112443 
-0.038870 -0.111840 
-0.050037 -0.113159 
-0.046435 -0.112925 
-0.046405 -0.120928 
-0.028318 -0.143182 
-0.025140 -0.142773 
-0.034793 -0.143755 
-0.031544 -0.143524 
-0.032050 -0.127725 
-0.031926 -0.135796 
-0.035552 -0.128157 
-0.042590 -0.128687 
-0.039082 -0.128500 
-0.038695 -0.136326 
-0.008705 -0.011530 
-0.017965 -0.023867 
-0.014881 -0.015672 
-0.022108 -0.042973 
-0.020545 -0.033261 
-0.016975 -0.032078 
-0.031224 -0.040294 
-0.025380 -0.035717 
-0.031199 -0.046966 
-0.020873 -0.081496 
-0.022037 -0.072077 
-0.019044 -0.071698 
-0.029035 -0.073371 
-0.025354 -0.072613 
-0.027527 -0.082523 
-0.019594 -0.052168 
-0.022706 -0.062478 
-0.022775 -0.052752 
-0.046309 -0.079688 
-0.041932 -0.077614 
-0.043889 -0.086971 
-0.035745 -0.057659 
-0.039262 -0.067857 
-0.040719 -0.060976 
-0.035347 -0.084292 
-0.037435 -0.075834 
-0.033083 -0.074424 
-0.026515 -0.053724 
-0.030161 -0.064226 
-0.030876 -0.055288 
-0.005156 -0.140209 
-0.002577 -0.140098 
-0.010462 -0.140698 
-0.007777 -0.140414 
-0.007711 -0.124628 
-0.007786 -0.132680 
-0.010380 -0.124859 
-0.022031 -0.142331 
-0.019005 -0.141882 
-0.018967 -0.125887 
-0.019076 -0.134046 
-0.022063 -0.126319 
-0.016068 -0.141448 
-0.013222 -0.141048 
-0.016442 -0.090388 
-0.017406 -0.099652 
-0.019304 -0.090697 
-0.012885 -0.116744 
-0.015246 -0.108339 
-0.012488 -0.108060 
-0.021198 -0.109059 
-0.018144 -0.108671 
-0.018661 -0.117423 
-0.013245 -0.133258 
-0.015994 -0.125495 
-0.013136 -0.125150 
-0.041135 -0.094853 
-0.033030 -0.092918 
-0.037023 -0.093818 
-0.038177 -0.103000 
-0.035079 -0.111202 
-0.022376 -0.091083 
-0.024422 -0.109506 
-0.023556 -0.100428 
-0.025683 -0.091566 
-0.029237 -0.092171 
-0.025324 -0.134943 
-0.031880 -0.119319 
-0.028618 -0.127255 
-0.025283 -0.126779 
-0.024990 -0.118296 
-0.030510 -0.101531 
-0.027818 -0.110015 
-0.031379 -0.110585 
0.000000 0.000000 
-0.006701 -0.010766 
-0.004690 -0.010417 
-0.005529 -0.010510 
0.000000 0.000000 
-0.011327 -0.021209 
-0.014312 -0.031532 
-0.002550 -0.010419 
-0.002982 -0.010402 
0.000000 0.000000 
-0.008958 -0.031102 
-0.005991 -0.020769 
-0.007638 -0.031086 
0.000000 0.000000 
-0.003467 -0.010389 
-0.004025 -0.010389 
-0.016903 -0.061722 
-0.016330 -0.071425 
-0.016064 -0.041744 
-0.016863 -0.051819 
-0.012358 -0.051477 
-0.014477 -0.051607 
-0.011810 -0.041390 
-0.008142 -0.020811 
-0.010457 -0.031153 
-0.012205 -0.031273 
-0.000000 -0.010496 
-0.000278 -0.010496 
0.000000 0.000000 
-0.000828 -0.031125 
-0.000555 -0.020872 
0.000000 -0.031121 
0.000000 0.000000 
-0.000560 -0.010493 
-0.000849 -0.010487 
-0.001792 -0.070732 
-0.001577 -0.061063 
0.000000 -0.070714 
-0.003334 -0.041255 
-0.002703 -0.051242 
-0.004099 -0.051257 
0.000000 -0.051221 
-0.001343 -0.051230 
-0.001092 -0.041247 
0.000000 0.000000 
-0.001799 -0.010453 
-0.002159 -0.010437 
-0.001150 -0.010479 
-0.001465 -0.010467 
0.000000 0.000000 
-0.004366 -0.031104 
-0.002928 -0.020837 
-0.003424 -0.031113 
-0.001667 -0.031124 
-0.002529 -0.031120 
-0.001696 -0.020862 
-0.002576 -0.132388 
0.000000 -0.140082 
-0.007551 -0.116279 
-0.005108 -0.124461 
0.000000 -0.124323 
-0.002546 -0.124360 
-0.002489 -0.116039 
-0.015253 -0.080904 
-0.013764 -0.090139 
-0.008845 -0.089782 
-0.011241 -0.089940 
-0.010396 -0.080548 
-0.011940 -0.099118 
-0.009848 -0.107832 
0.000000 -0.089489 
-0.002151 -0.089516 
-0.001984 -0.080222 
-0.002404 -0.107444 
-0.002291 -0.098596 
0.000000 -0.107409 
-0.006045 -0.080333 
-0.004326 -0.089573 
-0.006549 -0.089660 
-0.007304 -0.107654 
-0.006969 -0.098774 
-0.004831 -0.107525 
-0.004322 -0.020800 
-0.005755 -0.041263 
-0.005369 -0.031094 
-0.006452 -0.031087 
-0.008506 -0.041289 
-0.003606 -0.070764 
-0.007391 -0.070877 
-0.005464 -0.070812 
-0.004813 -0.061114 
-0.005549 -0.051277 
-0.013846 -0.071226 
-0.010446 -0.051394 
-0.012236 -0.061381 
-0.011552 -0.071077 
-0.009411 -0.070964 
-0.007073 -0.051303 
-0.008298 -0.061209 
-0.008696 -0.051340 
0.000000 0.000000 
0.000278 -0.010496 
0.000849 -0.010487 
0.000560 -0.010493 
0.000000 0.000000 
0.000555 -0.020872 
0.000828 -0.031125 
0.002159 -0.010437 
0.001799 -0.010453 
0.000000 0.000000 
0.003424 -0.031113 
0.002928 -0.020837 
0.004366 -0.031104 
0.000000 0.000000 
0.001465 -0.010467 
0.001150 -0.010479 
0.001577 -0.061063 
0.001792 -0.070732 
0.001092 -0.041247 
0.001343 -0.051230 
0.004099 -0.051257 
0.002703 -0.051242 
0.003334 -0.041255 
0.001696 -0.020862 
0.002529 -0.031120 
0.001667 -0.031124 
0.008705 -0.011530 
0.006701 -0.010766 
0.000000 0.000000 
0.014312 -0.031532 
0.011327 -0.021209 
0.016975 -0.032078 
0.000000 0.000000 
0.005529 -0.010510 
0.004690 -0.010417 
0.016330 -0.071425 
0.016903 -0.061722 
0.019044 -0.071698 
0.011810 -0.041390 
0.014477 -0.051607 
0.012358 -0.051477 
0.019594 -0.052168 
0.016863 -0.051819 
0.016064 -0.041744 
0.000000 0.000000 
0.002982 -0.010402 
0.002550 -0.010419 
0.004025 -0.010389 
0.003467 -0.010389 
0.000000 0.000000 
0.007638 -0.031086 
0.005991 -0.020769 
0.008958 -0.031102 
0.012205 -0.031273 
0.010457 -0.031153 
0.008142 -0.020811 
0.002576 -0.132388 
0.002577 -0.140098 
0.002489 -0.116039 
0.002546 -0.124360 
0.007711 -0.124628 
0.005108 -0.124461 
0.007551 -0.116279 
0.001984 -0.080222 
0.002151 -0.089516 
0.006549 -0.089660 
0.004326 -0.089573 
0.006045 -0.080333 
0.002291 -0.098596 
0.002404 -0.107444 
0.016442 -0.090388 
0.013764 -0.090139 
0.015253 -0.080904 
0.009848 -0.107832 
0.011940 -0.099118 
0.012488 -0.108060 
0.010396 -0.080548 
0.011241 -0.089940 
0.008845 -0.089782 
0.004831 -0.107525 
0.006969 -0.098774 
0.007304 -0.107654 
0.004322 -0.020800 
0.008506 -0.041289 
0.006452 -0.031087 
0.005369 -0.031094 
0.005755 -0.041263 
0.013846 -0.071226 
0.009411 -0.070964 
0.011552 -0.071077 
0.012236 -0.061381 
0.010446 -0.051394 
0.003606 -0.070764 
0.005549 -0.051277 
0.004813 -0.061114 
0.005464 -0.070812 
0.007391 -0.070877 
0.008696 -0.051340 
0.008298 -0.061209 
0.007073 -0.051303 
0.014881 -0.015672 
0.017965 -0.023867 
0.031199 -0.046966 
0.025380 -0.035717 
0.031224 -0.040294 
0.020545 -0.033261 
0.022108 -0.042973 
0.043889 -0.086971 
0.041932 -0.077614 
0.046309 -0.079688 
0.033083 -0.074424 
0.037435 -0.075834 
0.035347 -0.084292 
0.040719 -0.060976 
0.039262 -0.067857 
0.035745 -0.057659 
0.022037 -0.072077 
0.020873 -0.081496 
0.022775 -0.052752 
0.022706 -0.062478 
0.027527 -0.082523 
0.025354 -0.072613 
0.029035 -0.073371 
0.030876 -0.055288 
0.030161 -0.064226 
0.026515 -0.053724 
0.043136 -0.149915 
0.044358 -0.143117 
0.047385 -0.142142 
0.038034 -0.143817 
0.041232 -0.143636 
0.037139 -0.150972 
0.049328 -0.128198 
0.045329 -0.136020 
0.046022 -0.128625 
0.025140 -0.142773 
0.028318 -0.143182 
0.024760 -0.150260 
0.035552 -0.128157 
0.031926 -0.135796 
0.032050 -0.127725 
0.030941 -0.150906 
0.031544 -0.143524 
0.034793 -0.143755 
0.049184 -0.097014 
0.046065 -0.104607 
0.045239 -0.095961 
0.046405 -0.120928 
0.046435 -0.112925 
0.050037 -0.113159 
0.038870 -0.111840 
0.042683 -0.112443 
0.039155 -0.120339 
0.038695 -0.136326 
0.039082 -0.128500 
0.042590 -0.128687 
0.005156 -0.140209 
0.002534 -0.147462 
0.010380 -0.124859 
0.007786 -0.132680 
0.007690 -0.147811 
0.007777 -0.140414 
0.010462 -0.140698 
0.019304 -0.090697 
0.017406 -0.099652 
0.018661 -0.117423 
0.018144 -0.108671 
0.021198 -0.109059 
0.015246 -0.108339 
0.012885 -0.116744 
0.018772 -0.149382 
0.019005 -0.141882 
0.022031 -0.142331 
0.013222 -0.141048 
0.016068 -0.141448 
0.013079 -0.148504 