# vtk DataFile Version 2.0
Unstructured Grid Example
ASCII
DATASET UNSTRUCTURED_GRID

POINTS 64 float
0.000000 0.000000 0.000000 
0.031250 0.000000 0.000000 
0.031250 0.000000 0.000000 
0.062500 0.000000 0.000000 
0.062500 0.000000 0.000000 
0.093750 0.000000 0.000000 
0.093750 0.000000 0.000000 
0.125000 0.000000 0.000000 
0.187500 0.000000 0.000000 
0.218750 0.000000 0.000000 
0.218750 0.000000 0.000000 
0.250000 0.000000 0.000000 
0.125000 0.000000 0.000000 
0.156250 0.000000 0.000000 
0.156250 0.000000 0.000000 
0.187500 0.000000 0.000000 
0.437500 -5.202314 0.000000 
0.468750 -5.197409 0.000000 
0.468750 -5.273383 0.000000 
0.500000 -5.050366 0.000000 
0.375000 -7.657408 0.000000 
0.406250 -4.266599 0.000000 
0.406250 -5.593059 0.000000 
0.437500 -5.004489 0.000000 
0.250000 4.735603 0.000000 
0.281250 -9.471205 0.000000 
0.281250 -5.261196 0.000000 
0.312500 -3.684417 0.000000 
0.312500 -1.758941 0.000000 
0.343750 -9.112148 0.000000 
0.343750 -6.795019 0.000000 
0.375000 -6.393198 0.000000 
0.500000 -4.843420 0.000000 
0.531250 -5.687275 0.000000 
0.531250 -4.300842 0.000000 
0.562500 -7.616286 0.000000 
0.562500 -5.421290 0.000000 
0.593750 -8.690835 0.000000 
0.593750 -12.875951 0.000000 
0.625000 2.948942 0.000000 
0.687500 6.457067 0.000000 
0.718750 -15.567953 0.000000 
0.718750 -16.452559 0.000000 
0.750000 8.226280 0.000000 
0.625000 -4.359566 0.000000 
0.656250 1.741065 0.000000 
0.656250 0.299649 0.000000 
0.687500 -1.476734 0.000000 
0.937500 0.000000 0.000000 
0.968750 0.000000 0.000000 
0.968750 0.000000 0.000000 
1.000000 0.000000 0.000000 
0.875000 0.000000 0.000000 
0.906250 0.000000 0.000000 
0.906250 0.000000 0.000000 
0.937500 0.000000 0.000000 
0.750000 0.000000 0.000000 
0.781250 0.000000 0.000000 
0.781250 0.000000 0.000000 
0.812500 0.000000 0.000000 
0.812500 0.000000 0.000000 
0.843750 0.000000 0.000000 
0.843750 0.000000 0.000000 
0.875000 0.000000 0.000000 

CELLS 32 96
2  0 1 
2  2 3 
2  4 5 
2  6 7 
2  8 9 
2  10 11 
2  12 13 
2  14 15 
2  16 17 
2  18 19 
2  20 21 
2  22 23 
2  24 25 
2  26 27 
2  28 29 
2  30 31 
2  32 33 
2  34 35 
2  36 37 
2  38 39 
2  40 41 
2  42 43 
2  44 45 
2  46 47 
2  48 49 
2  50 51 
2  52 53 
2  54 55 
2  56 57 
2  58 59 
2  60 61 
2  62 63 

CELL_TYPES 32
3
3
3
3
3
3
3
3
3
3
3
3
3
3
3
3
3
3
3
3
3
3
3
3
3
3
3
3
3
3
3
3

POINT_DATA 64

SCALARS lambda_h float 1
LOOKUP_TABLE default
0.000000 
0.000000 
0.000000 
0.000000 
0.000000 
0.000000 
0.000000 
0.000000 
0.000000 
0.000000 
0.000000 
0.000000 
0.000000 
0.000000 
0.000000 
0.000000 
-5.202314 
-5.197409 
-5.273383 
-5.050366 
-7.657408 
-4.266599 
-5.593059 
-5.004489 
4.735603 
-9.471205 
-5.261196 
-3.684417 
-1.758941 
-9.112148 
-6.795019 
-6.393198 
-4.843420 
-5.687275 
-4.300842 
-7.616286 
-5.421290 
-8.690835 
-12.875951 
2.948942 
6.457067 
-15.567953 
-16.452559 
8.226280 
-4.359566 
1.741065 
0.299649 
-1.476734 
0.000000 
0.000000 
0.000000 
0.000000 
0.000000 
0.000000 
0.000000 
0.000000 
0.000000 
0.000000 
0.000000 
0.000000 
0.000000 
0.000000 
0.000000 
0.000000 

