# vtk DataFile Version 2.0
Unstructured Grid Example
ASCII
DATASET UNSTRUCTURED_GRID

POINTS 1089 float
0.015868 -0.187572 0.000000 
0.974068 -0.194985 0.000000 
1.000000 1.000000 0.000000 
0.000000 1.000000 0.000000 
0.498484 -0.100000 0.000000 
0.968153 0.368432 0.000000 
0.500000 1.000000 0.000000 
0.028637 0.372942 0.000000 
0.499394 0.377795 0.000000 
0.270292 -0.143736 0.000000 
0.498682 0.109556 0.000000 
0.249595 0.094959 0.000000 
0.717638 -0.141114 0.000000 
0.744726 0.089740 0.000000 
0.981826 0.077221 0.000000 
0.737564 0.370682 0.000000 
0.961347 0.671469 0.000000 
0.736833 0.677543 0.000000 
0.750000 1.000000 0.000000 
0.499976 0.679905 0.000000 
0.250000 1.000000 0.000000 
0.262815 0.678546 0.000000 
0.037401 0.673572 0.000000 
0.260315 0.373180 0.000000 
0.011630 0.083953 0.000000 
0.141917 -0.179218 0.000000 
0.248150 -0.032046 0.000000 
0.129998 -0.050321 0.000000 
0.498556 -0.004427 0.000000 
0.371126 -0.008523 0.000000 
0.375865 -0.100000 0.000000 
0.375957 0.236470 0.000000 
0.372696 0.106383 0.000000 
0.498985 0.238281 0.000000 
0.629943 -0.100000 0.000000 
0.624243 -0.018180 0.000000 
0.861853 -0.056429 0.000000 
0.743393 -0.038802 0.000000 
0.847757 -0.185700 0.000000 
0.623551 0.102224 0.000000 
0.621469 0.234169 0.000000 
0.981714 -0.063338 0.000000 
0.863697 0.079383 0.000000 
0.853360 0.366582 0.000000 
0.859265 0.220340 0.000000 
0.975763 0.221490 0.000000 
0.741494 0.226575 0.000000 
0.619477 0.375496 0.000000 
0.962348 0.518077 0.000000 
0.849541 0.518139 0.000000 
0.859562 0.836714 0.000000 
0.850651 0.675030 0.000000 
0.969122 0.829645 0.000000 
0.735451 0.521354 0.000000 
0.618550 0.524391 0.000000 
0.875000 1.000000 0.000000 
0.742241 0.837679 0.000000 
0.500072 0.838331 0.000000 
0.621759 0.838088 0.000000 
0.625000 1.000000 0.000000 
0.619339 0.679135 0.000000 
0.499735 0.525869 0.000000 
0.375000 1.000000 0.000000 
0.378348 0.838321 0.000000 
0.140243 0.837399 0.000000 
0.257760 0.838136 0.000000 
0.125000 1.000000 0.000000 
0.380534 0.679653 0.000000 
0.380773 0.525277 0.000000 
0.030219 0.830686 0.000000 
0.148636 0.676524 0.000000 
0.143944 0.369973 0.000000 
0.148931 0.520537 0.000000 
0.035587 0.521344 0.000000 
0.263498 0.523019 0.000000 
0.379007 0.376910 0.000000 
0.019523 0.227221 0.000000 
0.136457 0.224779 0.000000 
0.130084 0.084808 0.000000 
0.009862 -0.056028 0.000000 
0.254899 0.230195 0.000000 
0.078286 -0.184056 0.000000 
0.134441 -0.115957 0.000000 
0.073515 -0.120369 0.000000 
0.252024 -0.092226 0.000000 
0.194156 -0.107445 0.000000 
0.206620 -0.169404 0.000000 
0.188250 0.022376 0.000000 
0.189174 -0.043080 0.000000 
0.248004 0.030421 0.000000 
0.498384 -0.055110 0.000000 
0.436622 -0.054560 0.000000 
0.437072 -0.100000 0.000000 
0.435044 0.050180 0.000000 
0.435275 -0.004429 0.000000 
0.498613 0.050456 0.000000 
0.313249 -0.100000 0.000000 
0.373150 -0.054194 0.000000 
0.309822 -0.073604 0.000000 
0.438271 0.306819 0.000000 
0.437358 0.238126 0.000000 
0.499184 0.306897 0.000000 
0.310576 0.101235 0.000000 
0.374267 0.169938 0.000000 
0.312733 0.166152 0.000000 
0.498810 0.172349 0.000000 
0.436423 0.172133 0.000000 
0.435583 0.109286 0.000000 
0.308290 -0.019225 0.000000 
0.371503 0.046446 0.000000 
0.308929 0.039248 0.000000 
0.561064 -0.100000 0.000000 
0.560817 -0.056129 0.000000 
0.677919 -0.092480 0.000000 
0.621192 -0.071772 0.000000 
0.673020 -0.100000 0.000000 
0.561927 -0.008047 0.000000 
0.561913 0.047180 0.000000 
0.917272 -0.127121 0.000000 
0.856519 -0.122329 0.000000 
0.911680 -0.190853 0.000000 
0.744967 0.024265 0.000000 
0.802768 -0.048981 0.000000 
0.804634 0.016720 0.000000 
0.781814 -0.175131 0.000000 
0.797262 -0.113429 0.000000 
0.739566 -0.097934 0.000000 
0.560465 0.236901 0.000000 
0.559992 0.305877 0.000000 
0.561509 0.107072 0.000000 
0.560990 0.170504 0.000000 
0.683343 0.162195 0.000000 
0.622573 0.166906 0.000000 
0.684499 0.096013 0.000000 
0.683116 -0.030469 0.000000 
0.684771 0.031937 0.000000 
0.624203 0.040391 0.000000 
0.978420 -0.130710 0.000000 
0.921604 -0.060784 0.000000 
0.922866 0.076979 0.000000 
0.923378 0.007401 0.000000 
0.982832 0.006267 0.000000 
0.863936 0.010852 0.000000 
0.804402 0.083895 0.000000 
0.910761 0.366300 0.000000 
0.914168 0.292408 0.000000 
0.971900 0.294602 0.000000 
0.798079 0.294840 0.000000 
0.856266 0.292799 0.000000 
0.795700 0.368283 0.000000 
0.979258 0.149025 0.000000 
0.917641 0.219550 0.000000 
0.920730 0.147729 0.000000 
0.620393 0.303775 0.000000 
0.559603 0.377129 0.000000 
0.743389 0.157214 0.000000 
0.681815 0.230525 0.000000 
0.678828 0.373231 0.000000 
0.680231 0.300914 0.000000 
0.739444 0.297757 0.000000 
0.861921 0.149203 0.000000 
0.800597 0.222947 0.000000 
0.802861 0.152629 0.000000 
0.964819 0.442811 0.000000 
0.907886 0.441257 0.000000 
0.905129 0.594647 0.000000 
0.905886 0.517348 0.000000 
0.961056 0.594268 0.000000 
0.851015 0.441694 0.000000 
0.793859 0.443235 0.000000 
0.925599 0.917631 0.000000 
0.915477 0.834819 0.000000 
0.979013 0.911869 0.000000 
0.794294 0.676439 0.000000 
0.853990 0.755381 0.000000 
0.797188 0.756525 0.000000 
0.963761 0.749822 0.000000 
0.909238 0.753277 0.000000 
0.906054 0.673251 0.000000 
0.618819 0.449106 0.000000 
0.559329 0.450378 0.000000 
0.736160 0.445255 0.000000 
0.677806 0.447318 0.000000 
0.677524 0.600109 0.000000 
0.677333 0.523004 0.000000 
0.735632 0.598842 0.000000 
0.849294 0.595923 0.000000 
0.792891 0.597410 0.000000 
0.792828 0.519636 0.000000 
0.937500 1.000000 0.000000 
0.867013 0.918445 0.000000 
0.746020 0.918643 0.000000 
0.806851 0.918597 0.000000 
0.812500 1.000000 0.000000 
0.801510 0.837363 0.000000 
0.739079 0.757238 0.000000 
0.500058 0.918807 0.000000 
0.561743 0.918768 0.000000 
0.562500 1.000000 0.000000 
0.560313 0.758477 0.000000 
0.560989 0.838233 0.000000 
0.500044 0.758655 0.000000 
0.687500 1.000000 0.000000 
0.623351 0.918725 0.000000 
0.684808 0.918681 0.000000 
0.559274 0.525372 0.000000 
0.499570 0.450987 0.000000 
0.678435 0.678433 0.000000 
0.618719 0.601138 0.000000 
0.499872 0.602245 0.000000 
0.559424 0.601864 0.000000 
0.559777 0.679631 0.000000 
0.682236 0.837904 0.000000 
0.620379 0.758178 0.000000 
0.680044 0.757766 0.000000 
0.437500 1.000000 0.000000 
0.438368 0.918824 0.000000 
0.315268 0.918846 0.000000 
0.376746 0.918835 0.000000 
0.312500 1.000000 0.000000 
0.439145 0.838350 0.000000 
0.439761 0.758663 0.000000 
0.074258 0.918021 0.000000 
0.132937 0.918772 0.000000 
0.062500 1.000000 0.000000 
0.260789 0.757955 0.000000 
0.198409 0.837931 0.000000 
0.202557 0.757416 0.000000 
0.187500 1.000000 0.000000 
0.193155 0.918868 0.000000 
0.254026 0.918861 0.000000 
0.440158 0.525823 0.000000 
0.439759 0.450952 0.000000 
0.440156 0.679894 0.000000 
0.440293 0.602214 0.000000 
0.321984 0.601120 0.000000 
0.380917 0.601827 0.000000 
0.321342 0.679198 0.000000 
0.317827 0.838249 0.000000 
0.319918 0.758311 0.000000 
0.379652 0.758546 0.000000 
0.020603 0.912401 0.000000 
0.084148 0.835647 0.000000 
0.092983 0.675028 0.000000 
0.090116 0.754568 0.000000 
0.035302 0.751383 0.000000 
0.145591 0.756457 0.000000 
0.205193 0.677680 0.000000 
0.086287 0.370203 0.000000 
0.089790 0.444606 0.000000 
0.032592 0.446692 0.000000 
0.204339 0.445700 0.000000 
0.146921 0.444578 0.000000 
0.201879 0.371223 0.000000 
0.037321 0.596941 0.000000 
0.092325 0.520156 0.000000 
0.093532 0.596930 0.000000 
0.380119 0.450228 0.000000 
0.439091 0.377861 0.000000 
0.263710 0.600159 0.000000 
0.321822 0.524295 0.000000 
0.319366 0.375234 0.000000 
0.320913 0.448933 0.000000 
0.262303 0.447309 0.000000 
0.149625 0.597857 0.000000 
0.205890 0.521662 0.000000 
0.206255 0.599029 0.000000 
0.024190 0.299735 0.000000 
0.082150 0.296864 0.000000 
0.073845 0.153227 0.000000 
0.077849 0.224545 0.000000 
0.015140 0.155300 0.000000 
0.140300 0.296712 0.000000 
0.198772 0.298295 0.000000 
0.070092 -0.054213 0.000000 
0.012278 -0.123290 0.000000 
0.189585 0.089072 0.000000 
0.128840 0.016666 0.000000 
0.009670 0.013347 0.000000 
0.069255 0.013703 0.000000 
0.070741 0.082921 0.000000 
0.377586 0.305567 0.000000 
0.257751 0.300768 0.000000 
0.317360 0.303397 0.000000 
0.315077 0.233629 0.000000 
0.252059 0.161564 0.000000 
0.132862 0.154157 0.000000 
0.192189 0.157227 0.000000 
0.195413 0.226957 0.000000 
0.046964 -0.185760 0.000000 
0.075923 -0.152560 0.000000 
0.044929 -0.154170 0.000000 
0.137963 -0.147997 0.000000 
0.106959 -0.150626 0.000000 
0.109936 -0.182004 0.000000 
0.101736 -0.085793 0.000000 
0.104069 -0.118507 0.000000 
0.131768 -0.083344 0.000000 
0.256898 -0.120929 0.000000 
0.228729 -0.131414 0.000000 
0.238974 -0.160315 0.000000 
0.220208 -0.069528 0.000000 
0.223275 -0.100739 0.000000 
0.249408 -0.062470 0.000000 
0.174182 -0.175246 0.000000 
0.199183 -0.138986 0.000000 
0.168789 -0.144283 0.000000 
0.218581 0.058822 0.000000 
0.218030 0.026179 0.000000 
0.248650 0.062431 0.000000 
0.159673 -0.047186 0.000000 
0.188345 -0.010491 0.000000 
0.158740 -0.014136 0.000000 
0.247778 -0.001073 0.000000 
0.217973 -0.006074 0.000000 
0.218602 -0.037969 0.000000 
0.164514 -0.112391 0.000000 
0.190991 -0.075410 0.000000 
0.161530 -0.079961 0.000000 
0.497963 -0.078948 0.000000 
0.467588 -0.078290 0.000000 
0.467626 -0.100000 0.000000 
0.467202 -0.029791 0.000000 
0.467506 -0.054557 0.000000 
0.498520 -0.030249 0.000000 
0.406535 -0.100000 0.000000 
0.437227 -0.078188 0.000000 
0.406828 -0.078279 0.000000 
0.466959 0.079748 0.000000 
0.466852 0.050742 0.000000 
0.498641 0.079508 0.000000 
0.403350 -0.005862 0.000000 
0.435019 0.022268 0.000000 
0.403101 0.020743 0.000000 
0.498591 0.022461 0.000000 
0.466848 0.022811 0.000000 
0.466962 -0.004026 0.000000 
0.280538 -0.100000 0.000000 
0.309907 -0.089805 0.000000 
0.284758 -0.114339 0.000000 
0.376376 -0.076904 0.000000 
0.343076 -0.079545 0.000000 
0.344866 -0.100000 0.000000 
0.339360 -0.038930 0.000000 
0.340418 -0.060610 0.000000 
0.371663 -0.032909 0.000000 
0.435816 -0.029994 0.000000 
0.404225 -0.030869 0.000000 
0.405565 -0.055171 0.000000 
[...]
POINT_DATA 1089

SCALARS u_h float 2
LOOKUP_TABLE default
0.015868 -0.187572 
-0.025932 -0.194985 
0.000000 0.000000 
0.000000 0.000000 
-0.001516 -0.100000 
-0.031847 -0.131568 
0.000000 0.000000 
0.028637 -0.127058 
-0.000606 -0.122205 
0.020292 -0.143736 
-0.001318 -0.140444 
-0.000405 -0.155041 
-0.032362 -0.141114 
-0.005274 -0.160260 
-0.018174 -0.172779 
-0.012436 -0.129318 
-0.038653 -0.078531 
-0.013167 -0.072457 
0.000000 0.000000 
-0.000024 -0.070095 
0.000000 0.000000 
0.012815 -0.071454 
0.037401 -0.076428 
0.010315 -0.126820 
0.011630 -0.166047 
0.016917 -0.179218 
-0.001850 -0.157046 
0.004998 -0.175321 
-0.001444 -0.129427 
-0.003874 -0.133523 
0.000865 -0.100000 
0.000957 -0.138530 
-0.002304 -0.143617 
-0.001015 -0.136719 
0.004943 -0.100000 
-0.000757 -0.143180 
-0.013147 -0.181429 
-0.006607 -0.163802 
-0.027243 -0.185700 
-0.001449 -0.147776 
-0.003531 -0.140831 
-0.018286 -0.188338 
-0.011303 -0.170617 
-0.021640 -0.133418 
-0.015735 -0.154660 
-0.024237 -0.153510 
-0.008506 -0.148425 
-0.005523 -0.124504 
-0.037652 -0.106923 
-0.025459 -0.106861 
-0.015438 -0.038286 
-0.024349 -0.074970 
-0.030878 -0.045355 
-0.014549 -0.103646 
-0.006450 -0.100609 
0.000000 0.000000 
-0.007759 -0.037321 
0.000072 -0.036669 
-0.003241 -0.036912 
0.000000 0.000000 
-0.005661 -0.070865 
-0.000265 -0.099131 
0.000000 0.000000 
0.003348 -0.036679 
0.015243 -0.037601 
0.007760 -0.036864 
0.000000 0.000000 
0.005534 -0.070347 
0.005773 -0.099723 
0.030219 -0.044314 
0.023636 -0.073476 
0.018944 -0.130027 
0.023931 -0.104463 
0.035587 -0.103656 
0.013498 -0.101981 
0.004007 -0.123090 
0.019523 -0.147779 
0.011457 -0.150221 
0.005084 -0.165192 
0.009862 -0.181028 
0.004899 -0.144805 
0.015786 -0.184056 
0.009441 -0.178457 
0.011015 -0.182869 
0.002024 -0.154726 
0.006656 -0.169945 
0.019120 -0.169404 
0.000750 -0.165124 
0.001674 -0.168080 
-0.001996 -0.157079 
-0.001616 -0.117610 
-0.000878 -0.117060 
-0.000428 -0.100000 
-0.002456 -0.137320 
-0.002225 -0.129429 
-0.001387 -0.137044 
0.000749 -0.100000 
-0.001850 -0.116694 
-0.002678 -0.136104 
0.000771 -0.130681 
-0.000142 -0.136874 
-0.000816 -0.130603 
-0.001924 -0.148765 
-0.000733 -0.142562 
0.000233 -0.146348 
-0.001190 -0.140151 
-0.001077 -0.140367 
-0.001917 -0.140714 
-0.004210 -0.144225 
-0.003497 -0.141054 
-0.003571 -0.148252 
-0.001436 -0.100000 
-0.001683 -0.118629 
-0.009581 -0.154980 
-0.003808 -0.134272 
-0.014480 -0.100000 
-0.000573 -0.133047 
-0.000587 -0.140320 
-0.020228 -0.189621 
-0.018481 -0.184829 
-0.025820 -0.190853 
-0.005033 -0.163235 
-0.009732 -0.173981 
-0.007866 -0.170780 
-0.030686 -0.175131 
-0.015238 -0.175929 
-0.010434 -0.160434 
-0.002035 -0.138099 
-0.002508 -0.131623 
-0.000991 -0.142928 
-0.001510 -0.141996 
-0.004157 -0.150305 
-0.002427 -0.145594 
-0.003001 -0.153987 
-0.004384 -0.155469 
-0.002729 -0.155563 
-0.000797 -0.147109 
-0.021580 -0.193210 
-0.015896 -0.185784 
-0.014634 -0.173021 
-0.014122 -0.180099 
-0.017168 -0.181233 
-0.011064 -0.176648 
-0.008098 -0.166105 
-0.026739 -0.133700 
-0.023332 -0.145092 
-0.028100 -0.142898 
-0.014421 -0.142660 
-0.018734 -0.144701 
-0.016800 -0.131717 
-0.020742 -0.163475 
-0.019859 -0.155450 
-0.016770 -0.164771 
-0.004607 -0.133725 
-0.002897 -0.122871 
-0.006611 -0.155286 
-0.005685 -0.144475 
-0.008672 -0.126769 
-0.007269 -0.136586 
-0.010556 -0.139743 
-0.013079 -0.163297 
-0.011903 -0.152053 
-0.009639 -0.159871 
-0.035181 -0.119689 
-0.029614 -0.121243 
-0.032371 -0.092853 
-0.031614 -0.107652 
-0.038944 -0.093232 
-0.023985 -0.120806 
-0.018641 -0.119265 
-0.011901 -0.019869 
-0.022023 -0.040181 
-0.020987 -0.025631 
-0.018206 -0.073561 
-0.021010 -0.057119 
-0.015312 -0.055975 
-0.036239 -0.062678 
-0.028262 -0.059223 
-0.031446 -0.076749 
-0.006181 -0.113394 
-0.003171 -0.112122 
-0.013840 -0.117245 
-0.009694 -0.115182 
-0.009976 -0.087391 
-0.010167 -0.101996 
-0.014368 -0.088658 
-0.025706 -0.091577 
-0.019609 -0.090090 
-0.019672 -0.105364 
0.000000 0.000000 
-0.007987 -0.019055 
-0.003980 -0.018857 
-0.005649 -0.018903 
0.000000 0.000000 
-0.010990 -0.037637 
-0.010921 -0.055262 
0.000058 -0.018693 
-0.000757 -0.018732 
0.000000 0.000000 
-0.002187 -0.054023 
-0.001511 -0.036767 
0.000044 -0.053845 
0.000000 0.000000 
-0.001649 -0.018775 
-0.002692 -0.018819 
-0.003226 -0.099628 
-0.000430 -0.111513 
-0.009065 -0.071567 
-0.006281 -0.086362 
-0.000128 -0.085255 
-0.003076 -0.085636 
-0.002723 -0.070369 
-0.005264 -0.037096 
-0.004621 -0.054322 
-0.007456 -0.054734 
0.000000 0.000000 
0.000868 -0.018676 
0.002768 -0.018654 
0.001746 -0.018665 
0.000000 0.000000 
0.001645 -0.036650 
0.002261 -0.053837 
0.011758 -0.019479 
0.007937 -0.018728 
0.000000 0.000000 
0.010789 -0.054545 
0.010909 -0.037069 
0.015057 -0.055084 
0.000000 0.000000 
0.005655 -0.018632 
0.004026 -0.018639 
0.002658 -0.099177 
0.002259 -0.111548 
0.002656 -0.070106 
0.002793 -0.085286 
0.009484 -0.086380 
0.005917 -0.085673 
0.008842 -0.070802 
0.005327 -0.036751 
0.007418 -0.054189 
0.004652 -0.053954 
0.020603 -0.025099 
0.021648 -0.039353 
0.030483 -0.074972 
0.027616 -0.057932 
0.035302 -0.061117 
0.020591 -0.056043 
0.017693 -0.072320 
0.023787 -0.129797 
0.027290 -0.117894 
0.032592 -0.115808 
0.016839 -0.116800 
0.021921 -0.117922 
0.014379 -0.128777 
0.037321 -0.090559 
0.029825 -0.104844 
0.031032 -0.090570 
0.005119 -0.112272 
0.001591 -0.122139 
0.013710 -0.087341 
0.009322 -0.100705 
0.006866 -0.124766 
0.008413 -0.113567 
0.012303 -0.115191 
0.024625 -0.089643 
0.018390 -0.103338 
0.018755 -0.088471 
0.024190 -0.137765 
0.019650 -0.140636 
0.011345 -0.159273 
0.015349 -0.150455 
0.015140 -0.157200 
0.015300 -0.140788 
0.011272 -0.139205 
0.007592 -0.179213 
0.012278 -0.185790 
0.002085 -0.160928 
0.003840 -0.170834 
0.009670 -0.174153 
0.006755 -0.173797 
0.008241 -0.167079 
0.002586 -0.131933 
0.007751 -0.136732 
0.004860 -0.134103 
0.002577 -0.141371 
0.002059 -0.150936 
0.007862 -0.158343 
0.004689 -0.155273 
0.007913 -0.148043 
0.015714 -0.185760 
0.013423 -0.183810 
0.013679 -0.185420 
0.012963 -0.179247 
0.013209 -0.181876 
0.016186 -0.182004 
0.007986 -0.179543 
0.010319 -0.181007 
0.006768 -0.177094 
0.006898 -0.152179 
0.009979 -0.162664 
0.020224 -0.160315 
0.001458 -0.163278 
0.004525 -0.163239 
-0.000592 -0.156220 
0.017932 -0.175246 
0.011683 -0.170236 
0.012539 -0.175533 
-0.000169 -0.159928 
-0.000720 -0.161321 
-0.001350 -0.156319 
0.003423 -0.172186 
0.000845 -0.166741 
0.002490 -0.170386 
-0.002222 -0.157323 
-0.000777 -0.162324 
-0.000148 -0.162969 
0.008264 -0.174891 
0.003491 -0.169160 
0.005280 -0.173711 
-0.002037 -0.110198 
-0.001162 -0.109540 
-0.001124 -0.100000 
-0.001548 -0.123541 
-0.001244 -0.117057 
-0.001480 -0.123999 
0.000285 -0.100000 
-0.000273 -0.109438 
0.000578 -0.109529 
-0.001791 -0.139002 
-0.001898 -0.136758 
-0.001359 -0.139242 
-0.002900 -0.130862 
-0.002481 -0.133982 
-0.003149 -0.135507 
-0.001409 -0.133789 
-0.001902 -0.133439 
-0.001788 -0.129026 
-0.000712 -0.100000 
-0.002593 -0.121055 
0.003508 -0.145589 
0.001376 -0.108154 
-0.000674 -0.110795 
0.001116 -0.100000 
-0.004390 -0.132680 
-0.003332 -0.123110 
-0.003337 -0.126659 
-0.001684 -0.123744 
-0.002025 -0.124619 
-0.000685 -0.117671 
0.000222 -0.126531 
-0.000036 -0.130489 
-0.000713 -0.126663 
0.000359 -0.137527 
0.000323 -0.134091 
0.001010 -0.134658 
-0.000917 -0.133971 
-0.000307 -0.133859 
-0.000586 -0.136600 
-0.001307 -0.151862 
-0.000887 -0.147896 
-0.000192 -0.150531 
-0.001547 -0.143494 
-0.001329 -0.145505 
-0.002245 -0.145960 
0.000665 -0.142389 
-0.000349 -0.144295 
0.000109 -0.140889 
-0.001261 -0.140722 
-0.001390 -0.140548 
-0.001614 -0.140240 
-0.000865 -0.138665 
-0.001137 -0.140001 
-0.001107 -0.138797 
-0.002168 -0.141851 
-0.001519 -0.140967 
-0.001590 -0.141962 
-0.000303 -0.139736 
-0.000959 -0.141233 
-0.000613 -0.138983 
-0.000081 -0.146870 
-0.004437 -0.138187 
-0.003864 -0.140675 
-0.002290 -0.149018 
-0.003214 -0.150836 
-0.002244 -0.139529 
-0.002969 -0.142844 
-0.002661 -0.140818 
-0.003015 -0.138752 
-0.003828 -0.138059 
-0.002257 -0.152575 
-0.003344 -0.152069 
-0.002970 -0.152650 
-0.002836 -0.148905 
-0.003059 -0.145586 
-0.004206 -0.141897 
-0.003729 -0.144282 
-0.004061 -0.146724 
-0.001769 -0.100000 
-0.002673 -0.111016 
0.002761 -0.113230 
-0.002551 -0.112748 
0.000560 -0.100000 
-0.001805 -0.118593 
-0.001351 -0.125091 
-0.003691 -0.153228 
0.006066 -0.133087 
-0.013756 -0.100000 
-0.001322 -0.139476 
-0.008527 -0.148716 
-0.004181 -0.149515 
-0.002464 -0.069570 
0.005678 -0.124786 
0.003811 -0.130444 
-0.000937 -0.138264 
-0.000997 -0.140312 
-0.001036 -0.130809 
-0.000946 -0.135121 
-0.000288 -0.140873 
-0.000506 -0.137376 
-0.000247 -0.137083 
0.000346 -0.125654 
-0.000457 -0.131504 
-0.000555 -0.127236 
-0.023357 -0.192490 
-0.023082 -0.190606 
-0.025750 -0.192826 
-0.015347 -0.183332 
-0.019465 -0.187543 
-0.016666 -0.185973 
-0.026294 -0.188614 
-0.022858 -0.188483 
-0.022589 -0.185732 
-0.004975 -0.162010 
-0.006365 -0.167109 
-0.006305 -0.165425 
-0.008015 -0.169018 
-0.006897 -0.168316 
-0.005543 -0.163873 
-0.010135 -0.176226 
-0.008472 -0.172555 
-0.011501 -0.178149 
-0.032850 -0.163967 
-0.018007 -0.168206 
-0.011659 -0.156912 
-0.022061 -0.181897 
-0.020834 -0.176345 
-0.028711 -0.181551 
-0.008280 -0.162787 
-0.012800 -0.168895 
-0.009876 -0.169197 
-0.013739 -0.179786 
-0.011854 -0.175093 
-0.017125 -0.181104 
-0.001623 -0.130966 
-0.001672 -0.126952 
-0.001483 -0.137222 
-0.001560 -0.134402 
-0.003113 -0.136227 
-0.002281 -0.135163 
-0.002709 -0.139317 
-0.001090 -0.141365 
-0.001194 -0.141513 
-0.001468 -0.144724 
-0.001245 -0.142862 
-0.001088 -0.145093 
-0.001297 -0.140830 
-0.001394 -0.139381 
-0.004599 -0.155230 
-0.003508 -0.152417 
-0.004068 -0.157145 
-0.002974 -0.143520 
-0.003191 -0.147866 
-0.003842 -0.145506 
-0.002103 -0.150816 
-0.002598 -0.149640 
-0.001911 -0.147024 
-0.001776 -0.140391 
-0.001874 -0.143606 
-0.002292 -0.141790 
-0.009646 -0.155773 
-0.005583 -0.159362 
-0.007487 -0.158163 
-0.006501 -0.155169 
-0.002538 -0.150213 
-0.003789 -0.158542 
-0.001756 -0.151398 
-0.002708 -0.155026 
-0.003858 -0.159407 
-0.004406 -0.159709 
-0.000764 -0.142116 
-0.000673 -0.145600 
-0.000476 -0.143293 
-0.000751 -0.144647 
-0.001068 -0.147817 
-0.003214 -0.155668 
-0.001627 -0.151415 
-0.001825 -0.150955 
-0.023734 -0.194507 
-0.020894 -0.191402 
-0.017082 -0.187199 
-0.018730 -0.189605 
-0.019698 -0.191119 
-0.017761 -0.187976 
-0.014607 -0.183920 
-0.016352 -0.173269 
-0.015736 -0.177257 
-0.017436 -0.177135 
-0.012545 -0.175553 
-0.014131 -0.176716 
-0.012959 -0.172116 
-0.017438 -0.185001 
-0.015607 -0.180947 
-0.016040 -0.184284 
-0.007776 -0.168634 
-0.006621 -0.163285 
-0.011760 -0.179194 
-0.009460 -0.174004 
-0.009673 -0.168586 
-0.009342 -0.171463 
-0.010946 -0.173791 
-0.014690 -0.183137 
-0.012621 -0.178675 
-0.013280 -0.181472 
-0.029307 -0.133018 
-0.027533 -0.138808 
-0.030021 -0.137328 
-0.022624 -0.139623 
-0.025066 -0.139526 
-0.024173 -0.133790 
-0.026153 -0.148288 
-0.025696 -0.144382 
-0.023838 -0.149741 
-0.013525 -0.136120 
-0.015650 -0.137380 
-0.014549 -0.130567 
-0.017221 -0.149846 
-0.016532 -0.143834 
-0.015143 -0.148864 
-0.019173 -0.132695 
-0.017890 -0.138444 
-0.020223 -0.139225 
-0.019304 -0.168216 
-0.018707 -0.164528 
-0.017371 -0.169018 
-0.022012 -0.154885 
-0.020279 -0.159815 
-0.022411 -0.158572 
-0.016253 -0.159980 
-0.018233 -0.160241 
-0.017766 -0.155336 
-0.021007 -0.145157 
-0.019371 -0.150395 
-0.021578 -0.150400 
-0.002714 -0.127514 
-0.001724 -0.122386 
-0.004081 -0.137556 
-0.003496 -0.132554 
-0.004154 -0.123590 
-0.003846 -0.128331 
-0.005093 -0.129365 
-0.005843 -0.158013 
-0.005305 -0.152805 
-0.007017 -0.146451 
-0.006127 -0.149875 
-0.007517 -0.152087 
-0.004897 -0.147655 
-0.004521 -0.142576 
-0.010476 -0.128033 
-0.009694 -0.133319 
-0.011536 -0.134743 
-0.006475 -0.130574 
-0.008006 -0.131909 
-0.007024 -0.125578 
-0.009533 -0.144307 
-0.008835 -0.138159 
-0.007932 -0.142541 
-0.005202 -0.139096 
-0.006486 -0.140780 
-0.005861 -0.135087 
-0.015542 -0.169034 
-0.014333 -0.159144 
-0.014897 -0.164327 
-0.013772 -0.168373 
-0.012043 -0.167121 
-0.012423 -0.141268 
-0.010141 -0.150320 
-0.011280 -0.146004 
-0.013156 -0.147552 
-0.013775 -0.153532 
-0.007230 -0.160698 
-0.010359 -0.165361 
-0.008745 -0.163185 
-0.008062 -0.157672 
-0.009051 -0.154211 
-0.012480 -0.157837 
-0.010712 -0.156160 
-0.011319 -0.161779 
-0.033609 -0.125740 
-0.030957 -0.127019 
-0.033682 -0.114292 
-0.032427 -0.120780 
-0.036541 -0.113418 
-0.028264 -0.127609 
-0.025566 -0.127654 
-0.035656 -0.085619 
-0.035720 -0.093221 
-0.039026 -0.086014 
-0.028519 -0.107386 
-0.032173 -0.100409 
-0.028941 -0.099993 
-0.038468 -0.100197 
-0.035376 -0.100524 
-0.034680 -0.107543 
-0.017803 -0.125676 
-0.015433 -0.124618 
-0.022899 -0.127278 
-0.020300 -0.126588 
-0.022004 -0.113320 
-0.021258 -0.120129 
-0.024853 -0.114001 
-0.030746 -0.114593 
-0.027784 -0.114457 
-0.026785 -0.121212 
-0.007658 -0.010407 
-0.015564 -0.021532 
-0.013061 -0.014018 
-0.018393 -0.038971 
-0.017465 -0.030128 
-0.014284 -0.029140 
-0.026661 -0.035906 
-0.021684 -0.032165 
-0.026316 -0.042219 
-0.015555 -0.072979 
-0.016948 -0.064884 
-0.014422 -0.064393 
-0.022950 -0.066190 
-0.019783 -0.065470 
-0.021137 -0.074220 
-0.015706 -0.047254 
-0.017972 -0.056467 
-0.018503 -0.047798 
-0.037753 -0.070762 
-0.034027 -0.069435 
-0.035117 -0.077698 
-0.029774 -0.051742 
-0.032288 -0.060796 
-0.033998 -0.054234 
-0.027812 -0.075819 
-0.030180 -0.068172 
-0.026438 -0.067082 
-0.021787 -0.048626 
-0.024452 -0.058012 
-0.025584 -0.049892 
-0.003063 -0.117730 
-0.001780 -0.117300 
-0.005896 -0.119171 
-0.004426 -0.118363 
-0.004747 -0.106571 
-0.004625 -0.112681 
-0.006368 -0.107198 
-0.013211 -0.123480 
-0.011146 -0.122320 
-0.012065 -0.109684 
-0.011684 -0.116197 
-0.014295 -0.110629 
-0.009243 -0.121186 
-0.007496 -0.120124 
-0.011654 -0.080132 
-0.012073 -0.087999 
-0.013900 -0.080697 
-0.008235 -0.101260 
-0.010160 -0.094859 
-0.008216 -0.094218 
-0.014580 -0.096316 
-0.012275 -0.095563 
-0.012268 -0.102799 
-0.007864 -0.114237 
-0.010008 -0.108778 
-0.008114 -0.107941 
-0.032150 -0.084971 
-0.025252 -0.083436 
-0.028644 -0.084214 
-0.029001 -0.092271 
-0.025759 -0.099386 
-0.016372 -0.081310 
-0.017085 -0.097099 
-0.016877 -0.089359 
-0.019087 -0.081972 
-0.022052 -0.082683 
-0.016162 -0.118284 
-0.022496 -0.106164 
-0.019276 -0.112492 
-0.016701 -0.111578 
-0.017018 -0.104511 
-0.022559 -0.090837 
-0.019794 -0.097892 
-0.022694 -0.098668 
0.000000 0.000000 
-0.005826 -0.009767 
-0.003951 -0.009494 
-0.004737 -0.009564 
0.000000 0.000000 
-0.009626 -0.019289 
-0.011884 -0.028674 
-0.001987 -0.009474 
-0.002372 -0.009472 
0.000000 0.000000 
-0.007075 -0.028211 
-0.004754 -0.018876 
-0.005922 -0.028143 
0.000000 0.000000 
-0.002814 -0.009469 
-0.003330 -0.009473 
-0.012979 -0.055586 
-0.012171 -0.063969 
-0.013017 -0.037889 
-0.013313 -0.046877 
-0.009440 -0.046370 
-0.011246 -0.046596 
-0.009260 -0.037460 
-0.006704 -0.018952 
-0.008407 -0.028300 
-0.009979 -0.028436 
0.000034 -0.009433 
-0.000167 -0.009442 
0.000000 0.000000 
-0.000527 -0.027805 
-0.000344 -0.018712 
0.000070 -0.027775 
0.000000 0.000000 
-0.000374 -0.009450 
-0.000590 -0.009458 
-0.001215 -0.062186 
-0.001058 -0.053918 
0.000015 -0.062095 
-0.002349 -0.036834 
-0.001863 -0.045500 
-0.002882 -0.045598 
0.000063 -0.045364 
-0.000888 -0.045421 
-0.000710 -0.036712 
0.000000 0.000000 
-0.001344 -0.009474 
-0.001647 -0.009475 
-0.000821 -0.009464 
-0.001071 -0.009470 
0.000000 0.000000 
-0.003200 -0.027977 
-0.002146 -0.018797 
-0.002462 -0.027928 
-0.001139 -0.027841 
-0.001780 -0.027882 
-0.001189 -0.018753 
-0.001787 -0.111732 
-0.000519 -0.117080 
-0.004790 -0.100061 
-0.003224 -0.106077 
-0.000345 -0.105522 
-0.001768 -0.105727 
-0.001728 -0.099317 
-0.011013 -0.071988 
-0.009611 -0.079618 
-0.006027 -0.078757 
-0.007745 -0.079158 
-0.007291 -0.071192 
-0.008054 -0.086842 
-0.006422 -0.093655 
-0.000071 -0.077823 
-0.001480 -0.077950 
-0.001357 -0.070203 
-0.001667 -0.092533 
-0.001584 -0.085401 
-0.000193 -0.092366 
-0.004148 -0.070590 
-0.002924 -0.078149 
-0.004430 -0.078419 
-0.004752 -0.093181 
-0.004632 -0.085958 
-0.003177 -0.092805 
-0.003299 -0.018838 
-0.004206 -0.037000 
-0.004010 -0.028029 
-0.004910 -0.028084 
-0.006439 -0.037202 
-0.002476 -0.062319 
-0.005190 -0.062713 
-0.003792 -0.062495 
-0.003367 -0.054158 
-0.003967 -0.045716 
-0.010156 -0.063595 
-0.007845 -0.046176 
-0.009093 -0.054982 
-0.008342 -0.063263 
-0.006697 -0.062969 
-0.005138 -0.045851 
-0.005975 -0.054515 
-0.006422 -0.046004 
0.000000 0.000000 
0.000235 -0.009428 
0.000654 -0.009417 
0.000440 -0.009423 
0.000000 0.000000 
0.000459 -0.018684 
0.000665 -0.027762 
0.001690 -0.009382 
0.001393 -0.009393 
0.000000 0.000000 
0.002576 -0.027758 
0.002234 -0.018660 
0.003299 -0.027765 
0.000000 0.000000 
0.001126 -0.009403 
0.000881 -0.009410 
0.001142 -0.053825 
0.001241 -0.062074 
0.000851 -0.036653 
0.001011 -0.045346 
0.002982 -0.045373 
0.001977 -0.045349 
0.002472 -0.036659 
0.001294 -0.018670 
0.001905 -0.027754 
0.001273 -0.027755 
0.007562 -0.010197 
0.005771 -0.009578 
0.000000 0.000000 
0.011772 -0.028172 
0.009537 -0.018933 
0.014113 -0.028591 
0.000000 0.000000 
0.004706 -0.009391 
0.003939 -0.009335 
0.011940 -0.063112 
0.012790 -0.054783 
0.014125 -0.063433 
0.009223 -0.036948 
0.011144 -0.045942 
0.009385 -0.045785 
0.015484 -0.046454 
0.013156 -0.046151 
0.012884 -0.037263 
0.000000 0.000000 
0.002397 -0.009352 
0.002022 -0.009368 
0.003333 -0.009327 
0.002829 -0.009337 
0.000000 0.000000 
0.005957 -0.027808 
0.004782 -0.018632 
0.007081 -0.027836 
0.009914 -0.027977 
0.008381 -0.027884 
0.006685 -0.018654 
0.000914 -0.111444 
0.000726 -0.116975 
0.001188 -0.099090 
0.001068 -0.105471 
0.003960 -0.105813 
0.002491 -0.105568 
0.004176 -0.099389 
0.001305 -0.070072 
0.001332 -0.077797 
0.004234 -0.077965 
0.002758 -0.077844 
0.004056 -0.070198 
0.001322 -0.085226 
0.001274 -0.092332 
0.011237 -0.079111 
0.009264 -0.078734 
0.010730 -0.071103 
0.005911 -0.092871 
0.007631 -0.085990 
0.007637 -0.093250 
0.007120 -0.070549 
0.007458 -0.078414 
0.005791 -0.078156 
0.002759 -0.092406 
0.004314 -0.085437 
0.004295 -0.092587 
0.003361 -0.018647 
0.006473 -0.036801 
0.004969 -0.027790 
0.004091 -0.027776 
0.004293 -0.036710 
0.009984 -0.062840 
0.006622 -0.062422 
0.008223 -0.062611 
0.009012 -0.054350 
0.007832 -0.045662 
0.002489 -0.062096 
0.004046 -0.045417 
0.003423 -0.053880 
0.003783 -0.062163 
0.005152 -0.062272 
0.006445 -0.045561 
0.005975 -0.054058 
0.005192 -0.045480 
0.012841 -0.013745 
0.015331 -0.021093 
0.025810 -0.041298 
0.021314 -0.031487 
0.026136 -0.035119 
0.017212 -0.029524 
0.018120 -0.038220 
0.034013 -0.075763 
0.033088 -0.067760 
0.036665 -0.068933 
0.025767 -0.065681 
0.029382 -0.066640 
0.026980 -0.074188 
0.033203 -0.052936 
0.031501 -0.059378 
0.029130 -0.050574 
0.016575 -0.063821 
0.015128 -0.071857 
0.018205 -0.046920 
0.017641 -0.055485 
0.020529 -0.072855 
0.019324 -0.064301 
0.022392 -0.064908 
0.025078 -0.048835 
0.023928 -0.056833 
0.021396 -0.047664 
0.026228 -0.128825 
0.028201 -0.123121 
0.030724 -0.121546 
0.023068 -0.124283 
0.025637 -0.123985 
0.021347 -0.130153 
0.034226 -0.109846 
0.029972 -0.117174 
0.031503 -0.110975 
0.013474 -0.122132 
0.015704 -0.122978 
0.012274 -0.127845 
0.023069 -0.111362 
0.019325 -0.117458 
0.020347 -0.110883 
0.016611 -0.129534 
0.018065 -0.123676 
0.020531 -0.124143 
0.037596 -0.083630 
0.034241 -0.090748 
0.034372 -0.083418 
0.032755 -0.104513 
0.033684 -0.097775 
0.036634 -0.097231 
0.027519 -0.097645 
0.030619 -0.097866 
0.026862 -0.104789 
0.024591 -0.118102 
0.025870 -0.111606 
0.028700 -0.111517 
0.001960 -0.117083 
0.000480 -0.122017 
0.005507 -0.106200 
0.003648 -0.111828 
0.002756 -0.122507 
0.003246 -0.117402 
0.004616 -0.117912 
0.013406 -0.079540 
0.011503 -0.086833 
0.011323 -0.101318 
0.011528 -0.094244 
0.013736 -0.094829 
0.009502 -0.093712 
0.007480 -0.100167 
0.008512 -0.125772 