# vtk DataFile Version 2.0
Unstructured Grid Example
ASCII
DATASET UNSTRUCTURED_GRID

POINTS 25 float
0.022047 -0.406060 0.000000 
0.977953 -0.406060 0.000000 
1.000000 1.000000 0.000000 
0.000000 1.000000 0.000000 
0.500000 -0.405219 0.000000 
0.927601 0.206570 0.000000 
0.500000 1.000000 0.000000 
0.072399 0.206570 0.000000 
0.500000 0.180536 0.000000 
0.261382 -0.410744 0.000000 
0.500000 -0.136537 0.000000 
0.268884 -0.136429 0.000000 
0.738618 -0.410744 0.000000 
0.731116 -0.136429 0.000000 
0.959173 -0.122877 0.000000 
0.711365 0.189168 0.000000 
0.902840 0.561694 0.000000 
0.705139 0.578893 0.000000 
0.750000 1.000000 0.000000 
0.500000 0.586923 0.000000 
0.250000 1.000000 0.000000 
0.294861 0.578893 0.000000 
0.097160 0.561694 0.000000 
0.288635 0.189168 0.000000 
0.040827 -0.122877 0.000000 

CELLS 32 128
3  0 9 11 
3  4 10 9 
3  8 11 10 
3  9 10 11 
3  4 12 10 
3  1 13 12 
3  8 10 13 
3  12 13 10 
3  1 14 13 
3  5 15 14 
3  8 13 15 
3  14 15 13 
3  5 16 15 
3  2 17 16 
3  8 15 17 
3  16 17 15 
3  2 18 17 
3  6 19 18 
3  8 17 19 
3  18 19 17 
3  6 20 19 
3  3 21 20 
3  8 19 21 
3  20 21 19 
3  3 22 21 
3  7 23 22 
3  8 21 23 
3  22 23 21 
3  7 24 23 
3  0 11 24 
3  8 23 11 
3  24 11 23 

CELL_TYPES 32
5
5
5
5
5
5
5
5
5
5
5
5
5
5
5
5
5
5
5
5
5
5
5
5
5
5
5
5
5
5
5
5

POINT_DATA 25

SCALARS u_h float 2
LOOKUP_TABLE default
0.022047 -0.406060 
-0.022047 -0.406060 
0.000000 0.000000 
0.000000 0.000000 
-0.000000 -0.405219 
-0.072399 -0.293430 
0.000000 0.000000 
0.072399 -0.293430 
-0.000000 -0.319464 
0.011382 -0.410744 
-0.000000 -0.386537 
0.018884 -0.386429 
-0.011382 -0.410744 
-0.018884 -0.386429 
-0.040827 -0.372877 
-0.038635 -0.310832 
-0.097160 -0.188306 
-0.044861 -0.171107 
0.000000 0.000000 
-0.000000 -0.163077 
0.000000 0.000000 
0.044861 -0.171107 
0.097160 -0.188306 
0.038635 -0.310832 
0.040827 -0.372877 

CELL_DATA 32

SCALARS epsilon float 4
LOOKUP_TABLE default
-0.042627 0.093255 0.000000 0.007028
-0.046561 0.072183 0.000000 0.010257
-0.078370 0.233912 0.000000 -0.000168
-0.077920 0.092577 0.000000 0.015909
-0.046561 0.072183 0.000000 -0.010257
-0.042627 0.093255 0.000000 -0.007028
-0.078370 0.233912 0.000000 0.000168
-0.077920 0.092577 0.000000 -0.015909
-0.085067 0.129289 0.000000 -0.016847
-0.130403 0.279290 0.000000 -0.042713
-0.161129 0.261963 0.000000 -0.031337
-0.085826 0.263570 0.000000 -0.020278
-0.135276 0.346520 0.000000 -0.028150
-0.173847 0.538581 0.000000 0.179577
-0.165275 0.423703 0.000000 -0.002124
-0.230631 0.423141 0.000000 -0.034234
0.005675 0.488876 0.000000 0.074910
0.000000 0.472715 0.000000 0.000000
-0.194776 0.459156 0.000000 -0.009406
-0.182451 0.492614 0.000000 0.081973
0.000000 0.472715 0.000000 0.000000
0.005675 0.488876 0.000000 -0.074910
-0.194776 0.459156 0.000000 0.009406
-0.182451 0.492614 0.000000 -0.081973
-0.173847 0.538581 0.000000 -0.179577
-0.135276 0.346520 0.000000 0.028150
-0.165275 0.423703 0.000000 0.002124
-0.230631 0.423141 0.000000 0.034234
-0.130403 0.279290 0.000000 0.042713
-0.085067 0.129289 0.000000 0.016847
-0.161129 0.261963 0.000000 0.031337
-0.085826 0.263570 0.000000 0.020278

SCALARS sigma float 4
LOOKUP_TABLE default
-0.288909 1.796257 0.425780 0.066921
-0.605588 1.278021 0.186896 0.176649
-0.105077 4.147575 1.188783 -0.003003
-1.402285 1.392195 -0.002761 0.239266
-0.605588 1.278021 0.186896 -0.176649
-0.288909 1.796257 0.425780 -0.066921
-0.105077 4.147575 1.188783 0.003003
-1.402285 1.392195 -0.002761 -0.239266
-1.312595 2.091733 0.216573 -0.137462
-1.720645 4.267001 0.723978 -0.271306
-3.075411 3.606295 0.144499 -0.311912
-0.119315 4.567706 1.316792 -0.032943
-1.274229 5.265314 1.159080 -0.046558
-2.970768 6.962269 1.129771 1.356867
-1.866373 5.982512 1.183649 0.095528
-5.240789 5.048802 -0.050130 -0.625992
4.888764 9.177344 4.888764 0.250833
4.727146 8.947366 4.727146 0.000000
-2.996181 6.050437 0.853377 -0.197443
-2.467875 6.575201 1.169671 0.628519
4.727146 8.947366 4.727146 0.000000
4.888764 9.177344 4.888764 -0.250833
-2.996181 6.050437 0.853377 0.197443
-2.467875 6.575201 1.169671 -0.628519
-2.970768 6.962269 1.129771 -1.356867
-1.274229 5.265314 1.159080 0.046558
-1.866373 5.982512 1.183649 -0.095528
-5.240789 5.048802 -0.050130 0.625992
-1.720645 4.267001 0.723978 0.271306
-1.312595 2.091733 0.216573 0.137462
-3.075411 3.606295 0.144499 0.311912
-0.119315 4.567706 1.316792 0.032943

