# vtk DataFile Version 2.0
Unstructured Grid Example
ASCII
DATASET UNSTRUCTURED_GRID

POINTS 4225 float
0.001613 -0.403456 0.000000 
0.998387 -0.403456 0.000000 
1.000000 1.000000 0.000000 
0.000000 1.000000 0.000000 
0.500000 -0.441735 0.000000 
0.920760 0.186874 0.000000 
0.500000 1.000000 0.000000 
0.079240 0.186874 0.000000 
0.500000 0.161035 0.000000 
0.250134 -0.432307 0.000000 
0.500000 -0.168416 0.000000 
0.269843 -0.160332 0.000000 
0.749866 -0.432307 0.000000 
0.730157 -0.160332 0.000000 
0.960836 -0.132885 0.000000 
0.708887 0.165201 0.000000 
0.890711 0.554853 0.000000 
0.695518 0.558076 0.000000 
0.750000 1.000000 0.000000 
0.500000 0.560194 0.000000 
0.250000 1.000000 0.000000 
0.304482 0.558076 0.000000 
0.109289 0.554853 0.000000 
0.291113 0.165201 0.000000 
0.039164 -0.132885 0.000000 
0.125452 -0.420086 0.000000 
0.259854 -0.302240 0.000000 
0.139804 -0.290546 0.000000 
0.500000 -0.311221 0.000000 
0.379938 -0.309031 0.000000 
0.375083 -0.439500 0.000000 
0.390370 -0.010089 0.000000 
0.385024 -0.166458 0.000000 
0.500000 -0.011632 0.000000 
0.624917 -0.439500 0.000000 
0.620062 -0.309031 0.000000 
0.860196 -0.290546 0.000000 
0.740146 -0.302240 0.000000 
0.874548 -0.420086 0.000000 
0.614976 -0.166458 0.000000 
0.609630 -0.010089 0.000000 
0.979928 -0.274039 0.000000 
0.845587 -0.149398 0.000000 
0.814482 0.172287 0.000000 
0.830221 0.004488 0.000000 
0.940895 0.020656 0.000000 
0.719643 -0.005111 0.000000 
0.604188 0.162078 0.000000 
0.902425 0.365097 0.000000 
0.800156 0.355289 0.000000 
0.805103 0.774164 0.000000 
0.792271 0.555198 0.000000 
0.897382 0.755587 0.000000 
0.699424 0.352496 0.000000 
0.599567 0.351898 0.000000 
0.875000 1.000000 0.000000 
0.707328 0.779331 0.000000 
0.500000 0.780847 0.000000 
0.604665 0.780511 0.000000 
0.625000 1.000000 0.000000 
0.598117 0.559667 0.000000 
0.500000 0.351831 0.000000 
0.375000 1.000000 0.000000 
0.395335 0.780511 0.000000 
0.194897 0.774164 0.000000 
0.292672 0.779331 0.000000 
0.125000 1.000000 0.000000 
0.401883 0.559667 0.000000 
0.400433 0.351898 0.000000 
0.102618 0.755587 0.000000 
0.207729 0.555198 0.000000 
0.185518 0.172287 0.000000 
0.199844 0.355289 0.000000 
0.097575 0.365097 0.000000 
0.300576 0.352496 0.000000 
0.395812 0.162078 0.000000 
0.059105 0.020656 0.000000 
0.169779 0.004488 0.000000 
0.154413 -0.149398 0.000000 
0.020072 -0.274039 0.000000 
0.280357 -0.005111 0.000000 
0.063397 -0.412197 0.000000 
0.132664 -0.356702 0.000000 
0.071648 -0.348921 0.000000 
0.254984 -0.368679 0.000000 
0.193787 -0.363313 0.000000 
0.187726 -0.426820 0.000000 
0.205911 -0.227804 0.000000 
0.199814 -0.297017 0.000000 
0.264791 -0.232849 0.000000 
0.500000 -0.377932 0.000000 
0.438736 -0.377387 0.000000 
0.437554 -0.441248 0.000000 
0.441232 -0.240931 0.000000 
0.439969 -0.310680 0.000000 
0.500000 -0.241450 0.000000 
0.312602 -0.436528 0.000000 
0.377479 -0.375687 0.000000 
0.316224 -0.372795 0.000000 
0.446578 0.072942 0.000000 
0.445209 -0.011250 0.000000 
0.500000 0.072618 0.000000 
0.327468 -0.163950 0.000000 
0.387666 -0.090118 0.000000 
0.331402 -0.087829 0.000000 
0.500000 -0.091892 0.000000 
0.443853 -0.091453 0.000000 
0.442526 -0.167931 0.000000 
0.319899 -0.306232 0.000000 
0.382450 -0.239355 0.000000 
0.323639 -0.236680 0.000000 
0.562446 -0.441248 0.000000 
0.561264 -0.377387 0.000000 
0.683776 -0.372795 0.000000 
0.622521 -0.375687 0.000000 
0.687398 -0.436528 0.000000 
0.560031 -0.310680 0.000000 
0.558768 -0.240931 0.000000 
0.928352 -0.348921 0.000000 
0.867336 -0.356702 0.000000 
0.936603 -0.412197 0.000000 
0.735209 -0.232849 0.000000 
0.800186 -0.297017 0.000000 
0.794089 -0.227804 0.000000 
0.812274 -0.426820 0.000000 
0.806213 -0.363313 0.000000 
0.745016 -0.368679 0.000000 
0.554791 -0.011250 0.000000 
0.553422 0.072942 0.000000 
0.557474 -0.167931 0.000000 
0.556147 -0.091453 0.000000 
0.668598 -0.087829 0.000000 
0.612334 -0.090118 0.000000 
0.672532 -0.163950 0.000000 
0.680101 -0.306232 0.000000 
0.676361 -0.236680 0.000000 
0.617550 -0.239355 0.000000 
0.989219 -0.340136 0.000000 
0.920136 -0.282860 0.000000 
0.903290 -0.141884 0.000000 
0.911809 -0.213885 0.000000 
0.970490 -0.204984 0.000000 
0.852975 -0.221491 0.000000 
0.787852 -0.155515 0.000000 
0.867599 0.178327 0.000000 
0.876580 0.093280 0.000000 
0.930767 0.102162 0.000000 
0.768197 0.081619 0.000000 
0.822334 0.086574 0.000000 
0.761562 0.168077 0.000000 
0.950956 -0.057685 0.000000 
0.885615 0.011608 0.000000 
0.894549 -0.066752 0.000000 
0.606893 0.073890 0.000000 
0.552060 0.161392 0.000000 
0.724966 -0.084492 0.000000 
0.664568 -0.008083 0.000000 
0.656445 0.163288 0.000000 
0.660484 0.075538 0.000000 
0.714243 0.078040 0.000000 
0.837997 -0.074120 0.000000 
0.774870 -0.000995 0.000000 
0.781443 -0.079974 0.000000 
0.911147 0.274455 0.000000 
0.858941 0.266816 0.000000 
0.844746 0.454499 0.000000 
0.851095 0.358834 0.000000 
0.895263 0.458612 0.000000 
0.806934 0.261795 0.000000 
0.755227 0.258599 0.000000 
0.877556 0.883013 0.000000 
0.851307 0.767033 0.000000 
0.917644 0.862240 0.000000 
0.743898 0.556754 0.000000 
0.794455 0.662232 0.000000 
0.746798 0.665344 0.000000 
0.890448 0.653754 0.000000 
0.841961 0.657884 0.000000 
0.841039 0.554029 0.000000 
0.601673 0.254696 0.000000 
0.550803 0.254316 0.000000 
0.703819 0.256613 0.000000 
0.652658 0.255405 0.000000 
0.647272 0.453352 0.000000 
0.649434 0.352074 0.000000 
0.696327 0.452996 0.000000 
0.794866 0.452993 0.000000 
0.745468 0.452751 0.000000 
0.749628 0.353418 0.000000 
0.937500 1.000000 0.000000 
0.830210 0.889247 0.000000 
0.724151 0.891545 0.000000 
0.778271 0.891023 0.000000 
0.812500 1.000000 0.000000 
0.757058 0.777676 0.000000 
0.698501 0.667286 0.000000 
0.500000 0.891748 0.000000 
0.556543 0.891676 0.000000 
0.562500 1.000000 0.000000 
0.550085 0.669478 0.000000 
0.552448 0.780714 0.000000 
0.500000 0.669647 0.000000 
0.687500 1.000000 0.000000 
0.612896 0.891679 0.000000 
0.668862 0.891671 0.000000 
0.549768 0.351836 0.000000 
0.500000 0.254189 0.000000 
0.646936 0.559034 0.000000 
0.598211 0.453662 0.000000 
0.500000 0.453964 0.000000 
0.549117 0.453871 0.000000 
0.549107 0.560039 0.000000 
0.656395 0.780123 0.000000 
0.599989 0.669109 0.000000 
0.649521 0.668440 0.000000 
0.437500 1.000000 0.000000 
0.443457 0.891676 0.000000 
0.331138 0.891671 0.000000 
0.387104 0.891679 0.000000 
0.312500 1.000000 0.000000 
0.447552 0.780714 0.000000 
0.449915 0.669478 0.000000 
0.122444 0.883013 0.000000 
0.169790 0.889247 0.000000 
0.062500 1.000000 0.000000 
0.301499 0.667286 0.000000 
0.242942 0.777676 0.000000 
0.253202 0.665344 0.000000 
0.187500 1.000000 0.000000 
0.221729 0.891023 0.000000 
0.275849 0.891545 0.000000 
0.450232 0.351836 0.000000 
0.449197 0.254316 0.000000 
0.450893 0.560039 0.000000 
0.450883 0.453871 0.000000 
0.352728 0.453352 0.000000 
0.401789 0.453662 0.000000 
0.353064 0.559034 0.000000 
0.343605 0.780123 0.000000 
0.350479 0.668440 0.000000 
0.400011 0.669109 0.000000 
0.082356 0.862240 0.000000 
0.148693 0.767033 0.000000 
0.158961 0.554029 0.000000 
0.158039 0.657884 0.000000 
0.109552 0.653754 0.000000 
0.205545 0.662232 0.000000 
0.256102 0.556754 0.000000 
0.132401 0.178327 0.000000 
0.141059 0.266816 0.000000 
0.088853 0.274455 0.000000 
0.244773 0.258599 0.000000 
0.193066 0.261795 0.000000 
0.238438 0.168077 0.000000 
0.104737 0.458612 0.000000 
0.148905 0.358834 0.000000 
0.155254 0.454499 0.000000 
0.398327 0.254696 0.000000 
0.447940 0.161392 0.000000 
0.303673 0.452996 0.000000 
0.350566 0.352074 0.000000 
0.343555 0.163288 0.000000 
0.347342 0.255405 0.000000 
0.296181 0.256613 0.000000 
0.205134 0.452993 0.000000 
0.250372 0.353418 0.000000 
0.254532 0.452751 0.000000 
0.069233 0.102162 0.000000 
0.123420 0.093280 0.000000 
0.105451 -0.066752 0.000000 
0.114385 0.011608 0.000000 
0.049044 -0.057685 0.000000 
0.177666 0.086574 0.000000 
0.231803 0.081619 0.000000 
0.079864 -0.282860 0.000000 
0.010781 -0.340136 0.000000 
0.212148 -0.155515 0.000000 
0.147025 -0.221491 0.000000 
0.029510 -0.204984 0.000000 
0.088191 -0.213885 0.000000 
0.096710 -0.141884 0.000000 
0.393107 0.073890 0.000000 
0.285757 0.078040 0.000000 
0.339516 0.075538 0.000000 
0.335432 -0.008083 0.000000 
0.275034 -0.084492 0.000000 
0.162003 -0.074120 0.000000 
0.218557 -0.079974 0.000000 
0.225130 -0.000995 0.000000 
0.032476 -0.407891 0.000000 
0.067543 -0.380896 0.000000 
0.036831 -0.376606 0.000000 
0.129081 -0.388734 0.000000 
0.098292 -0.384950 0.000000 
0.094392 -0.416275 0.000000 
0.105977 -0.320255 0.000000 
0.102141 -0.352949 0.000000 
0.136231 -0.323978 0.000000 
0.252559 -0.400837 0.000000 
0.221654 -0.398281 0.000000 
0.218918 -0.429722 0.000000 
0.227101 -0.333326 0.000000 
0.224378 -0.366153 0.000000 
0.257414 -0.335819 0.000000 
0.156567 -0.423605 0.000000 
0.190768 -0.395409 0.000000 
0.159908 -0.392224 0.000000 
0.238160 -0.194680 0.000000 
0.235354 -0.230482 0.000000 
0.267300 -0.196993 0.000000 
0.169804 -0.293936 0.000000 
0.202849 -0.262784 0.000000 
0.173120 -0.259744 0.000000 
0.262311 -0.267924 0.000000 
0.232581 -0.265510 0.000000 
0.229832 -0.299784 0.000000 
0.163214 -0.360160 0.000000 
0.196798 -0.330520 0.000000 
0.166506 -0.327403 0.000000 
0.500000 -0.410192 0.000000 
0.469065 -0.410074 0.000000 
0.468782 -0.441663 0.000000 
0.469673 -0.344812 0.000000 
0.469366 -0.377800 0.000000 
0.500000 -0.344948 0.000000 
0.406321 -0.440526 0.000000 
0.438136 -0.409661 0.000000 
0.407205 -0.408950 0.000000 
0.470939 -0.205229 0.000000 
0.470617 -0.241321 0.000000 
0.500000 -0.205355 0.000000 
0.409954 -0.309996 0.000000 
0.440597 -0.276198 0.000000 
0.410894 -0.275528 0.000000 
0.500000 -0.276730 0.000000 
0.470299 -0.276598 0.000000 
0.469984 -0.311087 0.000000 
0.281364 -0.434575 0.000000 
0.314406 -0.405007 0.000000 
0.283478 -0.403079 0.000000 
0.376272 -0.407939 0.000000 
0.345338 -0.406625 0.000000 
0.343843 -0.438169 0.000000 
0.348378 -0.341449 0.000000 
0.346851 -0.374392 0.000000 
0.378702 -0.342725 0.000000 
0.439349 -0.344401 0.000000 
[...]
POINT_DATA 4225

SCALARS u_h float 2
LOOKUP_TABLE default
0.001613 -0.403456 
-0.001613 -0.403456 
0.000000 0.000000 
0.000000 0.000000 
-0.000000 -0.441735 
-0.079240 -0.313126 
0.000000 0.000000 
0.079240 -0.313126 
-0.000000 -0.338965 
0.000134 -0.432307 
-0.000000 -0.418416 
0.019843 -0.410332 
-0.000134 -0.432307 
-0.019843 -0.410332 
-0.039164 -0.382885 
-0.041113 -0.334799 
-0.109289 -0.195147 
-0.054482 -0.191924 
0.000000 0.000000 
-0.000000 -0.189806 
0.000000 0.000000 
0.054482 -0.191924 
0.109289 -0.195147 
0.041113 -0.334799 
0.039164 -0.382885 
0.000452 -0.420086 
0.009854 -0.427240 
0.014804 -0.415546 
-0.000000 -0.436221 
0.004938 -0.434031 
0.000083 -0.439500 
0.015370 -0.385089 
0.010024 -0.416458 
-0.000000 -0.386632 
-0.000083 -0.439500 
-0.004938 -0.434031 
-0.014804 -0.415546 
-0.009854 -0.427240 
-0.000452 -0.420086 
-0.010024 -0.416458 
-0.015370 -0.385089 
-0.020072 -0.399039 
-0.029413 -0.399398 
-0.060518 -0.327713 
-0.044779 -0.370512 
-0.059105 -0.354344 
-0.030357 -0.380111 
-0.020812 -0.337922 
-0.097575 -0.259903 
-0.074844 -0.269711 
-0.069897 -0.100836 
-0.082729 -0.194802 
-0.102618 -0.119413 
-0.050576 -0.272504 
-0.025433 -0.273102 
0.000000 0.000000 
-0.042672 -0.095669 
-0.000000 -0.094153 
-0.020335 -0.094489 
0.000000 0.000000 
-0.026883 -0.190333 
-0.000000 -0.273169 
0.000000 0.000000 
0.020335 -0.094489 
0.069897 -0.100836 
0.042672 -0.095669 
0.000000 0.000000 
0.026883 -0.190333 
0.025433 -0.273102 
0.102618 -0.119413 
0.082729 -0.194802 
0.060518 -0.327713 
0.074844 -0.269711 
0.097575 -0.259903 
0.050576 -0.272504 
0.020812 -0.337922 
0.059105 -0.354344 
0.044779 -0.370512 
0.029413 -0.399398 
0.020072 -0.399039 
0.030357 -0.380111 
0.000897 -0.412197 
0.007664 -0.419202 
0.009148 -0.411421 
0.004984 -0.431179 
0.006287 -0.425813 
0.000226 -0.426820 
0.018411 -0.415304 
0.012314 -0.422017 
0.014791 -0.420349 
-0.000000 -0.440432 
0.001236 -0.439887 
0.000054 -0.441248 
0.003732 -0.428431 
0.002469 -0.435680 
-0.000000 -0.428950 
0.000102 -0.436528 
0.002479 -0.438187 
0.003724 -0.435295 
0.009078 -0.364558 
0.007709 -0.386250 
-0.000000 -0.364882 
0.014968 -0.413950 
0.012666 -0.402618 
0.018902 -0.400329 
-0.000000 -0.404392 
0.006353 -0.403953 
0.005026 -0.417931 
0.007399 -0.431232 
0.007450 -0.426855 
0.011139 -0.424180 
-0.000054 -0.441248 
-0.001236 -0.439887 
-0.003724 -0.435295 
-0.002479 -0.438187 
-0.000102 -0.436528 
-0.002469 -0.435680 
-0.003732 -0.428431 
-0.009148 -0.411421 
-0.007664 -0.419202 
-0.000897 -0.412197 
-0.014791 -0.420349 
-0.012314 -0.422017 
-0.018411 -0.415304 
-0.000226 -0.426820 
-0.006287 -0.425813 
-0.004984 -0.431179 
-0.007709 -0.386250 
-0.009078 -0.364558 
-0.005026 -0.417931 
-0.006353 -0.403953 
-0.018902 -0.400329 
-0.012666 -0.402618 
-0.014968 -0.413950 
-0.007399 -0.431232 
-0.011139 -0.424180 
-0.007450 -0.426855 
-0.010781 -0.402636 
-0.017364 -0.407860 
-0.034210 -0.391884 
-0.025691 -0.401385 
-0.029510 -0.392484 
-0.022025 -0.408991 
-0.024648 -0.405515 
-0.069901 -0.321673 
-0.060920 -0.344220 
-0.069233 -0.335338 
-0.044303 -0.355881 
-0.052666 -0.350926 
-0.050938 -0.331923 
-0.049044 -0.370185 
-0.051885 -0.363392 
-0.042951 -0.379252 
-0.018107 -0.363610 
-0.010440 -0.338608 
-0.025034 -0.396992 
-0.022932 -0.383083 
-0.031055 -0.336712 
-0.027016 -0.361962 
-0.035757 -0.359460 
-0.037003 -0.386620 
-0.037630 -0.375995 
-0.031057 -0.392474 
-0.088853 -0.288045 
-0.078559 -0.295684 
-0.092754 -0.233001 
-0.086405 -0.266166 
-0.104737 -0.228888 
-0.068066 -0.300705 
-0.057273 -0.303901 
-0.059944 -0.054487 
-0.086193 -0.107967 
-0.082356 -0.075260 
-0.068602 -0.193246 
-0.080545 -0.150268 
-0.065702 -0.147156 
-0.109552 -0.158746 
-0.095539 -0.154616 
-0.096461 -0.195971 
-0.023327 -0.307804 
-0.011697 -0.308184 
-0.046181 -0.305887 
-0.034842 -0.307095 
-0.040228 -0.234148 
-0.038066 -0.272926 
-0.053673 -0.234504 
-0.080134 -0.234507 
-0.067032 -0.234749 
-0.062872 -0.271582 
0.000000 0.000000 
-0.044790 -0.048253 
-0.025849 -0.045955 
-0.034229 -0.046477 
0.000000 0.000000 
-0.055442 -0.097324 
-0.051499 -0.145214 
0.000000 -0.045752 
-0.005957 -0.045824 
0.000000 0.000000 
-0.012415 -0.143022 
-0.010052 -0.094286 
-0.000000 -0.142853 
0.000000 0.000000 
-0.012104 -0.045821 
-0.018638 -0.045829 
-0.012732 -0.273164 
-0.000000 -0.308311 
-0.040564 -0.190966 
-0.026789 -0.233838 
-0.000000 -0.233536 
-0.013383 -0.233629 
-0.013393 -0.189961 
-0.031105 -0.094877 
-0.025011 -0.143391 
-0.037979 -0.144060 
0.000000 0.000000 
0.005957 -0.045824 
0.018638 -0.045829 
0.012104 -0.045821 
0.000000 0.000000 
0.010052 -0.094286 
0.012415 -0.143022 
0.059944 -0.054487 
0.044790 -0.048253 
0.000000 0.000000 
0.051499 -0.145214 
0.055442 -0.097324 
0.065702 -0.147156 
0.000000 0.000000 
0.034229 -0.046477 
0.025849 -0.045955 
0.012732 -0.273164 
0.011697 -0.308184 
0.013393 -0.189961 
0.013383 -0.233629 
0.040228 -0.234148 
0.026789 -0.233838 
0.040564 -0.190966 
0.031105 -0.094877 
0.037979 -0.144060 
0.025011 -0.143391 
0.082356 -0.075260 
0.086193 -0.107967 
0.096461 -0.195971 
0.095539 -0.154616 
0.109552 -0.158746 
0.080545 -0.150268 
0.068602 -0.193246 
0.069901 -0.321673 
0.078559 -0.295684 
0.088853 -0.288045 
0.057273 -0.303901 
0.068066 -0.300705 
0.050938 -0.331923 
0.104737 -0.228888 
0.086405 -0.266166 
0.092754 -0.233001 
0.023327 -0.307804 
0.010440 -0.338608 
0.053673 -0.234504 
0.038066 -0.272926 
0.031055 -0.336712 
0.034842 -0.307095 
0.046181 -0.305887 
0.080134 -0.234507 
0.062872 -0.271582 
0.067032 -0.234749 
0.069233 -0.335338 
0.060920 -0.344220 
0.042951 -0.379252 
0.051885 -0.363392 
0.049044 -0.370185 
0.052666 -0.350926 
0.044303 -0.355881 
0.017364 -0.407860 
0.010781 -0.402636 
0.024648 -0.405515 
0.022025 -0.408991 
0.029510 -0.392484 
0.025691 -0.401385 
0.034210 -0.391884 
0.018107 -0.363610 
0.035757 -0.359460 
0.027016 -0.361962 
0.022932 -0.383083 
0.025034 -0.396992 
0.037003 -0.386620 
0.031057 -0.392474 
0.037630 -0.375995 
0.001226 -0.407891 
0.005043 -0.412146 
0.005581 -0.407856 
0.004081 -0.419984 
0.004542 -0.416200 
0.000642 -0.416275 
0.012227 -0.414005 
0.008391 -0.415449 
0.011231 -0.417728 
0.002559 -0.432087 
0.002904 -0.429531 
0.000168 -0.429722 
0.008351 -0.427076 
0.005628 -0.428653 
0.007414 -0.429569 
0.000317 -0.423605 
0.003268 -0.426659 
0.003658 -0.423474 
0.019410 -0.413430 
0.016604 -0.417982 
0.017300 -0.415743 
0.013554 -0.418936 
0.015349 -0.419034 
0.016870 -0.415994 
0.012311 -0.424174 
0.013831 -0.421760 
0.011082 -0.424784 
0.006964 -0.422660 
0.009298 -0.424270 
0.010256 -0.421153 
-0.000000 -0.441442 
0.000315 -0.441324 
0.000032 -0.441663 
0.000923 -0.438562 
0.000616 -0.440300 
-0.000000 -0.438698 
0.000071 -0.440526 
0.000636 -0.440911 
0.000955 -0.440200 
0.002189 -0.423979 
0.001867 -0.428821 
-0.000000 -0.424105 
0.003704 -0.434996 
0.003097 -0.432448 
0.004644 -0.431778 
-0.000000 -0.432980 
0.001549 -0.432848 
0.001234 -0.436087 
0.000114 -0.434575 
0.001906 -0.436257 
0.002228 -0.434329 
0.001272 -0.439189 
0.001588 -0.437875 
0.000093 -0.438169 
0.004628 -0.435199 
0.003101 -0.436892 
0.003702 -0.436475 
0.001849 -0.438151 
0.002775 -0.437457 
0.001858 -0.439184 
0.004877 -0.352350 
0.004540 -0.364798 
-0.000000 -0.352444 
0.011549 -0.385769 
0.008394 -0.375919 
0.012576 -0.375480 
-0.000000 -0.376271 
0.004199 -0.376182 
0.003857 -0.386536 
0.017415 -0.412285 
0.016922 -0.407578 
0.019683 -0.405976 
0.011337 -0.409983 
0.014139 -0.408910 
0.012504 -0.415338 
0.017473 -0.393371 
0.015796 -0.401598 
0.014012 -0.394330 
-0.000000 -0.411855 
0.002845 -0.411740 
0.002515 -0.418295 
0.003517 -0.395892 
0.003179 -0.404283 
-0.000000 -0.395995 
0.007530 -0.417320 
0.005685 -0.411392 
0.008517 -0.410808 
0.010528 -0.395065 
0.009517 -0.403400 
0.007028 -0.395583 
0.004351 -0.433392 
0.006170 -0.432778 
0.005555 -0.433627 
0.006483 -0.431752 
0.008627 -0.429388 
0.004375 -0.423601 
0.008729 -0.422072 
0.006556 -0.422967 
0.005594 -0.427777 
0.006187 -0.430832 
0.015178 -0.417755 
0.010788 -0.426282 
0.012970 -0.422413 
0.013041 -0.419475 
0.010891 -0.420911 
0.007726 -0.429605 
0.009299 -0.425658 
0.009259 -0.428091 
-0.000032 -0.441663 
-0.000315 -0.441324 
-0.000955 -0.440200 
-0.000636 -0.440911 
-0.000071 -0.440526 
-0.000616 -0.440300 
-0.000923 -0.438562 
-0.002228 -0.434329 
-0.001906 -0.436257 
-0.000114 -0.434575 
-0.003702 -0.436475 
-0.003101 -0.436892 
-0.004628 -0.435199 
-0.000093 -0.438169 
-0.001588 -0.437875 
-0.001272 -0.439189 
-0.001867 -0.428821 
-0.002189 -0.423979 
-0.001234 -0.436087 
-0.001549 -0.432848 
-0.004644 -0.431778 
-0.003097 -0.432448 
-0.003704 -0.434996 
-0.001858 -0.439184 
-0.002775 -0.437457 
-0.001849 -0.438151 
-0.005581 -0.407856 
-0.005043 -0.412146 
-0.001226 -0.407891 
-0.011231 -0.417728 
-0.008391 -0.415449 
-0.012227 -0.414005 
-0.000642 -0.416275 
-0.004542 -0.416200 
-0.004081 -0.419984 
-0.017300 -0.415743 
-0.016604 -0.417982 
-0.019410 -0.413430 
-0.011082 -0.424784 
-0.013831 -0.421760 
-0.012311 -0.424174 
-0.016870 -0.415994 
-0.015349 -0.419034 
-0.013554 -0.418936 
-0.000168 -0.429722 
-0.002904 -0.429531 
-0.002559 -0.432087 
-0.003658 -0.423474 
-0.003268 -0.426659 
-0.000317 -0.423605 
-0.007414 -0.429569 
-0.005628 -0.428653 
-0.008351 -0.427076 
-0.010256 -0.421153 
-0.009298 -0.424270 
-0.006964 -0.422660 
-0.004540 -0.364798 
-0.004877 -0.352350 
-0.003857 -0.386536 
-0.004199 -0.376182 
-0.012576 -0.375480 
-0.008394 -0.375919 
-0.011549 -0.385769 
-0.002515 -0.418295 
-0.002845 -0.411740 
-0.008517 -0.410808 
-0.005685 -0.411392 
-0.007530 -0.417320 
-0.003179 -0.404283 
-0.003517 -0.395892 
-0.019683 -0.405976 
-0.016922 -0.407578 
-0.017415 -0.412285 
-0.014012 -0.394330 
-0.015796 -0.401598 
-0.017473 -0.393371 
-0.012504 -0.415338 
-0.014139 -0.408910 
-0.011337 -0.409983 
-0.007028 -0.395583 
-0.009517 -0.403400 
-0.010528 -0.395065 
-0.004351 -0.433392 
-0.008627 -0.429388 
-0.006483 -0.431752 
-0.005555 -0.433627 
-0.006170 -0.432778 
-0.015178 -0.417755 
-0.010891 -0.420911 
-0.013041 -0.419475 
-0.012970 -0.422413 
-0.010788 -0.426282 
-0.004375 -0.423601 
-0.006187 -0.430832 
-0.005594 -0.427777 
-0.006556 -0.422967 
-0.008729 -0.422072 
-0.009259 -0.428091 
-0.009299 -0.425658 
-0.007726 -0.429605 
-0.006163 -0.403374 
-0.009940 -0.407143 
-0.018693 -0.403584 
-0.014307 -0.405723 
-0.015414 -0.401199 
-0.013249 -0.409997 
-0.016071 -0.411851 
-0.036657 -0.387575 
-0.032087 -0.392719 
-0.034308 -0.388069 
-0.027798 -0.400972 
-0.029923 -0.397019 
-0.031802 -0.395821 
-0.024767 -0.396137 
-0.027573 -0.397095 
-0.023111 -0.400712 
-0.021509 -0.410804 
-0.022253 -0.408080 
-0.018398 -0.412640 
-0.020216 -0.412308 
-0.027032 -0.402625 
-0.023602 -0.407858 
-0.025695 -0.404583 
-0.021507 -0.404993 
-0.023846 -0.405351 
-0.019940 -0.408971 
-0.074561 -0.317774 
-0.069829 -0.329330 
-0.074266 -0.324641 
-0.061031 -0.336833 
-0.065430 -0.333372 
-0.065227 -0.324958 
-0.064170 -0.345237 
-0.065055 -0.340077 
-0.060260 -0.350009 
-0.043073 -0.346168 
-0.047638 -0.344396 
-0.046056 -0.333502 
-0.048716 -0.361163 
-0.048505 -0.353597 
-0.044854 -0.363975 
-0.055757 -0.330013 
-0.052148 -0.342285 
-0.056609 -0.339783 
-0.044077 -0.376926 
-0.045968 -0.374943 
-0.041285 -0.381653 
-0.055468 -0.359128 
-0.050699 -0.367437 
-0.054057 -0.362659 
-0.044129 -0.375573 
-0.047398 -0.371731 
-0.048329 -0.367174 
-0.056799 -0.347818 
-0.052558 -0.357927 
-0.056398 -0.354225 
-0.009760 -0.352131 
-0.005225 -0.338798 
-0.016738 -0.374859 
-0.013603 -0.364164 
-0.015638 -0.338322 
-0.014627 -0.351788 
-0.019469 -0.351307 
-0.022420 -0.404091 
-0.021982 -0.398799 
-0.026663 -0.381728 
-0.024310 -0.390726 
-0.027681 -0.389008 
-0.020907 -0.392175 
-0.019167 -0.384198 
-0.036111 -0.335857 
-0.033777 -0.348868 
-0.038452 -0.347646 
-0.024280 -0.350673 
-0.029051 -0.349868 
-0.025953 -0.337392 
-0.033053 -0.370271 
-0.031410 -0.360830 
-0.029034 -0.371772 
-0.020872 -0.374045 
-0.024972 -0.373023 
-0.022580 -0.362881 
-0.038554 -0.385966 
-0.040871 -0.378991 
-0.039970 -0.383137 
-0.035859 -0.389881 
-0.033183 -0.393416 
-0.040055 -0.357822 
-0.034012 -0.378209 
-0.037028 -0.368493 
-0.040961 -0.366405 
-0.041216 -0.373440 
-0.025135 -0.401908 
-0.030510 -0.396587 
-0.027830 -0.399412 
-0.028058 -0.394890 
-0.031019 -0.386999 
-0.037607 -0.382017 
-0.034326 -0.384677 
-0.034036 -0.389725 
-0.084131 -0.300986 
-0.079220 -0.305416 
-0.088014 -0.278257 
-0.083719 -0.292245 
-0.093359 -0.274343 
-0.074302 -0.309114 
-0.069353 -0.312176 
-0.101339 -0.214097 
-0.098827 -0.231379 
-0.107425 -0.212351 
-0.080678 -0.268206 
-0.089824 -0.250050 
-0.083844 -0.251604 
-0.101406 -0.244745 
-0.095674 -0.247827 
-0.092030 -0.263451 
-0.054166 -0.318435 
-0.048967 -0.319794 
-0.064355 -0.314695 
-0.059295 -0.316757 
-0.065938 -0.287179 
-0.062709 -0.302488 
-0.071588 -0.285719 
-0.082618 -0.281372 
-0.077146 -0.283819 
-0.073346 -0.298469 
-0.045265 -0.031548 
-0.070459 -0.062215 
-0.061539 -0.047686 
-0.077852 -0.103827 
-0.076058 -0.082152 
-0.067359 -0.077550 
-0.094811 -0.098240 
-0.085478 -0.089054 
-0.094621 -0.113306 
-0.061525 -0.192541 
-0.067866 -0.170749 
-0.060675 -0.169805 
-0.082416 -0.173157 
-0.075128 -0.171872 
-0.075685 -0.194016 
-0.069016 -0.124110 
-0.073060 -0.148545 
-0.076599 -0.126134 
-0.110098 -0.177282 
-0.103601 -0.176919 
-0.103015 -0.195958 
-0.099999 -0.135779 
-0.102756 -0.156904 
-0.107246 -0.139493 
-0.089677 -0.195506 
-0.096754 -0.175878 
-0.089656 -0.174540 
-0.084401 -0.128772 
-0.088080 -0.152323 
-0.092280 -0.132044 
-0.011091 -0.323966 
-0.005556 -0.324113 
-0.022104 -0.323429 
-0.016609 -0.323743 
-0.018358 -0.291161 
-0.017523 -0.308028 
-0.024449 -0.291030 
-0.043702 -0.320890 
-0.038376 -0.321767 
-0.042547 -0.290238 
-0.040538 -0.306568 
-0.048495 -0.289766 
-0.032996 -0.322463 
-0.027569 -0.323009 
-0.047553 -0.213404 
-0.046954 -0.234327 
-0.054444 -0.213772 
-0.031761 -0.273035 
-0.039320 -0.254109 
-0.032781 -0.254074 
-0.052338 -0.254085 
-0.045843 -0.254120 
-0.044342 -0.272758 
-0.029102 -0.307499 
-0.036551 -0.290588 
-0.030515 -0.290844 
-0.095035 -0.214990 
-0.081872 -0.215238 
-0.088534 -0.215299 
-0.086518 -0.233982 
-0.077736 -0.252652 
-0.061346 -0.214174 
-0.058793 -0.253974 
-0.060372 -0.234657 
-0.068238 -0.214585 
-0.075092 -0.214963 
-0.051762 -0.305014 
-0.068905 -0.270803 
-0.060200 -0.288292 
-0.054383 -0.289134 
-0.056757 -0.272128 
-0.073629 -0.234726 
-0.065191 -0.253742 
-0.071512 -0.253329 
0.000000 0.000000 
-0.035285 -0.025769 
-0.024911 -0.022837 
-0.029219 -0.023707 
0.000000 0.000000 
-0.051546 -0.050393 
-0.059593 -0.074654 
-0.014033 -0.022248 
-0.016251 -0.022243 
0.000000 0.000000 
-0.040685 -0.071047 
-0.029848 -0.046136 
-0.035369 -0.070606 
0.000000 0.000000 
-0.018714 -0.022293 
-0.021536 -0.022452 
-0.058512 -0.146063 
-0.053582 -0.169031 
-0.062430 -0.098754 
-0.061714 -0.122598 
-0.047959 -0.120666 
-0.054701 -0.121484 
-0.048877 -0.096344 
-0.039136 -0.047104 
-0.046412 -0.071746 
-0.052665 -0.072861 
-0.000000 -0.022400 
-0.001592 -0.022436 
0.000000 0.000000 
-0.004105 -0.069830 
-0.002966 -0.045805 
-0.000000 -0.069771 
0.000000 0.000000 
-0.003205 -0.022437 
-0.004847 -0.022420 
-0.006517 -0.166714 
-0.006197 -0.142916 
-0.000000 -0.166655 
-0.015150 -0.094373 
-0.011431 -0.118761 
-0.017213 -0.118888 
-0.000000 -0.118605 
-0.005703 -0.118669 
-0.005013 -0.094216 
0.000000 0.000000 
-0.010080 -0.022316 
-0.011991 -0.022277 
-0.006530 -0.022392 
-0.008268 -0.022356 
0.000000 0.000000 
-0.021088 -0.070039 
-0.015307 -0.045819 
-0.016698 -0.069966 
-0.008237 -0.069874 
-0.012425 -0.069915 
-0.008996 -0.045826 
-0.005855 -0.308279 
-0.000000 -0.324179 
-0.019088 -0.273143 
-0.012250 -0.291249 
-0.000000 -0.291311 
-0.006129 -0.291298 
-0.006369 -0.273172 
-0.047493 -0.191401 
-0.040684 -0.213080 
-0.027033 -0.212579 
-0.033844 -0.212805 
-0.033695 -0.190613 
-0.033505 -0.233983 
-0.026232 -0.254029 
-0.000000 -0.212141 
-0.006741 -0.212184 
-0.006691 -0.189858 
-0.006561 -0.253917 
-0.006691 -0.233567 
-0.000000 -0.253899 
-0.020119 -0.190118 
-0.013488 -0.212271 
-0.020250 -0.212402 
-0.019677 -0.253985 
-0.020082 -0.233719 
-0.013120 -0.253946 
-0.022135 -0.045866 
-0.025641 -0.094650 
-0.025632 -0.070151 
-0.030374 -0.070328 
-0.036766 -0.095202 
-0.013051 -0.166823 
-0.026244 -0.167217 
-0.019621 -0.166989 
-0.018678 -0.143177 
-0.023076 -0.119063 
-0.046596 -0.168407 
-0.041459 -0.120066 
-0.044660 -0.144561 
-0.039718 -0.167910 
-0.032938 -0.167519 
-0.029051 -0.119301 
-0.031437 -0.143679 
-0.035168 -0.119625 
0.000000 0.000000 
0.001592 -0.022436 
0.004847 -0.022420 
0.003205 -0.022437 
0.000000 0.000000 
0.002966 -0.045805 
0.004105 -0.069830 
0.011991 -0.022277 
0.010080 -0.022316 
0.000000 0.000000 
0.016698 -0.069966 
0.015307 -0.045819 
0.021088 -0.070039 
0.000000 0.000000 
0.008268 -0.022356 
0.006530 -0.022392 
0.006197 -0.142916 
0.006517 -0.166714 
0.005013 -0.094216 
0.005703 -0.118669 
0.017213 -0.118888 
0.011431 -0.118761 
0.015150 -0.094373 
0.008996 -0.045826 
0.012425 -0.069915 
0.008237 -0.069874 
0.045265 -0.031548 
0.035285 -0.025769 
0.000000 0.000000 
0.059593 -0.074654 
0.051546 -0.050393 
0.067359 -0.077550 
0.000000 0.000000 
0.029219 -0.023707 
0.024911 -0.022837 
0.053582 -0.169031 
0.058512 -0.146063 
0.060675 -0.169805 
0.048877 -0.096344 
0.054701 -0.121484 
0.047959 -0.120666 
0.069016 -0.124110 
0.061714 -0.122598 
0.062430 -0.098754 
0.000000 0.000000 
0.016251 -0.022243 
0.014033 -0.022248 
0.021536 -0.022452 
0.018714 -0.022293 
0.000000 0.000000 
0.035369 -0.070606 
0.029848 -0.046136 
0.040685 -0.071047 
0.052665 -0.072861 
0.046412 -0.071746 
0.039136 -0.047104 
0.005855 -0.308279 
0.005556 -0.324113 
0.006369 -0.273172 
0.006129 -0.291298 
0.018358 -0.291161 
0.012250 -0.291249 
0.019088 -0.273143 
0.006691 -0.189858 
0.006741 -0.212184 
0.020250 -0.212402 
0.013488 -0.212271 
0.020119 -0.190118 
0.006691 -0.233567 
0.006561 -0.253917 
0.047553 -0.213404 
0.040684 -0.213080 
0.047493 -0.191401 
0.026232 -0.254029 
0.033505 -0.233983 
0.032781 -0.254074 
0.033695 -0.190613 
0.033844 -0.212805 
0.027033 -0.212579 
0.013120 -0.253946 
0.020082 -0.233719 
0.019677 -0.253985 
0.022135 -0.045866 
0.036766 -0.095202 
0.030374 -0.070328 
0.025632 -0.070151 
0.025641 -0.094650 
0.046596 -0.168407 
0.032938 -0.167519 
0.039718 -0.167910 
0.044660 -0.144561 
0.041459 -0.120066 
0.013051 -0.166823 
0.023076 -0.119063 
0.018678 -0.143177 
0.019621 -0.166989 
0.026244 -0.167217 
0.035168 -0.119625 
0.031437 -0.143679 
0.029051 -0.119301 
0.061539 -0.047686 
0.070459 -0.062215 
0.094621 -0.113306 
0.085478 -0.089054 
0.094811 -0.098240 
0.076058 -0.082152 
0.077852 -0.103827 
0.103015 -0.195958 
0.103601 -0.176919 
0.110098 -0.177282 
0.089656 -0.174540 
0.096754 -0.175878 
0.089677 -0.195506 
0.107246 -0.139493 
0.102756 -0.156904 
0.099999 -0.135779 
0.067866 -0.170749 
0.061525 -0.192541 
0.076599 -0.126134 
0.073060 -0.148545 
0.075685 -0.194016 
0.075128 -0.171872 
0.082416 -0.173157 
0.092280 -0.132044 
0.088080 -0.152323 
0.084401 -0.128772 
0.074561 -0.317774 
0.079220 -0.305416 
0.084131 -0.300986 
0.069353 -0.312176 
0.074302 -0.309114 
0.065227 -0.324958 
0.093359 -0.274343 
0.083719 -0.292245 
0.088014 -0.278257 
0.048967 -0.319794 
0.054166 -0.318435 
0.046056 -0.333502 
0.071588 -0.285719 
0.062709 -0.302488 
0.065938 -0.287179 
0.055757 -0.330013 
0.059295 -0.316757 
0.064355 -0.314695 
0.107425 -0.212351 
0.098827 -0.231379 
0.101339 -0.214097 
0.092030 -0.263451 
0.095674 -0.247827 
0.101406 -0.244745 
0.083844 -0.251604 
0.089824 -0.250050 
0.080678 -0.268206 
0.073346 -0.298469 
0.077146 -0.283819 
0.082618 -0.281372 
0.011091 -0.323966 
0.005225 -0.338798 
0.024449 -0.291030 
0.017523 -0.308028 
0.015638 -0.338322 
0.016609 -0.323743 
0.022104 -0.323429 
0.054444 -0.213772 
0.046954 -0.234327 
0.044342 -0.272758 
0.045843 -0.254120 
0.052338 -0.254085 
0.039320 -0.254109 
0.031761 -0.273035 
0.036111 -0.335857 
0.038376 -0.321767 
0.043702 -0.320890 
0.027569 -0.323009 