# vtk DataFile Version 2.0
Unstructured Grid Example
ASCII
DATASET UNSTRUCTURED_GRID

POINTS 1089 float
0.002301 -0.403687 0.000000 
0.997699 -0.403687 0.000000 
1.000000 1.000000 0.000000 
0.000000 1.000000 0.000000 
0.500000 -0.440600 0.000000 
0.920895 0.187737 0.000000 
0.500000 1.000000 0.000000 
0.079105 0.187737 0.000000 
0.500000 0.161362 0.000000 
0.250407 -0.431627 0.000000 
0.500000 -0.167569 0.000000 
0.269794 -0.159604 0.000000 
0.749593 -0.431627 0.000000 
0.730206 -0.159604 0.000000 
0.960851 -0.132431 0.000000 
0.708942 0.165906 0.000000 
0.891069 0.555194 0.000000 
0.695764 0.558686 0.000000 
0.750000 1.000000 0.000000 
0.500000 0.560977 0.000000 
0.250000 1.000000 0.000000 
0.304236 0.558686 0.000000 
0.108931 0.555194 0.000000 
0.291058 0.165906 0.000000 
0.039149 -0.132431 0.000000 
0.125907 -0.419633 0.000000 
0.259930 -0.301514 0.000000 
0.139899 -0.290013 0.000000 
0.500000 -0.310269 0.000000 
0.379966 -0.308174 0.000000 
0.375229 -0.438666 0.000000 
0.390301 -0.009349 0.000000 
0.384987 -0.165645 0.000000 
0.500000 -0.010930 0.000000 
0.624771 -0.438666 0.000000 
0.620034 -0.308174 0.000000 
0.860101 -0.290013 0.000000 
0.740070 -0.301514 0.000000 
0.874093 -0.419633 0.000000 
0.615013 -0.165645 0.000000 
0.609699 -0.009349 0.000000 
0.979820 -0.273811 0.000000 
0.845635 -0.148807 0.000000 
0.814580 0.172972 0.000000 
0.830317 0.005147 0.000000 
0.940959 0.021263 0.000000 
0.719735 -0.004389 0.000000 
0.604203 0.162770 0.000000 
0.902597 0.365587 0.000000 
0.800260 0.355942 0.000000 
0.805781 0.774813 0.000000 
0.792580 0.555828 0.000000 
0.898019 0.756267 0.000000 
0.699497 0.353168 0.000000 
0.599587 0.352570 0.000000 
0.875000 1.000000 0.000000 
0.707717 0.779725 0.000000 
0.500000 0.781461 0.000000 
0.604831 0.780834 0.000000 
0.625000 1.000000 0.000000 
0.598240 0.560267 0.000000 
0.500000 0.352540 0.000000 
0.375000 1.000000 0.000000 
0.395169 0.780834 0.000000 
0.194219 0.774813 0.000000 
0.292283 0.779725 0.000000 
0.125000 1.000000 0.000000 
0.401760 0.560267 0.000000 
0.400413 0.352570 0.000000 
0.101981 0.756267 0.000000 
0.207420 0.555828 0.000000 
0.185420 0.172972 0.000000 
0.199740 0.355942 0.000000 
0.097403 0.365587 0.000000 
0.300503 0.353168 0.000000 
0.395797 0.162770 0.000000 
0.059041 0.021263 0.000000 
0.169683 0.005147 0.000000 
0.154365 -0.148807 0.000000 
0.020180 -0.273811 0.000000 
0.280265 -0.004389 0.000000 
0.063980 -0.411966 0.000000 
0.132912 -0.356195 0.000000 
0.071906 -0.348600 0.000000 
0.255157 -0.367968 0.000000 
0.194002 -0.362688 0.000000 
0.188080 -0.426234 0.000000 
0.205916 -0.227149 0.000000 
0.199906 -0.296373 0.000000 
0.264793 -0.232119 0.000000 
0.500000 -0.376910 0.000000 
0.438766 -0.376452 0.000000 
0.437635 -0.440318 0.000000 
0.441224 -0.240050 0.000000 
0.439977 -0.309765 0.000000 
0.500000 -0.240550 0.000000 
0.312808 -0.435770 0.000000 
0.377557 -0.374833 0.000000 
0.316350 -0.372012 0.000000 
0.446525 0.073596 0.000000 
0.445165 -0.010529 0.000000 
0.500000 0.073191 0.000000 
0.327424 -0.163172 0.000000 
0.387609 -0.089340 0.000000 
0.331331 -0.087071 0.000000 
0.500000 -0.091108 0.000000 
0.443819 -0.090669 0.000000 
0.442504 -0.167094 0.000000 
0.319952 -0.305438 0.000000 
0.382441 -0.238513 0.000000 
0.323635 -0.235888 0.000000 
0.562365 -0.440318 0.000000 
0.561234 -0.376452 0.000000 
0.683650 -0.372012 0.000000 
0.622443 -0.374833 0.000000 
0.687192 -0.435770 0.000000 
0.560023 -0.309765 0.000000 
0.558776 -0.240050 0.000000 
0.928094 -0.348600 0.000000 
0.867088 -0.356195 0.000000 
0.936020 -0.411966 0.000000 
0.735207 -0.232119 0.000000 
0.800094 -0.296373 0.000000 
0.794084 -0.227149 0.000000 
0.811920 -0.426234 0.000000 
0.805998 -0.362688 0.000000 
0.744843 -0.367968 0.000000 
0.554835 -0.010529 0.000000 
0.553475 0.073596 0.000000 
0.557496 -0.167094 0.000000 
0.556181 -0.090669 0.000000 
0.668669 -0.087071 0.000000 
0.612391 -0.089340 0.000000 
0.672576 -0.163172 0.000000 
0.680048 -0.305438 0.000000 
0.676365 -0.235888 0.000000 
0.617559 -0.238513 0.000000 
0.988950 -0.340107 0.000000 
0.920045 -0.282476 0.000000 
0.903327 -0.141370 0.000000 
0.911801 -0.213434 0.000000 
0.970460 -0.204625 0.000000 
0.852971 -0.220932 0.000000 
0.787902 -0.154849 0.000000 
0.867718 0.179029 0.000000 
0.876687 0.093961 0.000000 
0.930856 0.102865 0.000000 
0.768293 0.082319 0.000000 
0.822439 0.087257 0.000000 
0.761638 0.168771 0.000000 
0.950998 -0.057153 0.000000 
0.885701 0.012239 0.000000 
0.894614 -0.066178 0.000000 
0.606956 0.074600 0.000000 
0.552062 0.162015 0.000000 
0.725045 -0.083766 0.000000 
0.664650 -0.007343 0.000000 
0.656478 0.163997 0.000000 
0.660557 0.076263 0.000000 
0.714328 0.078758 0.000000 
0.838075 -0.073494 0.000000 
0.774966 -0.000303 0.000000 
0.781524 -0.079296 0.000000 
0.911265 0.275092 0.000000 
0.859024 0.267473 0.000000 
0.844951 0.455074 0.000000 
0.851218 0.359443 0.000000 
0.895516 0.459003 0.000000 
0.807006 0.262464 0.000000 
0.755288 0.259280 0.000000 
0.878556 0.884128 0.000000 
0.852005 0.767765 0.000000 
0.918470 0.864265 0.000000 
0.744184 0.557384 0.000000 
0.794932 0.662864 0.000000 
0.747234 0.665941 0.000000 
0.890934 0.654135 0.000000 
0.842448 0.658507 0.000000 
0.841364 0.554603 0.000000 
0.601671 0.255375 0.000000 
0.550778 0.254955 0.000000 
0.703865 0.257301 0.000000 
0.652682 0.256095 0.000000 
0.647380 0.453997 0.000000 
0.649482 0.352746 0.000000 
0.696469 0.453644 0.000000 
0.795051 0.453631 0.000000 
0.745635 0.453402 0.000000 
0.749719 0.354086 0.000000 
0.937500 1.000000 0.000000 
0.830819 0.889792 0.000000 
0.724338 0.891728 0.000000 
0.778590 0.891299 0.000000 
0.812500 1.000000 0.000000 
0.757603 0.778187 0.000000 
0.698860 0.667824 0.000000 
0.500000 0.892135 0.000000 
0.556598 0.891872 0.000000 
0.562500 1.000000 0.000000 
0.550165 0.670034 0.000000 
0.552528 0.781106 0.000000 
0.500000 0.670382 0.000000 
0.687500 1.000000 0.000000 
0.612984 0.891828 0.000000 
0.668986 0.891822 0.000000 
0.549767 0.352515 0.000000 
0.500000 0.254773 0.000000 
0.647127 0.559627 0.000000 
0.598277 0.454317 0.000000 
0.500000 0.454735 0.000000 
0.549143 0.454564 0.000000 
0.549164 0.560696 0.000000 
0.656659 0.780454 0.000000 
0.600159 0.669597 0.000000 
0.649786 0.668932 0.000000 
0.437500 1.000000 0.000000 
0.443402 0.891872 0.000000 
0.331014 0.891822 0.000000 
0.387016 0.891828 0.000000 
0.312500 1.000000 0.000000 
0.447472 0.781106 0.000000 
0.449835 0.670034 0.000000 
0.121444 0.884128 0.000000 
0.169181 0.889792 0.000000 
0.062500 1.000000 0.000000 
0.301140 0.667824 0.000000 
0.242397 0.778187 0.000000 
0.252766 0.665941 0.000000 
0.187500 1.000000 0.000000 
0.221410 0.891299 0.000000 
0.275662 0.891728 0.000000 
0.450233 0.352515 0.000000 
0.449222 0.254955 0.000000 
0.450836 0.560696 0.000000 
0.450857 0.454564 0.000000 
0.352620 0.453997 0.000000 
0.401723 0.454317 0.000000 
0.352873 0.559627 0.000000 
0.343341 0.780454 0.000000 
0.350214 0.668932 0.000000 
0.399841 0.669597 0.000000 
0.081530 0.864265 0.000000 
0.147995 0.767765 0.000000 
0.158636 0.554603 0.000000 
0.157552 0.658507 0.000000 
0.109066 0.654135 0.000000 
0.205068 0.662864 0.000000 
0.255816 0.557384 0.000000 
0.132282 0.179029 0.000000 
0.140976 0.267473 0.000000 
0.088735 0.275092 0.000000 
0.244712 0.259280 0.000000 
0.192994 0.262464 0.000000 
0.238362 0.168771 0.000000 
0.104484 0.459003 0.000000 
0.148782 0.359443 0.000000 
0.155049 0.455074 0.000000 
0.398329 0.255375 0.000000 
0.447938 0.162015 0.000000 
0.303531 0.453644 0.000000 
0.350518 0.352746 0.000000 
0.343522 0.163997 0.000000 
0.347318 0.256095 0.000000 
0.296135 0.257301 0.000000 
0.204949 0.453631 0.000000 
0.250281 0.354086 0.000000 
0.254365 0.453402 0.000000 
0.069144 0.102865 0.000000 
0.123313 0.093961 0.000000 
0.105386 -0.066178 0.000000 
0.114299 0.012239 0.000000 
0.049002 -0.057153 0.000000 
0.177561 0.087257 0.000000 
0.231707 0.082319 0.000000 
0.079955 -0.282476 0.000000 
0.011050 -0.340107 0.000000 
0.212098 -0.154849 0.000000 
0.147029 -0.220932 0.000000 
0.029540 -0.204625 0.000000 
0.088199 -0.213434 0.000000 
0.096673 -0.141370 0.000000 
0.393044 0.074600 0.000000 
0.285672 0.078758 0.000000 
0.339443 0.076263 0.000000 
0.335350 -0.007343 0.000000 
0.274955 -0.083766 0.000000 
0.161925 -0.073494 0.000000 
0.218476 -0.079296 0.000000 
0.225034 -0.000303 0.000000 
0.033124 -0.407841 0.000000 
0.067941 -0.380610 0.000000 
0.037242 -0.376482 0.000000 
0.129429 -0.388248 0.000000 
0.098668 -0.384550 0.000000 
0.094908 -0.415917 0.000000 
0.106140 -0.319810 0.000000 
0.102398 -0.352523 0.000000 
0.136394 -0.323457 0.000000 
0.252784 -0.400140 0.000000 
0.221908 -0.397625 0.000000 
0.219230 -0.429085 0.000000 
0.227239 -0.332645 0.000000 
0.224573 -0.365482 0.000000 
0.257536 -0.335099 0.000000 
0.156969 -0.423080 0.000000 
0.191053 -0.394800 0.000000 
0.160225 -0.391671 0.000000 
0.238134 -0.193983 0.000000 
0.235358 -0.229787 0.000000 
0.267274 -0.196264 0.000000 
0.169899 -0.293344 0.000000 
0.202892 -0.262135 0.000000 
0.173164 -0.259144 0.000000 
0.262347 -0.267195 0.000000 
0.232621 -0.264818 0.000000 
0.229918 -0.299097 0.000000 
0.163447 -0.359589 0.000000 
0.196947 -0.329884 0.000000 
0.166665 -0.326819 0.000000 
0.500000 -0.409119 0.000000 
0.469084 -0.409077 0.000000 
0.468820 -0.440660 0.000000 
0.469679 -0.343852 0.000000 
0.469377 -0.376820 0.000000 
0.500000 -0.343965 0.000000 
0.406436 -0.439649 0.000000 
0.438184 -0.408725 0.000000 
0.407284 -0.408062 0.000000 
0.470930 -0.204359 0.000000 
0.470612 -0.240427 0.000000 
0.500000 -0.204480 0.000000 
0.409971 -0.309110 0.000000 
0.440596 -0.275299 0.000000 
0.410896 -0.274652 0.000000 
0.500000 -0.275805 0.000000 
0.470297 -0.275681 0.000000 
0.469986 -0.310148 0.000000 
0.281602 -0.433855 0.000000 
0.314572 -0.404235 0.000000 
0.283673 -0.402343 0.000000 
0.376381 -0.407093 0.000000 
0.345476 -0.405818 0.000000 
0.344019 -0.437373 0.000000 
0.348448 -0.340625 0.000000 
0.346953 -0.373574 0.000000 
0.378753 -0.341867 0.000000 
0.439366 -0.343474 0.000000 
[...]
POINT_DATA 1089

SCALARS u_h float 2
LOOKUP_TABLE default
0.002301 -0.403687 
-0.002301 -0.403687 
0.000000 0.000000 
0.000000 0.000000 
-0.000000 -0.440600 
-0.079105 -0.312263 
0.000000 0.000000 
0.079105 -0.312263 
-0.000000 -0.338638 
0.000407 -0.431627 
-0.000000 -0.417569 
0.019794 -0.409604 
-0.000407 -0.431627 
-0.019794 -0.409604 
-0.039149 -0.382431 
-0.041058 -0.334094 
-0.108931 -0.194806 
-0.054236 -0.191314 
0.000000 0.000000 
0.000000 -0.189023 
0.000000 0.000000 
0.054236 -0.191314 
0.108931 -0.194806 
0.041058 -0.334094 
0.039149 -0.382431 
0.000907 -0.419633 
0.009930 -0.426514 
0.014899 -0.415013 
-0.000000 -0.435269 
0.004966 -0.433174 
0.000229 -0.438666 
0.015301 -0.384349 
0.009987 -0.415645 
-0.000000 -0.385930 
-0.000229 -0.438666 
-0.004966 -0.433174 
-0.014899 -0.415013 
-0.009930 -0.426514 
-0.000907 -0.419633 
-0.009987 -0.415645 
-0.015301 -0.384349 
-0.020180 -0.398811 
-0.029365 -0.398807 
-0.060420 -0.327028 
-0.044683 -0.369853 
-0.059041 -0.353737 
-0.030265 -0.379389 
-0.020797 -0.337230 
-0.097403 -0.259413 
-0.074740 -0.269058 
-0.069219 -0.100187 
-0.082420 -0.194172 
-0.101981 -0.118733 
-0.050503 -0.271832 
-0.025413 -0.272430 
0.000000 0.000000 
-0.042283 -0.095275 
0.000000 -0.093539 
-0.020169 -0.094166 
0.000000 0.000000 
-0.026760 -0.189733 
0.000000 -0.272460 
0.000000 0.000000 
0.020169 -0.094166 
0.069219 -0.100187 
0.042283 -0.095275 
0.000000 0.000000 
0.026760 -0.189733 
0.025413 -0.272430 
0.101981 -0.118733 
0.082420 -0.194172 
0.060420 -0.327028 
0.074740 -0.269058 
0.097403 -0.259413 
0.050503 -0.271832 
0.020797 -0.337230 
0.059041 -0.353737 
0.044683 -0.369853 
0.029365 -0.398807 
0.020180 -0.398811 
0.030265 -0.379389 
0.001480 -0.411966 
0.007912 -0.418695 
0.009406 -0.411100 
0.005157 -0.430468 
0.006502 -0.425188 
0.000580 -0.426234 
0.018416 -0.414649 
0.012406 -0.421373 
0.014793 -0.419619 
-0.000000 -0.439410 
0.001266 -0.438952 
0.000135 -0.440318 
0.003724 -0.427550 
0.002477 -0.434765 
-0.000000 -0.428050 
0.000308 -0.435770 
0.002557 -0.437333 
0.003850 -0.434512 
0.009025 -0.363904 
0.007665 -0.385529 
-0.000000 -0.364309 
0.014924 -0.413172 
0.012609 -0.401840 
0.018831 -0.399571 
-0.000000 -0.403608 
0.006319 -0.403169 
0.005004 -0.417094 
0.007452 -0.430438 
0.007441 -0.426013 
0.011135 -0.423388 
-0.000135 -0.440318 
-0.001266 -0.438952 
-0.003850 -0.434512 
-0.002557 -0.437333 
-0.000308 -0.435770 
-0.002477 -0.434765 
-0.003724 -0.427550 
-0.009406 -0.411100 
-0.007912 -0.418695 
-0.001480 -0.411966 
-0.014793 -0.419619 
-0.012406 -0.421373 
-0.018416 -0.414649 
-0.000580 -0.426234 
-0.006502 -0.425188 
-0.005157 -0.430468 
-0.007665 -0.385529 
-0.009025 -0.363904 
-0.005004 -0.417094 
-0.006319 -0.403169 
-0.018831 -0.399571 
-0.012609 -0.401840 
-0.014924 -0.413172 
-0.007452 -0.430438 
-0.011135 -0.423388 
-0.007441 -0.426013 
-0.011050 -0.402607 
-0.017455 -0.407476 
-0.034173 -0.391370 
-0.025699 -0.400934 
-0.029540 -0.392125 
-0.022029 -0.408432 
-0.024598 -0.404849 
-0.069782 -0.320971 
-0.060813 -0.343539 
-0.069144 -0.334635 
-0.044207 -0.355181 
-0.052561 -0.350243 
-0.050862 -0.331229 
-0.049002 -0.369653 
-0.051799 -0.362761 
-0.042886 -0.378678 
-0.018044 -0.362900 
-0.010438 -0.337985 
-0.024955 -0.396266 
-0.022850 -0.382343 
-0.031022 -0.336003 
-0.026943 -0.361237 
-0.035672 -0.358742 
-0.036925 -0.385994 
-0.037534 -0.375303 
-0.030976 -0.391796 
-0.088735 -0.287408 
-0.078476 -0.295027 
-0.092549 -0.232426 
-0.086282 -0.265557 
-0.104484 -0.228497 
-0.067994 -0.300036 
-0.057212 -0.303220 
-0.058944 -0.053372 
-0.085495 -0.107235 
-0.081530 -0.073235 
-0.068316 -0.192616 
-0.080068 -0.149636 
-0.065266 -0.146559 
-0.109066 -0.158365 
-0.095052 -0.153993 
-0.096136 -0.195397 
-0.023329 -0.307125 
-0.011722 -0.307545 
-0.046135 -0.305199 
-0.034818 -0.306405 
-0.040120 -0.233503 
-0.038018 -0.272254 
-0.053531 -0.233856 
-0.079949 -0.233869 
-0.066865 -0.234098 
-0.062781 -0.270914 
0.000000 0.000000 
-0.044181 -0.047708 
-0.025662 -0.045772 
-0.033910 -0.046201 
0.000000 0.000000 
-0.054897 -0.096813 
-0.051140 -0.144676 
-0.000000 -0.045365 
-0.005902 -0.045628 
0.000000 0.000000 
-0.012335 -0.142466 
-0.009972 -0.093894 
0.000000 -0.142118 
0.000000 0.000000 
-0.012016 -0.045672 
-0.018514 -0.045678 
-0.012733 -0.272485 
-0.000000 -0.307727 
-0.040373 -0.190373 
-0.026723 -0.233183 
0.000000 -0.232765 
-0.013357 -0.232936 
-0.013336 -0.189304 
-0.030841 -0.094546 
-0.024841 -0.142903 
-0.037714 -0.143568 
0.000000 0.000000 
0.005902 -0.045628 
0.018514 -0.045678 
0.012016 -0.045672 
0.000000 0.000000 
0.009972 -0.093894 
0.012335 -0.142466 
0.058944 -0.053372 
0.044181 -0.047708 
0.000000 0.000000 
0.051140 -0.144676 
0.054897 -0.096813 
0.065266 -0.146559 
0.000000 0.000000 
0.033910 -0.046201 
0.025662 -0.045772 
0.012733 -0.272485 
0.011722 -0.307545 
0.013336 -0.189304 
0.013357 -0.232936 
0.040120 -0.233503 
0.026723 -0.233183 
0.040373 -0.190373 
0.030841 -0.094546 
0.037714 -0.143568 
0.024841 -0.142903 
0.081530 -0.073235 
0.085495 -0.107235 
0.096136 -0.195397 
0.095052 -0.153993 
0.109066 -0.158365 
0.080068 -0.149636 
0.068316 -0.192616 
0.069782 -0.320971 
0.078476 -0.295027 
0.088735 -0.287408 
0.057212 -0.303220 
0.067994 -0.300036 
0.050862 -0.331229 
0.104484 -0.228497 
0.086282 -0.265557 
0.092549 -0.232426 
0.023329 -0.307125 
0.010438 -0.337985 
0.053531 -0.233856 
0.038018 -0.272254 
0.031022 -0.336003 
0.034818 -0.306405 
0.046135 -0.305199 
0.079949 -0.233869 
0.062781 -0.270914 
0.066865 -0.234098 
0.069144 -0.334635 
0.060813 -0.343539 
0.042886 -0.378678 
0.051799 -0.362761 
0.049002 -0.369653 
0.052561 -0.350243 
0.044207 -0.355181 
0.017455 -0.407476 
0.011050 -0.402607 
0.024598 -0.404849 
0.022029 -0.408432 
0.029540 -0.392125 
0.025699 -0.400934 
0.034173 -0.391370 
0.018044 -0.362900 
0.035672 -0.358742 
0.026943 -0.361237 
0.022850 -0.382343 
0.024955 -0.396266 
0.036925 -0.385994 
0.030976 -0.391796 
0.037534 -0.375303 
0.001874 -0.407841 
0.005441 -0.411860 
0.005992 -0.407732 
0.004429 -0.419498 
0.004918 -0.415800 
0.001158 -0.415917 
0.012390 -0.413560 
0.008648 -0.415023 
0.011394 -0.417207 
0.002784 -0.431390 
0.003158 -0.428875 
0.000480 -0.429085 
0.008489 -0.426395 
0.005823 -0.427982 
0.007536 -0.428849 
0.000719 -0.423080 
0.003553 -0.426050 
0.003975 -0.422921 
0.019384 -0.412733 
0.016608 -0.417287 
0.017274 -0.415014 
0.013649 -0.418344 
0.015392 -0.418385 
0.016914 -0.415394 
0.012347 -0.423445 
0.013871 -0.421068 
0.011168 -0.424097 
0.007197 -0.422089 
0.009447 -0.423634 
0.010415 -0.420569 
-0.000000 -0.440369 
0.000334 -0.440327 
0.000070 -0.440660 
0.000929 -0.437602 
0.000627 -0.439320 
-0.000000 -0.437715 
0.000186 -0.439649 
0.000684 -0.439975 
0.001034 -0.439312 
0.002180 -0.423109 
0.001862 -0.427927 
-0.000000 -0.423230 
0.003721 -0.434110 
0.003096 -0.431549 
0.004646 -0.430902 
-0.000000 -0.432055 
0.001547 -0.431931 
0.001236 -0.435148 
0.000352 -0.433855 
0.002072 -0.435485 
0.002423 -0.433593 
0.001381 -0.438343 
0.001726 -0.437068 
0.000269 -0.437373 
0.004698 -0.434375 
0.003203 -0.436074 
0.003753 -0.435617 
0.001866 -0.437224 
0.002808 -0.436565 
0.001911 -0.438291 
0.004837 -0.351793 
0.004504 -0.364184 
-0.000000 -0.351974 
0.011490 -0.385037 
0.008344 -0.375232 
0.012514 -0.374773 
-0.000000 -0.375624 
0.004170 -0.375517 
0.003833 -0.385826 
0.017368 -0.411530 
0.016862 -0.406809 
0.019619 -0.405226 
0.011288 -0.409187 
0.014084 -0.408126 
0.012463 -0.414541 
0.017400 -0.392615 
0.015730 -0.400828 
0.013947 -0.393572 
-0.000000 -0.411038 
0.002830 -0.410924 
0.002503 -0.417451 
0.003496 -0.395143 
0.003161 -0.403498 
-0.000000 -0.395248 
0.007500 -0.416494 
0.005657 -0.410580 
0.008478 -0.410003 
0.010475 -0.394307 
0.009470 -0.402618 
0.006989 -0.394830 
0.004501 -0.432645 
0.006210 -0.431952 
0.005643 -0.432836 
0.006588 -0.430995 
0.008692 -0.428626 
0.004359 -0.422741 
0.008705 -0.421244 
0.006535 -0.422121 
0.005584 -0.426914 
0.006195 -0.429981 
0.015152 -0.416996 
0.010817 -0.425519 
0.012969 -0.421650 
0.013015 -0.418689 
0.010866 -0.420102 
0.007741 -0.428781 
0.009292 -0.424840 
0.009282 -0.427296 
-0.000070 -0.440660 
-0.000334 -0.440327 
-0.001034 -0.439312 
-0.000684 -0.439975 
-0.000186 -0.439649 
-0.000627 -0.439320 
-0.000929 -0.437602 
-0.002423 -0.433593 
-0.002072 -0.435485 
-0.000352 -0.433855 
-0.003753 -0.435617 
-0.003203 -0.436074 
-0.004698 -0.434375 
-0.000269 -0.437373 
-0.001726 -0.437068 
-0.001381 -0.438343 
-0.001862 -0.427927 
-0.002180 -0.423109 
-0.001236 -0.435148 
-0.001547 -0.431931 
-0.004646 -0.430902 
-0.003096 -0.431549 
-0.003721 -0.434110 
-0.001911 -0.438291 
-0.002808 -0.436565 
-0.001866 -0.437224 
-0.005992 -0.407732 
-0.005441 -0.411860 
-0.001874 -0.407841 
-0.011394 -0.417207 
-0.008648 -0.415023 
-0.012390 -0.413560 
-0.001158 -0.415917 
-0.004918 -0.415800 
-0.004429 -0.419498 
-0.017274 -0.415014 
-0.016608 -0.417287 
-0.019384 -0.412733 
-0.011168 -0.424097 
-0.013871 -0.421068 
-0.012347 -0.423445 
-0.016914 -0.415394 
-0.015392 -0.418385 
-0.013649 -0.418344 
-0.000480 -0.429085 
-0.003158 -0.428875 
-0.002784 -0.431390 
-0.003975 -0.422921 
-0.003553 -0.426050 
-0.000719 -0.423080 
-0.007536 -0.428849 
-0.005823 -0.427982 
-0.008489 -0.426395 
-0.010415 -0.420569 
-0.009447 -0.423634 
-0.007197 -0.422089 
-0.004504 -0.364184 
-0.004837 -0.351793 
-0.003833 -0.385826 
-0.004170 -0.375517 
-0.012514 -0.374773 
-0.008344 -0.375232 
-0.011490 -0.385037 
-0.002503 -0.417451 
-0.002830 -0.410924 
-0.008478 -0.410003 
-0.005657 -0.410580 
-0.007500 -0.416494 
-0.003161 -0.403498 
-0.003496 -0.395143 
-0.019619 -0.405226 
-0.016862 -0.406809 
-0.017368 -0.411530 
-0.013947 -0.393572 
-0.015730 -0.400828 
-0.017400 -0.392615 
-0.012463 -0.414541 
-0.014084 -0.408126 
-0.011288 -0.409187 
-0.006989 -0.394830 
-0.009470 -0.402618 
-0.010475 -0.394307 
-0.004501 -0.432645 
-0.008692 -0.428626 
-0.006588 -0.430995 
-0.005643 -0.432836 
-0.006210 -0.431952 
-0.015152 -0.416996 
-0.010866 -0.420102 
-0.013015 -0.418689 
-0.012969 -0.421650 
-0.010817 -0.425519 
-0.004359 -0.422741 
-0.006195 -0.429981 
-0.005584 -0.426914 
-0.006535 -0.422121 
-0.008705 -0.421244 
-0.009282 -0.427296 
-0.009292 -0.424840 
-0.007741 -0.428781 
-0.006586 -0.403477 
-0.010197 -0.406956 
-0.018787 -0.403283 
-0.014466 -0.405477 
-0.015587 -0.401060 
-0.013408 -0.409646 
-0.016164 -0.411388 
-0.036630 -0.387095 
-0.032078 -0.392278 
-0.034312 -0.387659 
-0.027775 -0.400444 
-0.029905 -0.396537 
-0.031757 -0.395270 
-0.024830 -0.395838 
-0.027589 -0.396696 
-0.023160 -0.400360 
-0.021483 -0.410145 
-0.022203 -0.407381 
-0.018441 -0.412095 
-0.020221 -0.411699 
-0.026982 -0.401996 
-0.023575 -0.407240 
-0.025669 -0.404009 
-0.021550 -0.404576 
-0.023851 -0.404845 
-0.019982 -0.408488 
-0.074432 -0.317028 
-0.069713 -0.328606 
-0.074162 -0.323866 
-0.060920 -0.336145 
-0.065313 -0.332674 
-0.065119 -0.324270 
-0.064095 -0.344588 
-0.064953 -0.339386 
-0.060171 -0.349354 
-0.042991 -0.345462 
-0.047548 -0.343697 
-0.045991 -0.332802 
-0.048614 -0.360490 
-0.048403 -0.352907 
-0.044753 -0.363290 
-0.055671 -0.329324 
-0.052051 -0.341593 
-0.056505 -0.339095 
-0.044047 -0.376431 
-0.045913 -0.374391 
-0.041243 -0.381136 
-0.055391 -0.358508 
-0.050633 -0.366851 
-0.054004 -0.362090 
-0.044045 -0.374951 
-0.047322 -0.371128 
-0.048237 -0.366531 
-0.056691 -0.347139 
-0.052457 -0.357264 
-0.056302 -0.353567 
-0.009718 -0.351498 
-0.005226 -0.338267 
-0.016668 -0.374137 
-0.013545 -0.363476 
-0.015631 -0.337654 
-0.014584 -0.351111 
-0.019424 -0.350606 
-0.022354 -0.403364 
-0.021906 -0.398055 
-0.026576 -0.380995 
-0.024226 -0.389988 
-0.027594 -0.388284 
-0.020828 -0.391426 
-0.019090 -0.383455 
-0.036067 -0.335149 
-0.033712 -0.348151 
-0.038379 -0.346933 
-0.024229 -0.349960 
-0.028993 -0.349150 
-0.025930 -0.336688 
-0.032962 -0.369551 
-0.031331 -0.360106 
-0.028948 -0.371044 
-0.020796 -0.373315 
-0.024891 -0.372291 
-0.022512 -0.362160 
-0.038501 -0.385421 
-0.040783 -0.378349 
-0.039897 -0.382538 
-0.035799 -0.389306 
-0.033118 -0.392808 
-0.039964 -0.357113 
-0.033917 -0.377501 
-0.036933 -0.367783 
-0.040862 -0.365708 
-0.041119 -0.372765 
-0.025068 -0.401207 
-0.030443 -0.395947 
-0.027762 -0.398740 
-0.027977 -0.394186 
-0.030929 -0.386293 
-0.037517 -0.381352 
-0.034235 -0.383991 
-0.033955 -0.389072 
-0.084018 -0.300247 
-0.079125 -0.304718 
-0.087901 -0.277652 
-0.083625 -0.291594 
-0.093219 -0.273787 
-0.074215 -0.308434 
-0.069272 -0.311501 
-0.101063 -0.213607 
-0.098604 -0.230875 
-0.107123 -0.211992 
-0.080567 -0.267569 
-0.089665 -0.249461 
-0.083697 -0.250979 
-0.101197 -0.244309 
-0.095495 -0.247298 
-0.091888 -0.262888 
-0.054101 -0.317749 
-0.048911 -0.319103 
-0.064279 -0.314019 
-0.059224 -0.316076 
-0.065862 -0.286510 
-0.062642 -0.301813 
-0.071507 -0.285057 
-0.082521 -0.280739 
-0.077059 -0.283169 
-0.073271 -0.297805 
-0.043803 -0.028985 
-0.069758 -0.061062 
-0.063094 -0.044651 
-0.077154 -0.103136 
-0.075257 -0.081334 
-0.066535 -0.076787 
-0.094093 -0.097129 
-0.084687 -0.088083 
-0.093938 -0.112525 
-0.061256 -0.191920 
-0.067507 -0.170133 
-0.060340 -0.169206 
-0.082028 -0.172527 
-0.074753 -0.171245 
-0.075386 -0.193383 
-0.068466 -0.123501 
-0.072598 -0.147926 
-0.076023 -0.125496 
-0.109679 -0.176938 
-0.103197 -0.176407 
-0.102679 -0.195467 
-0.099422 -0.135132 
-0.102272 -0.156343 
-0.106689 -0.139017 
-0.089360 -0.194892 
-0.096355 -0.175287 
-0.089261 -0.173918 
-0.083814 -0.128114 
-0.087595 -0.151687 
-0.091693 -0.131374 
-0.011115 -0.323340 
-0.005589 -0.323555 
-0.022104 -0.322743 
-0.016621 -0.323078 
-0.018365 -0.290493 
-0.017538 -0.307364 
-0.024444 -0.290355 
-0.043655 -0.320193 
-0.038339 -0.321067 
-0.042504 -0.289556 
-0.040502 -0.305878 
-0.048441 -0.289086 
-0.032971 -0.321763 
-0.027556 -0.322313 
-0.047382 -0.212777 
-0.046828 -0.233680 
-0.054253 -0.213140 
-0.031727 -0.272363 
-0.039247 -0.253448 
-0.032724 -0.253411 
-0.052236 -0.253424 
-0.045754 -0.253459 
-0.044280 -0.272086 
-0.029091 -0.306812 
-0.036520 -0.289906 
-0.030497 -0.290165 
-0.094775 -0.214421 
-0.081630 -0.214605 
-0.088284 -0.214687 
-0.086324 -0.233365 
-0.077597 -0.252007 
-0.061138 -0.213536 
-0.058679 -0.253312 
-0.060217 -0.234006 
-0.068016 -0.213944 
-0.074860 -0.214323 
-0.051707 -0.304329 
-0.068808 -0.270140 
-0.060130 -0.287618 
-0.054320 -0.288456 
-0.056675 -0.271458 
-0.073453 -0.234078 
-0.065067 -0.253082 
-0.071380 -0.252673 
0.000000 0.000000 
-0.034660 -0.024458 
-0.024870 -0.022425 
-0.029016 -0.022990 
0.000000 0.000000 
-0.050712 -0.049585 
-0.058851 -0.074014 
-0.014025 -0.022145 
-0.016254 -0.022116 
0.000000 0.000000 
-0.040284 -0.070708 
-0.029608 -0.045918 
-0.035046 -0.070316 
0.000000 0.000000 
-0.018726 -0.022121 
-0.021543 -0.022199 
-0.058111 -0.145494 
-0.053277 -0.168450 
-0.061809 -0.098171 
-0.061207 -0.122032 
-0.047565 -0.120188 
-0.054248 -0.120963 
-0.048413 -0.095898 
-0.038699 -0.046728 
-0.045911 -0.071335 
-0.052047 -0.072349 
-0.000000 -0.022189 
-0.001565 -0.022303 
0.000000 0.000000 
-0.004068 -0.069456 
-0.002933 -0.045546 
-0.000000 -0.069252 
0.000000 0.000000 
-0.003169 -0.022338 
-0.004810 -0.022337 
-0.006485 -0.166035 
-0.006159 -0.142287 
0.000000 -0.165888 
-0.015027 -0.094028 
-0.011348 -0.118281 
-0.017084 -0.118455 
-0.000000 -0.117921 
-0.005663 -0.118109 
-0.004973 -0.093741 
0.000000 0.000000 
-0.010056 -0.022236 
-0.011975 -0.022189 
-0.006495 -0.022315 
-0.008238 -0.022280 
0.000000 0.000000 
-0.020918 -0.069809 
-0.015203 -0.045673 
-0.016563 -0.069732 
-0.008166 -0.069579 
-0.012322 -0.069663 
-0.008923 -0.045662 
-0.005877 -0.307668 
-0.000000 -0.323702 
-0.019081 -0.272469 
-0.012264 -0.290588 
0.000000 -0.290654 
-0.006141 -0.290642 
-0.006372 -0.272482 
-0.047272 -0.190800 
-0.040537 -0.212456 
-0.026939 -0.211945 
-0.033723 -0.212179 
-0.033538 -0.190021 
-0.033417 -0.233335 
-0.026191 -0.253363 
0.000000 -0.211357 
-0.006722 -0.211458 
-0.006665 -0.189147 
-0.006557 -0.253202 
-0.006679 -0.232841 
-0.000000 -0.253152 
-0.020030 -0.189497 
-0.013446 -0.211589 
-0.020182 -0.211750 
-0.019652 -0.253309 
-0.020036 -0.233050 
-0.013107 -0.253255 
-0.021985 -0.045703 
-0.025429 -0.094330 
-0.025422 -0.069913 
-0.030114 -0.070069 
-0.036444 -0.094846 
-0.012982 -0.166209 
-0.026093 -0.166665 
-0.019511 -0.166415 
-0.018554 -0.142666 
-0.022899 -0.118652 
-0.046326 -0.167844 
-0.041124 -0.119623 
-0.044347 -0.144049 
-0.039486 -0.167360 
-0.032746 -0.166974 
-0.028824 -0.118894 
-0.031220 -0.143195 
-0.034888 -0.119207 
0.000000 0.000000 
0.001565 -0.022303 
0.004810 -0.022337 
0.003169 -0.022338 
0.000000 0.000000 
0.002933 -0.045546 
0.004068 -0.069456 
0.011975 -0.022189 
0.010056 -0.022236 
0.000000 0.000000 
0.016563 -0.069732 
0.015203 -0.045673 
0.020918 -0.069809 
0.000000 0.000000 
0.008238 -0.022280 
0.006495 -0.022315 
0.006159 -0.142287 
0.006485 -0.166035 
0.004973 -0.093741 
0.005663 -0.118109 
0.017084 -0.118455 
0.011348 -0.118281 
0.015027 -0.094028 
0.008923 -0.045662 
0.012322 -0.069663 
0.008166 -0.069579 
0.043803 -0.028985 
0.034660 -0.024458 
0.000000 0.000000 
0.058851 -0.074014 
0.050712 -0.049585 
0.066535 -0.076787 
0.000000 0.000000 
0.029016 -0.022990 
0.024870 -0.022425 
0.053277 -0.168450 
0.058111 -0.145494 
0.060340 -0.169206 
0.048413 -0.095898 
0.054248 -0.120963 
0.047565 -0.120188 
0.068466 -0.123501 
0.061207 -0.122032 
0.061809 -0.098171 
0.000000 0.000000 
0.016254 -0.022116 
0.014025 -0.022145 
0.021543 -0.022199 
0.018726 -0.022121 
0.000000 0.000000 
0.035046 -0.070316 
0.029608 -0.045918 
0.040284 -0.070708 
0.052047 -0.072349 
0.045911 -0.071335 
0.038699 -0.046728 
0.005877 -0.307668 
0.005589 -0.323555 
0.006372 -0.272482 
0.006141 -0.290642 
0.018365 -0.290493 
0.012264 -0.290588 
0.019081 -0.272469 
0.006665 -0.189147 
0.006722 -0.211458 
0.020182 -0.211750 
0.013446 -0.211589 
0.020030 -0.189497 
0.006679 -0.232841 
0.006557 -0.253202 
0.047382 -0.212777 
0.040537 -0.212456 
0.047272 -0.190800 
0.026191 -0.253363 
0.033417 -0.233335 
0.032724 -0.253411 
0.033538 -0.190021 
0.033723 -0.212179 
0.026939 -0.211945 
0.013107 -0.253255 
0.020036 -0.233050 
0.019652 -0.253309 
0.021985 -0.045703 
0.036444 -0.094846 
0.030114 -0.070069 
0.025422 -0.069913 
0.025429 -0.094330 
0.046326 -0.167844 
0.032746 -0.166974 
0.039486 -0.167360 
0.044347 -0.144049 
0.041124 -0.119623 
0.012982 -0.166209 
0.022899 -0.118652 
0.018554 -0.142666 
0.019511 -0.166415 
0.026093 -0.166665 
0.034888 -0.119207 
0.031220 -0.143195 
0.028824 -0.118894 
0.063094 -0.044651 
0.069758 -0.061062 
0.093938 -0.112525 
0.084687 -0.088083 
0.094093 -0.097129 
0.075257 -0.081334 
0.077154 -0.103136 
0.102679 -0.195467 
0.103197 -0.176407 
0.109679 -0.176938 
0.089261 -0.173918 
0.096355 -0.175287 
0.089360 -0.194892 
0.106689 -0.139017 
0.102272 -0.156343 
0.099422 -0.135132 
0.067507 -0.170133 
0.061256 -0.191920 
0.076023 -0.125496 
0.072598 -0.147926 
0.075386 -0.193383 
0.074753 -0.171245 
0.082028 -0.172527 
0.091693 -0.131374 
0.087595 -0.151687 
0.083814 -0.128114 
0.074432 -0.317028 
0.079125 -0.304718 
0.084018 -0.300247 
0.069272 -0.311501 
0.074215 -0.308434 
0.065119 -0.324270 
0.093219 -0.273787 
0.083625 -0.291594 
0.087901 -0.277652 
0.048911 -0.319103 
0.054101 -0.317749 
0.045991 -0.332802 
0.071507 -0.285057 
0.062642 -0.301813 
0.065862 -0.286510 
0.055671 -0.329324 
0.059224 -0.316076 
0.064279 -0.314019 
0.107123 -0.211992 
0.098604 -0.230875 
0.101063 -0.213607 
0.091888 -0.262888 
0.095495 -0.247298 
0.101197 -0.244309 
0.083697 -0.250979 
0.089665 -0.249461 
0.080567 -0.267569 
0.073271 -0.297805 
0.077059 -0.283169 
0.082521 -0.280739 
0.011115 -0.323340 
0.005226 -0.338267 
0.024444 -0.290355 
0.017538 -0.307364 
0.015631 -0.337654 
0.016621 -0.323078 
0.022104 -0.322743 
0.054253 -0.213140 
0.046828 -0.233680 
0.044280 -0.272086 
0.045754 -0.253459 
0.052236 -0.253424 
0.039247 -0.253448 
0.031727 -0.272363 
0.036067 -0.335149 
0.038339 -0.321067 
0.043655 -0.320193 
0.027556 -0.322313 