# vtk DataFile Version 2.0
Unstructured Grid Example
ASCII
DATASET UNSTRUCTURED_GRID

POINTS 16641 float
0.001404 -0.403349 0.000000 
0.998596 -0.403349 0.000000 
1.000000 1.000000 0.000000 
0.000000 1.000000 0.000000 
0.500000 -0.442045 0.000000 
0.920723 0.186632 0.000000 
0.500000 1.000000 0.000000 
0.079277 0.186632 0.000000 
0.500000 0.160974 0.000000 
0.250064 -0.432483 0.000000 
0.500000 -0.168634 0.000000 
0.269855 -0.160520 0.000000 
0.749936 -0.432483 0.000000 
0.730145 -0.160520 0.000000 
0.960832 -0.133002 0.000000 
0.708872 0.165020 0.000000 
0.890606 0.554763 0.000000 
0.695448 0.557925 0.000000 
0.750000 1.000000 0.000000 
0.500000 0.559994 0.000000 
0.250000 1.000000 0.000000 
0.304552 0.557925 0.000000 
0.109394 0.554763 0.000000 
0.291128 0.165020 0.000000 
0.039168 -0.133002 0.000000 
0.125336 -0.420205 0.000000 
0.259834 -0.302427 0.000000 
0.139780 -0.290684 0.000000 
0.500000 -0.311466 0.000000 
0.379931 -0.309251 0.000000 
0.375044 -0.439714 0.000000 
0.390388 -0.010279 0.000000 
0.385034 -0.166668 0.000000 
0.500000 -0.011814 0.000000 
0.624956 -0.439714 0.000000 
0.620069 -0.309251 0.000000 
0.860220 -0.290684 0.000000 
0.740166 -0.302427 0.000000 
0.874664 -0.420205 0.000000 
0.614966 -0.166668 0.000000 
0.609612 -0.010279 0.000000 
0.979954 -0.274099 0.000000 
0.845574 -0.149549 0.000000 
0.814455 0.172112 0.000000 
0.830196 0.004319 0.000000 
0.940878 0.020503 0.000000 
0.719619 -0.005297 0.000000 
0.604184 0.161899 0.000000 
0.902376 0.364973 0.000000 
0.800124 0.355121 0.000000 
0.804911 0.774031 0.000000 
0.792179 0.555038 0.000000 
0.897181 0.755391 0.000000 
0.699401 0.352324 0.000000 
0.599561 0.351725 0.000000 
0.875000 1.000000 0.000000 
0.707227 0.779246 0.000000 
0.500000 0.780686 0.000000 
0.604621 0.780433 0.000000 
0.625000 1.000000 0.000000 
0.598083 0.559516 0.000000 
0.500000 0.351649 0.000000 
0.375000 1.000000 0.000000 
0.395379 0.780433 0.000000 
0.195089 0.774031 0.000000 
0.292773 0.779246 0.000000 
0.125000 1.000000 0.000000 
0.401917 0.559516 0.000000 
0.400439 0.351725 0.000000 
0.102819 0.755391 0.000000 
0.207821 0.555038 0.000000 
0.185545 0.172112 0.000000 
0.199876 0.355121 0.000000 
0.097624 0.364973 0.000000 
0.300599 0.352324 0.000000 
0.395816 0.161899 0.000000 
0.059122 0.020503 0.000000 
0.169804 0.004319 0.000000 
0.154426 -0.149549 0.000000 
0.020046 -0.274099 0.000000 
0.280381 -0.005297 0.000000 
0.063242 -0.412260 0.000000 
0.132600 -0.356834 0.000000 
0.071584 -0.349004 0.000000 
0.254940 -0.368862 0.000000 
0.193731 -0.363474 0.000000 
0.187636 -0.426972 0.000000 
0.205910 -0.227972 0.000000 
0.199791 -0.297183 0.000000 
0.264791 -0.233037 0.000000 
0.500000 -0.378194 0.000000 
0.438729 -0.377628 0.000000 
0.437530 -0.441487 0.000000 
0.441235 -0.241158 0.000000 
0.439968 -0.310916 0.000000 
0.500000 -0.241682 0.000000 
0.312549 -0.436723 0.000000 
0.377459 -0.375906 0.000000 
0.316191 -0.372996 0.000000 
0.446591 0.072773 0.000000 
0.445220 -0.011435 0.000000 
0.500000 0.072467 0.000000 
0.327480 -0.164150 0.000000 
0.387681 -0.090318 0.000000 
0.331420 -0.088025 0.000000 
0.500000 -0.092094 0.000000 
0.443862 -0.091655 0.000000 
0.442532 -0.168147 0.000000 
0.319885 -0.306436 0.000000 
0.382453 -0.239572 0.000000 
0.323640 -0.236883 0.000000 
0.562470 -0.441487 0.000000 
0.561271 -0.377628 0.000000 
0.683809 -0.372996 0.000000 
0.622541 -0.375906 0.000000 
0.687451 -0.436723 0.000000 
0.560032 -0.310916 0.000000 
0.558765 -0.241158 0.000000 
0.928416 -0.349004 0.000000 
0.867400 -0.356834 0.000000 
0.936758 -0.412260 0.000000 
0.735209 -0.233037 0.000000 
0.800209 -0.297183 0.000000 
0.794090 -0.227972 0.000000 
0.812364 -0.426972 0.000000 
0.806269 -0.363474 0.000000 
0.745060 -0.368862 0.000000 
0.554780 -0.011435 0.000000 
0.553409 0.072773 0.000000 
0.557468 -0.168147 0.000000 
0.556138 -0.091655 0.000000 
0.668580 -0.088025 0.000000 
0.612319 -0.090318 0.000000 
0.672520 -0.164150 0.000000 
0.680115 -0.306436 0.000000 
0.676360 -0.236883 0.000000 
0.617547 -0.239572 0.000000 
0.989283 -0.340141 0.000000 
0.920158 -0.282958 0.000000 
0.903280 -0.142016 0.000000 
0.911811 -0.214000 0.000000 
0.970497 -0.205077 0.000000 
0.852975 -0.221635 0.000000 
0.787839 -0.155686 0.000000 
0.867566 0.178149 0.000000 
0.876549 0.093105 0.000000 
0.930742 0.101985 0.000000 
0.768171 0.081439 0.000000 
0.822305 0.086399 0.000000 
0.761541 0.167899 0.000000 
0.950944 -0.057821 0.000000 
0.885592 0.011446 0.000000 
0.894532 -0.066899 0.000000 
0.606877 0.073707 0.000000 
0.552060 0.161230 0.000000 
0.724946 -0.084678 0.000000 
0.664546 -0.008274 0.000000 
0.656435 0.163106 0.000000 
0.660464 0.075352 0.000000 
0.714220 0.077856 0.000000 
0.837976 -0.074281 0.000000 
0.774844 -0.001174 0.000000 
0.781421 -0.080149 0.000000 
0.911114 0.274295 0.000000 
0.858918 0.266648 0.000000 
0.844684 0.454350 0.000000 
0.851059 0.358677 0.000000 
0.895190 0.458512 0.000000 
0.806913 0.261624 0.000000 
0.755208 0.258425 0.000000 
0.877280 0.882811 0.000000 
0.851082 0.766830 0.000000 
0.917316 0.861572 0.000000 
0.743815 0.556598 0.000000 
0.794314 0.662077 0.000000 
0.746675 0.665205 0.000000 
0.890304 0.653647 0.000000 
0.841813 0.657715 0.000000 
0.840942 0.553878 0.000000 
0.601673 0.254521 0.000000 
0.550808 0.254152 0.000000 
0.703805 0.256436 0.000000 
0.652650 0.255227 0.000000 
0.647241 0.453188 0.000000 
0.649419 0.351902 0.000000 
0.696285 0.452832 0.000000 
0.794810 0.452829 0.000000 
0.745418 0.452585 0.000000 
0.749600 0.353247 0.000000 
0.937500 1.000000 0.000000 
0.830084 0.889200 0.000000 
0.724110 0.891510 0.000000 
0.778207 0.890989 0.000000 
0.812500 1.000000 0.000000 
0.756915 0.777574 0.000000 
0.698403 0.667159 0.000000 
0.500000 0.891640 0.000000 
0.556526 0.891628 0.000000 
0.562500 1.000000 0.000000 
0.550064 0.669337 0.000000 
0.552426 0.780615 0.000000 
0.500000 0.669458 0.000000 
0.687500 1.000000 0.000000 
0.612872 0.891643 0.000000 
0.668831 0.891637 0.000000 
0.549767 0.351661 0.000000 
0.500000 0.254035 0.000000 
0.646884 0.558886 0.000000 
0.598192 0.453495 0.000000 
0.500000 0.453767 0.000000 
0.549109 0.453694 0.000000 
0.549092 0.559871 0.000000 
0.656326 0.780046 0.000000 
0.599943 0.668988 0.000000 
0.649449 0.668321 0.000000 
0.437500 1.000000 0.000000 
0.443474 0.891628 0.000000 
0.331169 0.891637 0.000000 
0.387128 0.891643 0.000000 
0.312500 1.000000 0.000000 
0.447574 0.780615 0.000000 
0.449936 0.669337 0.000000 
0.122720 0.882811 0.000000 
0.169916 0.889200 0.000000 
0.062500 1.000000 0.000000 
0.301597 0.667159 0.000000 
0.243085 0.777574 0.000000 
0.253325 0.665205 0.000000 
0.187500 1.000000 0.000000 
0.221793 0.890989 0.000000 
0.275890 0.891510 0.000000 
0.450233 0.351661 0.000000 
0.449192 0.254152 0.000000 
0.450908 0.559871 0.000000 
0.450891 0.453694 0.000000 
0.352759 0.453188 0.000000 
0.401808 0.453495 0.000000 
0.353116 0.558886 0.000000 
0.343674 0.780046 0.000000 
0.350551 0.668321 0.000000 
0.400057 0.668988 0.000000 
0.082684 0.861572 0.000000 
0.148918 0.766830 0.000000 
0.159058 0.553878 0.000000 
0.158187 0.657715 0.000000 
0.109696 0.653647 0.000000 
0.205686 0.662077 0.000000 
0.256185 0.556598 0.000000 
0.132434 0.178149 0.000000 
0.141082 0.266648 0.000000 
0.088886 0.274295 0.000000 
0.244792 0.258425 0.000000 
0.193087 0.261624 0.000000 
0.238459 0.167899 0.000000 
0.104810 0.458512 0.000000 
0.148941 0.358677 0.000000 
0.155316 0.454350 0.000000 
0.398327 0.254521 0.000000 
0.447940 0.161230 0.000000 
0.303715 0.452832 0.000000 
0.350581 0.351902 0.000000 
0.343565 0.163106 0.000000 
0.347350 0.255227 0.000000 
0.296195 0.256436 0.000000 
0.205190 0.452829 0.000000 
0.250400 0.353247 0.000000 
0.254582 0.452585 0.000000 
0.069258 0.101985 0.000000 
0.123451 0.093105 0.000000 
0.105468 -0.066899 0.000000 
0.114408 0.011446 0.000000 
0.049056 -0.057821 0.000000 
0.177695 0.086399 0.000000 
0.231829 0.081439 0.000000 
0.079842 -0.282958 0.000000 
0.010717 -0.340141 0.000000 
0.212161 -0.155686 0.000000 
0.147025 -0.221635 0.000000 
0.029503 -0.205077 0.000000 
0.088189 -0.214000 0.000000 
0.096720 -0.142016 0.000000 
0.393123 0.073707 0.000000 
0.285780 0.077856 0.000000 
0.339536 0.075352 0.000000 
0.335454 -0.008274 0.000000 
0.275054 -0.084678 0.000000 
0.162024 -0.074281 0.000000 
0.218579 -0.080149 0.000000 
0.225156 -0.001174 0.000000 
0.032292 -0.407899 0.000000 
0.067439 -0.380972 0.000000 
0.036727 -0.376636 0.000000 
0.128991 -0.388861 0.000000 
0.098194 -0.385056 0.000000 
0.094259 -0.416371 0.000000 
0.105936 -0.320370 0.000000 
0.102076 -0.353060 0.000000 
0.136190 -0.324113 0.000000 
0.252501 -0.401017 0.000000 
0.221588 -0.398450 0.000000 
0.218839 -0.429887 0.000000 
0.227066 -0.333502 0.000000 
0.224328 -0.366326 0.000000 
0.257382 -0.336005 0.000000 
0.156465 -0.423743 0.000000 
0.190694 -0.395567 0.000000 
0.159826 -0.392368 0.000000 
0.238167 -0.194859 0.000000 
0.235353 -0.230661 0.000000 
0.267307 -0.197181 0.000000 
0.169779 -0.294089 0.000000 
0.202838 -0.262951 0.000000 
0.173109 -0.259899 0.000000 
0.262302 -0.268112 0.000000 
0.232570 -0.265688 0.000000 
0.229810 -0.299961 0.000000 
0.163154 -0.360309 0.000000 
0.196759 -0.330685 0.000000 
0.166466 -0.327554 0.000000 
0.500000 -0.410471 0.000000 
0.469061 -0.410332 0.000000 
0.468768 -0.441922 0.000000 
0.469672 -0.345060 0.000000 
0.469364 -0.378053 0.000000 
0.500000 -0.345200 0.000000 
0.406289 -0.440751 0.000000 
0.438123 -0.409902 0.000000 
0.407184 -0.409177 0.000000 
0.470941 -0.205453 0.000000 
0.470618 -0.241551 0.000000 
0.500000 -0.205580 0.000000 
0.409951 -0.310225 0.000000 
0.440598 -0.276430 0.000000 
0.410894 -0.275754 0.000000 
0.500000 -0.276968 0.000000 
0.470300 -0.276834 0.000000 
0.469984 -0.311329 0.000000 
0.281303 -0.434761 0.000000 
0.314363 -0.405205 0.000000 
0.283428 -0.403268 0.000000 
0.376243 -0.408155 0.000000 
0.345303 -0.406833 0.000000 
0.343797 -0.438373 0.000000 
0.348360 -0.341661 0.000000 
0.346825 -0.374602 0.000000 
0.378689 -0.342945 0.000000 
0.439345 -0.344640 0.000000 
[...]
POINT_DATA 16641

SCALARS u_h float 2
LOOKUP_TABLE default
0.001404 -0.403349 
-0.001404 -0.403349 
0.000000 0.000000 
0.000000 0.000000 
0.000000 -0.442045 
-0.079277 -0.313368 
0.000000 0.000000 
0.079277 -0.313368 
0.000000 -0.339026 
0.000064 -0.432483 
0.000000 -0.418634 
0.019855 -0.410520 
-0.000064 -0.432483 
-0.019855 -0.410520 
-0.039168 -0.383002 
-0.041128 -0.334980 
-0.109394 -0.195237 
-0.054552 -0.192075 
0.000000 0.000000 
0.000000 -0.190006 
0.000000 0.000000 
0.054552 -0.192075 
0.109394 -0.195237 
0.041128 -0.334980 
0.039168 -0.383002 
0.000336 -0.420205 
0.009834 -0.427427 
0.014780 -0.415684 
0.000000 -0.436466 
0.004931 -0.434251 
0.000044 -0.439714 
0.015388 -0.385279 
0.010034 -0.416668 
0.000000 -0.386814 
-0.000044 -0.439714 
-0.004931 -0.434251 
-0.014780 -0.415684 
-0.009834 -0.427427 
-0.000336 -0.420205 
-0.010034 -0.416668 
-0.015388 -0.385279 
-0.020046 -0.399099 
-0.029426 -0.399549 
-0.060545 -0.327888 
-0.044804 -0.370681 
-0.059122 -0.354497 
-0.030381 -0.380297 
-0.020816 -0.338101 
-0.097624 -0.260027 
-0.074876 -0.269879 
-0.070089 -0.100969 
-0.082821 -0.194962 
-0.102819 -0.119609 
-0.050599 -0.272676 
-0.025439 -0.273275 
0.000000 0.000000 
-0.042773 -0.095754 
0.000000 -0.094314 
-0.020379 -0.094567 
0.000000 0.000000 
-0.026917 -0.190484 
0.000000 -0.273351 
0.000000 0.000000 
0.020379 -0.094567 
0.070089 -0.100969 
0.042773 -0.095754 
0.000000 0.000000 
0.026917 -0.190484 
0.025439 -0.273275 
0.102819 -0.119609 
0.082821 -0.194962 
0.060545 -0.327888 
0.074876 -0.269879 
0.097624 -0.260027 
0.050599 -0.272676 
0.020816 -0.338101 
0.059122 -0.354497 
0.044804 -0.370681 
0.029426 -0.399549 
0.020046 -0.399099 
0.030381 -0.380297 
0.000742 -0.412260 
0.007600 -0.419334 
0.009084 -0.411504 
0.004940 -0.431362 
0.006231 -0.425974 
0.000136 -0.426972 
0.018410 -0.415472 
0.012291 -0.422183 
0.014791 -0.420537 
0.000000 -0.440694 
0.001229 -0.440128 
0.000030 -0.441487 
0.003735 -0.428658 
0.002468 -0.435916 
0.000000 -0.429182 
0.000049 -0.436723 
0.002459 -0.438406 
0.003691 -0.435496 
0.009091 -0.364727 
0.007720 -0.386435 
0.000000 -0.365033 
0.014980 -0.414150 
0.012681 -0.402818 
0.018920 -0.400525 
0.000000 -0.404594 
0.006362 -0.404155 
0.005032 -0.418147 
0.007385 -0.431436 
0.007453 -0.427072 
0.011140 -0.424383 
-0.000030 -0.441487 
-0.001229 -0.440128 
-0.003691 -0.435496 
-0.002459 -0.438406 
-0.000049 -0.436723 
-0.002468 -0.435916 
-0.003735 -0.428658 
-0.009084 -0.411504 
-0.007600 -0.419334 
-0.000742 -0.412260 
-0.014791 -0.420537 
-0.012291 -0.422183 
-0.018410 -0.415472 
-0.000136 -0.426972 
-0.006231 -0.425974 
-0.004940 -0.431362 
-0.007720 -0.386435 
-0.009091 -0.364727 
-0.005032 -0.418147 
-0.006362 -0.404155 
-0.018920 -0.400525 
-0.012681 -0.402818 
-0.014980 -0.414150 
-0.007385 -0.431436 
-0.011140 -0.424383 
-0.007453 -0.427072 
-0.010717 -0.402641 
-0.017342 -0.407958 
-0.034220 -0.392016 
-0.025689 -0.401500 
-0.029503 -0.392577 
-0.022025 -0.409135 
-0.024661 -0.405686 
-0.069934 -0.321851 
-0.060951 -0.344395 
-0.069258 -0.335515 
-0.044329 -0.356061 
-0.052695 -0.351101 
-0.050959 -0.332101 
-0.049056 -0.370321 
-0.051908 -0.363554 
-0.042968 -0.379399 
-0.018123 -0.363793 
-0.010440 -0.338770 
-0.025054 -0.397178 
-0.022954 -0.383274 
-0.031065 -0.336894 
-0.027036 -0.362148 
-0.035780 -0.359644 
-0.037024 -0.386781 
-0.037656 -0.376174 
-0.031079 -0.392649 
-0.088886 -0.288205 
-0.078582 -0.295852 
-0.092816 -0.233150 
-0.086441 -0.266323 
-0.104810 -0.228988 
-0.068087 -0.300876 
-0.057292 -0.304075 
-0.060220 -0.054689 
-0.086418 -0.108170 
-0.082684 -0.075928 
-0.068685 -0.193402 
-0.080686 -0.150423 
-0.065825 -0.147295 
-0.109696 -0.158853 
-0.095687 -0.154785 
-0.096558 -0.196122 
-0.023327 -0.307979 
-0.011692 -0.308348 
-0.046195 -0.306064 
-0.034850 -0.307273 
-0.040259 -0.234312 
-0.038081 -0.273098 
-0.053715 -0.234668 
-0.080190 -0.234671 
-0.067082 -0.234915 
-0.062900 -0.271753 
0.000000 0.000000 
-0.044916 -0.048300 
-0.025890 -0.045990 
-0.034293 -0.046511 
0.000000 0.000000 
-0.055585 -0.097426 
-0.051597 -0.145341 
-0.000000 -0.045860 
-0.005974 -0.045872 
0.000000 0.000000 
-0.012436 -0.143163 
-0.010074 -0.094385 
0.000000 -0.143042 
0.000000 0.000000 
-0.012128 -0.045857 
-0.018669 -0.045863 
-0.012733 -0.273339 
0.000000 -0.308465 
-0.040616 -0.191114 
-0.026808 -0.234005 
0.000000 -0.233733 
-0.013391 -0.233806 
-0.013408 -0.190129 
-0.031174 -0.094954 
-0.025057 -0.143512 
-0.038051 -0.144179 
0.000000 0.000000 
0.005974 -0.045872 
0.018669 -0.045863 
0.012128 -0.045857 
0.000000 0.000000 
0.010074 -0.094385 
0.012436 -0.143163 
0.060220 -0.054689 
0.044916 -0.048300 
0.000000 0.000000 
0.051597 -0.145341 
0.055585 -0.097426 
0.065825 -0.147295 
0.000000 0.000000 
0.034293 -0.046511 
0.025890 -0.045990 
0.012733 -0.273339 
0.011692 -0.308348 
0.013408 -0.190129 
0.013391 -0.233806 
0.040259 -0.234312 
0.026808 -0.234005 
0.040616 -0.191114 
0.031174 -0.094954 
0.038051 -0.144179 
0.025057 -0.143512 
0.082684 -0.075928 
0.086418 -0.108170 
0.096558 -0.196122 
0.095687 -0.154785 
0.109696 -0.158853 
0.080686 -0.150423 
0.068685 -0.193402 
0.069934 -0.321851 
0.078582 -0.295852 
0.088886 -0.288205 
0.057292 -0.304075 
0.068087 -0.300876 
0.050959 -0.332101 
0.104810 -0.228988 
0.086441 -0.266323 
0.092816 -0.233150 
0.023327 -0.307979 
0.010440 -0.338770 
0.053715 -0.234668 
0.038081 -0.273098 
0.031065 -0.336894 
0.034850 -0.307273 
0.046195 -0.306064 
0.080190 -0.234671 
0.062900 -0.271753 
0.067082 -0.234915 
0.069258 -0.335515 
0.060951 -0.344395 
0.042968 -0.379399 
0.051908 -0.363554 
0.049056 -0.370321 
0.052695 -0.351101 
0.044329 -0.356061 
0.017342 -0.407958 
0.010717 -0.402641 
0.024661 -0.405686 
0.022025 -0.409135 
0.029503 -0.392577 
0.025689 -0.401500 
0.034220 -0.392016 
0.018123 -0.363793 
0.035780 -0.359644 
0.027036 -0.362148 
0.022954 -0.383274 
0.025054 -0.397178 
0.037024 -0.386781 
0.031079 -0.392649 
0.037656 -0.376174 
0.001042 -0.407899 
0.004939 -0.412222 
0.005477 -0.407886 
0.003991 -0.420111 
0.004444 -0.416306 
0.000509 -0.416371 
0.012186 -0.414120 
0.008326 -0.415560 
0.011190 -0.417863 
0.002501 -0.432267 
0.002838 -0.429700 
0.000089 -0.429887 
0.008316 -0.427252 
0.005578 -0.428826 
0.007382 -0.429755 
0.000215 -0.423743 
0.003194 -0.426817 
0.003576 -0.423618 
0.019417 -0.413609 
0.016603 -0.418161 
0.017307 -0.415931 
0.013529 -0.419089 
0.015338 -0.419201 
0.016859 -0.416149 
0.012302 -0.424362 
0.013820 -0.421938 
0.011060 -0.424961 
0.006904 -0.422809 
0.009259 -0.424435 
0.010216 -0.421304 
0.000000 -0.441721 
0.000311 -0.441582 
0.000018 -0.441922 
0.000922 -0.438810 
0.000614 -0.440553 
0.000000 -0.438950 
0.000039 -0.440751 
0.000623 -0.441152 
0.000934 -0.440427 
0.002191 -0.424203 
0.001868 -0.429051 
0.000000 -0.424330 
0.003701 -0.435225 
0.003098 -0.432680 
0.004644 -0.432004 
0.000000 -0.433218 
0.001550 -0.433084 
0.001234 -0.436329 
0.000053 -0.434761 
0.001863 -0.436455 
0.002178 -0.434518 
0.001243 -0.439405 
0.001553 -0.438083 
0.000047 -0.438373 
0.004610 -0.435411 
0.003075 -0.437102 
0.003689 -0.436695 
0.001845 -0.438390 
0.002767 -0.437687 
0.001845 -0.439413 
0.004888 -0.352495 
0.004549 -0.364956 
0.000000 -0.352565 
0.011564 -0.385958 
0.008406 -0.376096 
0.012591 -0.375663 
0.000000 -0.376439 
0.004206 -0.376354 
0.003863 -0.386719 
0.017427 -0.412480 
0.016937 -0.407776 
0.019699 -0.406169 
0.011349 -0.410189 
0.014153 -0.409112 
0.012515 -0.415543 
0.017491 -0.393566 
0.015813 -0.401796 
0.014028 -0.394526 
0.000000 -0.412066 
0.002849 -0.411950 
0.002518 -0.418513 
0.003522 -0.396085 
0.003183 -0.404485 
0.000000 -0.396188 
0.007538 -0.417534 
0.005693 -0.411601 
0.008527 -0.411016 
0.010542 -0.395260 
0.009529 -0.403602 
0.007038 -0.395778 
0.004312 -0.433585 
0.006159 -0.432990 
0.005532 -0.433830 
0.006455 -0.431946 
0.008610 -0.429584 
0.004379 -0.423823 
0.008735 -0.422286 
0.006562 -0.423185 
0.005597 -0.427999 
0.006185 -0.431051 
0.015185 -0.417951 
0.010780 -0.426479 
0.012970 -0.422609 
0.013048 -0.419677 
0.010898 -0.421119 
0.007722 -0.429817 
0.009301 -0.425868 
0.009254 -0.428295 
-0.000018 -0.441922 
-0.000311 -0.441582 
-0.000934 -0.440427 
-0.000623 -0.441152 
-0.000039 -0.440751 
-0.000614 -0.440553 
-0.000922 -0.438810 
-0.002178 -0.434518 
-0.001863 -0.436455 
-0.000053 -0.434761 
-0.003689 -0.436695 
-0.003075 -0.437102 
-0.004610 -0.435411 
-0.000047 -0.438373 
-0.001553 -0.438083 
-0.001243 -0.439405 
-0.001868 -0.429051 
-0.002191 -0.424203 
-0.001234 -0.436329 
-0.001550 -0.433084 
-0.004644 -0.432004 
-0.003098 -0.432680 
-0.003701 -0.435225 
-0.001845 -0.439413 
-0.002767 -0.437687 
-0.001845 -0.438390 
-0.005477 -0.407886 
-0.004939 -0.412222 
-0.001042 -0.407899 
-0.011190 -0.417863 
-0.008326 -0.415560 
-0.012186 -0.414120 
-0.000509 -0.416371 
-0.004444 -0.416306 
-0.003991 -0.420111 
-0.017307 -0.415931 
-0.016603 -0.418161 
-0.019417 -0.413609 
-0.011060 -0.424961 
-0.013820 -0.421938 
-0.012302 -0.424362 
-0.016859 -0.416149 
-0.015338 -0.419201 
-0.013529 -0.419089 
-0.000089 -0.429887 
-0.002838 -0.429700 
-0.002501 -0.432267 
-0.003576 -0.423618 
-0.003194 -0.426817 
-0.000215 -0.423743 
-0.007382 -0.429755 
-0.005578 -0.428826 
-0.008316 -0.427252 
-0.010216 -0.421304 
-0.009259 -0.424435 
-0.006904 -0.422809 
-0.004549 -0.364956 
-0.004888 -0.352495 
-0.003863 -0.386719 
-0.004206 -0.376354 
-0.012591 -0.375663 
-0.008406 -0.376096 
-0.011564 -0.385958 
-0.002518 -0.418513 
-0.002849 -0.411950 
-0.008527 -0.411016 
-0.005693 -0.411601 
-0.007538 -0.417534 
-0.003183 -0.404485 
-0.003522 -0.396085 
-0.019699 -0.406169 
-0.016937 -0.407776 
-0.017427 -0.412480 
-0.014028 -0.394526 
-0.015813 -0.401796 
-0.017491 -0.393566 
-0.012515 -0.415543 
-0.014153 -0.409112 
-0.011349 -0.410189 
-0.007038 -0.395778 
-0.009529 -0.403602 
-0.010542 -0.395260 
-0.004312 -0.433585 
-0.008610 -0.429584 
-0.006455 -0.431946 
-0.005532 -0.433830 
-0.006159 -0.432990 
-0.015185 -0.417951 
-0.010898 -0.421119 
-0.013048 -0.419677 
-0.012970 -0.422609 
-0.010780 -0.426479 
-0.004379 -0.423823 
-0.006185 -0.431051 
-0.005597 -0.427999 
-0.006562 -0.423185 
-0.008735 -0.422286 
-0.009254 -0.428295 
-0.009301 -0.425868 
-0.007722 -0.429817 
-0.006057 -0.403331 
-0.009879 -0.407189 
-0.018670 -0.403662 
-0.014269 -0.405786 
-0.015373 -0.401237 
-0.013210 -0.410088 
-0.016048 -0.411970 
-0.036665 -0.387698 
-0.032089 -0.392833 
-0.034308 -0.388175 
-0.027805 -0.401108 
-0.029928 -0.397143 
-0.031813 -0.395963 
-0.024752 -0.396216 
-0.027569 -0.397197 
-0.023099 -0.400803 
-0.021516 -0.410974 
-0.022266 -0.408260 
-0.018387 -0.412780 
-0.020216 -0.412465 
-0.027045 -0.402787 
-0.023609 -0.408017 
-0.025702 -0.404731 
-0.021497 -0.405100 
-0.023846 -0.405480 
-0.019930 -0.409095 
-0.074597 -0.317964 
-0.069864 -0.329516 
-0.074297 -0.324840 
-0.061063 -0.337009 
-0.065463 -0.333550 
-0.065257 -0.325133 
-0.064191 -0.345401 
-0.065084 -0.340254 
-0.060284 -0.350177 
-0.043095 -0.346349 
-0.047662 -0.344575 
-0.046075 -0.333682 
-0.048743 -0.361336 
-0.048532 -0.353774 
-0.044881 -0.364151 
-0.055781 -0.330189 
-0.052175 -0.342462 
-0.056638 -0.339959 
-0.044085 -0.377052 
-0.045982 -0.375084 
-0.041296 -0.381785 
-0.055488 -0.359286 
-0.050716 -0.367586 
-0.054071 -0.362803 
-0.044151 -0.375733 
-0.047418 -0.371886 
-0.048354 -0.367340 
-0.056829 -0.347992 
-0.052586 -0.358098 
-0.056425 -0.354394 
-0.009771 -0.352294 
-0.005224 -0.338936 
-0.016755 -0.375046 
-0.013618 -0.364342 
-0.015640 -0.338495 
-0.014638 -0.351962 
-0.019481 -0.351488 
-0.022437 -0.404278 
-0.022001 -0.398991 
-0.026686 -0.381917 
-0.024332 -0.390917 
-0.027704 -0.389194 
-0.020927 -0.392368 
-0.019186 -0.384389 
-0.036123 -0.336039 
-0.033794 -0.349053 
-0.038472 -0.347829 
-0.024293 -0.350857 
-0.029066 -0.350053 
-0.025960 -0.337574 
-0.033077 -0.370457 
-0.031431 -0.361016 
-0.029056 -0.371960 
-0.020891 -0.374234 
-0.024993 -0.373212 
-0.022598 -0.363067 
-0.038567 -0.386105 
-0.040894 -0.379157 
-0.039989 -0.383291 
-0.035875 -0.390029 
-0.033200 -0.393572 
-0.040079 -0.358004 
-0.034037 -0.378391 
-0.037054 -0.368675 
-0.040987 -0.366585 
-0.041242 -0.373614 
-0.025153 -0.402089 
-0.030528 -0.396752 
-0.027848 -0.399585 
-0.028079 -0.395071 
-0.031042 -0.387181 
-0.037631 -0.382188 
-0.034350 -0.384853 
-0.034057 -0.389893 
-0.084160 -0.301176 
-0.079243 -0.305596 
-0.088046 -0.278412 
-0.083745 -0.292412 
-0.093400 -0.274483 
-0.074325 -0.309288 
-0.069376 -0.312348 
-0.101420 -0.214224 
-0.098893 -0.231509 
-0.107513 -0.212444 
-0.080712 -0.268370 
-0.089872 -0.250202 
-0.083889 -0.251765 
-0.101466 -0.244855 
-0.095727 -0.247962 
-0.092071 -0.263595 
-0.054184 -0.318611 
-0.048984 -0.319972 
-0.064377 -0.314868 
-0.059315 -0.316931 
-0.065961 -0.287351 
-0.062729 -0.302661 
-0.071612 -0.285889 
-0.082646 -0.281535 
-0.077172 -0.283986 
-0.073368 -0.298639 
-0.045331 -0.032093 
-0.070817 -0.062657 
-0.062361 -0.049643 
-0.078064 -0.103987 
-0.076328 -0.082366 
-0.067594 -0.077691 
-0.095058 -0.098566 
-0.085761 -0.089381 
-0.094843 -0.113549 
-0.061601 -0.192695 
-0.067968 -0.170898 
-0.060769 -0.169950 
-0.082531 -0.173315 
-0.075238 -0.172026 
-0.075773 -0.194175 
-0.069171 -0.124245 
-0.073192 -0.148691 
-0.076767 -0.126282 
-0.110221 -0.177376 
-0.103722 -0.177058 
-0.103114 -0.196088 
-0.100178 -0.135968 
-0.102902 -0.157061 
-0.107416 -0.139629 
-0.089772 -0.195665 
-0.096875 -0.176036 
-0.089775 -0.174701 
-0.084579 -0.128937 
-0.088226 -0.152487 
-0.092463 -0.132228 
-0.011085 -0.324128 
-0.005548 -0.324257 
-0.022105 -0.323606 
-0.016606 -0.323915 
-0.018358 -0.291333 
-0.017520 -0.308198 
-0.024451 -0.291203 
-0.043716 -0.321068 
-0.038387 -0.321946 
-0.042561 -0.290413 
-0.040549 -0.306745 
-0.048512 -0.289940 
-0.033004 -0.322643 
-0.027574 -0.323188 
-0.047601 -0.213561 
-0.046990 -0.234491 
-0.054499 -0.213931 
-0.031772 -0.273207 
-0.039342 -0.254277 
-0.032798 -0.254243 
-0.052369 -0.254253 
-0.045870 -0.254288 
-0.044361 -0.272930 
-0.029107 -0.307676 
-0.036561 -0.290762 
-0.030522 -0.291019 
-0.095113 -0.215138 
-0.081944 -0.215400 
-0.088609 -0.215458 
-0.086576 -0.234141 
-0.077778 -0.252818 
-0.061406 -0.214334 
-0.058827 -0.254143 
-0.060418 -0.234822 
-0.068303 -0.214747 
-0.075161 -0.215126 
-0.051778 -0.305190 
-0.068935 -0.270973 
-0.060222 -0.288465 
-0.054402 -0.289308 
-0.056783 -0.272299 
-0.073682 -0.234891 
-0.065228 -0.253911 
-0.071551 -0.253497 
0.000000 0.000000 
-0.035269 -0.025976 
-0.024850 -0.022838 
-0.029144 -0.023740 
0.000000 0.000000 
-0.051738 -0.050487 
-0.059786 -0.074756 
-0.014037 -0.022265 
-0.016248 -0.022260 
0.000000 0.000000 
-0.040783 -0.071110 
-0.029898 -0.046171 
-0.035448 -0.070665 
0.000000 0.000000 
-0.018700 -0.022306 
-0.021501 -0.022458 
-0.058622 -0.146195 
-0.053666 -0.169172 
-0.062598 -0.098869 
-0.061852 -0.122723 
-0.048064 -0.120775 
-0.054822 -0.121600 
-0.048998 -0.096436 
-0.039222 -0.047139 
-0.046534 -0.071816 
-0.052819 -0.072942 
-0.000000 -0.022463 
-0.001601 -0.022470 
0.000000 0.000000 
-0.004115 -0.069927 
-0.002976 -0.045873 
-0.000000 -0.069909 
0.000000 0.000000 
-0.003217 -0.022460 
-0.004860 -0.022439 
-0.006526 -0.166887 
-0.006206 -0.143077 
0.000000 -0.166851 
-0.015182 -0.094458 
-0.011453 -0.118883 
-0.017247 -0.118996 
0.000000 -0.118782 
-0.005713 -0.118813 
-0.005023 -0.094339 
0.000000 0.000000 
-0.010090 -0.022334 
-0.011999 -0.022295 
-0.006542 -0.022410 
-0.008279 -0.022373 
0.000000 0.000000 
-0.021132 -0.070092 
-0.015334 -0.045853 
-0.016734 -0.070021 
-0.008256 -0.069948 
-0.012453 -0.069977 
-0.009016 -0.045865 
-0.005850 -0.308436 
0.000000 -0.324303 
-0.019092 -0.273316 
-0.012248 -0.291418 
0.000000 -0.291481 
-0.006127 -0.291467 
-0.006368 -0.273349 
-0.047554 -0.191549 
-0.040726 -0.213237 
-0.027060 -0.212740 
-0.033878 -0.212963 
-0.033739 -0.190761 
-0.033530 -0.234147 
-0.026244 -0.254200 
0.000000 -0.212341 
-0.006746 -0.212370 
-0.006698 -0.190039 
-0.006562 -0.254100 
-0.006694 -0.233753 
0.000000 -0.254090 
-0.020144 -0.190275 
-0.013499 -0.212445 
-0.020268 -0.212568 
-0.019685 -0.254158 
-0.020095 -0.233890 
-0.013124 -0.254123 
-0.022170 -0.045901 
-0.025697 -0.094725 
-0.025685 -0.070205 
-0.030439 -0.070383 
-0.036850 -0.095282 
-0.013070 -0.166980 
-0.026285 -0.167355 
-0.019650 -0.167134 
-0.018711 -0.143305 
-0.023123 -0.119164 
-0.046671 -0.168544 
-0.041549 -0.120169 
-0.044745 -0.144683 
-0.039781 -0.168045 
-0.032990 -0.167654 
-0.029111 -0.119399 
-0.031495 -0.143797 
-0.035242 -0.119724 
0.000000 0.000000 
0.001601 -0.022470 
0.004860 -0.022439 
0.003217 -0.022460 
0.000000 0.000000 
0.002976 -0.045873 
0.004115 -0.069927 
0.011999 -0.022295 
0.010090 -0.022334 
0.000000 0.000000 
0.016734 -0.070021 
0.015334 -0.045853 
0.021132 -0.070092 
0.000000 0.000000 
0.008279 -0.022373 
0.006542 -0.022410 
0.006206 -0.143077 
0.006526 -0.166887 
0.005023 -0.094339 
0.005713 -0.118813 
0.017247 -0.118996 
0.011453 -0.118883 
0.015182 -0.094458 
0.009016 -0.045865 
0.012453 -0.069977 
0.008256 -0.069948 
0.045331 -0.032093 
0.035269 -0.025976 
0.000000 0.000000 
0.059786 -0.074756 
0.051738 -0.050487 
0.067594 -0.077691 
0.000000 0.000000 
0.029144 -0.023740 
0.024850 -0.022838 
0.053666 -0.169172 
0.058622 -0.146195 
0.060769 -0.169950 
0.048998 -0.096436 
0.054822 -0.121600 
0.048064 -0.120775 
0.069171 -0.124245 
0.061852 -0.122723 
0.062598 -0.098869 
0.000000 0.000000 
0.016248 -0.022260 
0.014037 -0.022265 
0.021501 -0.022458 
0.018700 -0.022306 
0.000000 0.000000 
0.035448 -0.070665 
0.029898 -0.046171 
0.040783 -0.071110 
0.052819 -0.072942 
0.046534 -0.071816 
0.039222 -0.047139 
0.005850 -0.308436 
0.005548 -0.324257 
0.006368 -0.273349 
0.006127 -0.291467 
0.018358 -0.291333 
0.012248 -0.291418 
0.019092 -0.273316 
0.006698 -0.190039 
0.006746 -0.212370 
0.020268 -0.212568 
0.013499 -0.212445 
0.020144 -0.190275 
0.006694 -0.233753 
0.006562 -0.254100 
0.047601 -0.213561 
0.040726 -0.213237 
0.047554 -0.191549 
0.026244 -0.254200 
0.033530 -0.234147 
0.032798 -0.254243 
0.033739 -0.190761 
0.033878 -0.212963 
0.027060 -0.212740 
0.013124 -0.254123 
0.020095 -0.233890 
0.019685 -0.254158 
0.022170 -0.045901 
0.036850 -0.095282 
0.030439 -0.070383 
0.025685 -0.070205 
0.025697 -0.094725 
0.046671 -0.168544 
0.032990 -0.167654 
0.039781 -0.168045 
0.044745 -0.144683 
0.041549 -0.120169 
0.013070 -0.166980 
0.023123 -0.119164 
0.018711 -0.143305 
0.019650 -0.167134 
0.026285 -0.167355 
0.035242 -0.119724 
0.031495 -0.143797 
0.029111 -0.119399 
0.062361 -0.049643 
0.070817 -0.062657 
0.094843 -0.113549 
0.085761 -0.089381 
0.095058 -0.098566 
0.076328 -0.082366 
0.078064 -0.103987 
0.103114 -0.196088 
0.103722 -0.177058 
0.110221 -0.177376 
0.089775 -0.174701 
0.096875 -0.176036 
0.089772 -0.195665 
0.107416 -0.139629 
0.102902 -0.157061 
0.100178 -0.135968 
0.067968 -0.170898 
0.061601 -0.192695 
0.076767 -0.126282 
0.073192 -0.148691 
0.075773 -0.194175 
0.075238 -0.172026 
0.082531 -0.173315 
0.092463 -0.132228 
0.088226 -0.152487 
0.084579 -0.128937 
0.074597 -0.317964 
0.079243 -0.305596 
0.084160 -0.301176 
0.069376 -0.312348 
0.074325 -0.309288 
0.065257 -0.325133 
0.093400 -0.274483 
0.083745 -0.292412 
0.088046 -0.278412 
0.048984 -0.319972 
0.054184 -0.318611 
0.046075 -0.333682 
0.071612 -0.285889 
0.062729 -0.302661 
0.065961 -0.287351 
0.055781 -0.330189 
0.059315 -0.316931 
0.064377 -0.314868 
0.107513 -0.212444 
0.098893 -0.231509 
0.101420 -0.214224 
0.092071 -0.263595 
0.095727 -0.247962 
0.101466 -0.244855 
0.083889 -0.251765 
0.089872 -0.250202 
0.080712 -0.268370 
0.073368 -0.298639 
0.077172 -0.283986 
0.082646 -0.281535 
0.011085 -0.324128 
0.005224 -0.338936 
0.024451 -0.291203 
0.017520 -0.308198 
0.015640 -0.338495 
0.016606 -0.323915 
0.022105 -0.323606 
0.054499 -0.213931 
0.046990 -0.234491 
0.044361 -0.272930 
0.045870 -0.254288 
0.052369 -0.254253 
0.039342 -0.254277 
0.031772 -0.273207 
0.036123 -0.336039 
0.038387 -0.321946 
0.043716 -0.321068 
0.027574 -0.323188 
0.033004 -0.322643 