# vtk DataFile Version 2.0
Unstructured Grid Example
ASCII
DATASET UNSTRUCTURED_GRID

POINTS 81 float
0.010335 -0.405629 0.000000 
0.989665 -0.405629 0.000000 
1.000000 1.000000 0.000000 
0.000000 1.000000 0.000000 
0.500000 -0.427163 0.000000 
0.922976 0.196000 0.000000 
0.500000 1.000000 0.000000 
0.077024 0.196000 0.000000 
0.500000 0.166738 0.000000 
0.254772 -0.423902 0.000000 
0.500000 -0.156757 0.000000 
0.269272 -0.150997 0.000000 
0.745228 -0.423902 0.000000 
0.730728 -0.150997 0.000000 
0.960618 -0.128432 0.000000 
0.709633 0.174403 0.000000 
0.895227 0.557778 0.000000 
0.698745 0.566362 0.000000 
0.750000 1.000000 0.000000 
0.500000 0.571192 0.000000 
0.250000 1.000000 0.000000 
0.301255 0.566362 0.000000 
0.104773 0.557778 0.000000 
0.290367 0.174403 0.000000 
0.039382 -0.128432 0.000000 
0.132472 -0.415562 0.000000 
0.261197 -0.293022 0.000000 
0.141770 -0.284597 0.000000 
0.500000 -0.297902 0.000000 
0.380492 -0.297518 0.000000 
0.377322 -0.428245 0.000000 
0.389298 -0.000314 0.000000 
0.384510 -0.155565 0.000000 
0.500000 -0.002363 0.000000 
0.622678 -0.428245 0.000000 
0.619508 -0.297518 0.000000 
0.858230 -0.284597 0.000000 
0.738803 -0.293022 0.000000 
0.867528 -0.415562 0.000000 
0.615490 -0.155565 0.000000 
0.610702 -0.000314 0.000000 
0.977406 -0.272740 0.000000 
0.845975 -0.142353 0.000000 
0.815838 0.181075 0.000000 
0.831419 0.012624 0.000000 
0.941583 0.027716 0.000000 
0.720897 0.004229 0.000000 
0.604431 0.171076 0.000000 
0.905100 0.370329 0.000000 
0.801553 0.362935 0.000000 
0.814347 0.782339 0.000000 
0.795890 0.561840 0.000000 
0.903725 0.760470 0.000000 
0.700167 0.361135 0.000000 
0.599664 0.360949 0.000000 
0.875000 1.000000 0.000000 
0.712169 0.784956 0.000000 
0.500000 0.788992 0.000000 
0.606623 0.785632 0.000000 
0.625000 1.000000 0.000000 
0.599665 0.568167 0.000000 
0.500000 0.361595 0.000000 
0.375000 1.000000 0.000000 
0.393377 0.785632 0.000000 
0.185653 0.782339 0.000000 
0.287831 0.784956 0.000000 
0.125000 1.000000 0.000000 
0.400335 0.568167 0.000000 
0.400336 0.360949 0.000000 
0.096275 0.760470 0.000000 
0.204110 0.561840 0.000000 
0.184162 0.181075 0.000000 
0.198447 0.362935 0.000000 
0.094900 0.370329 0.000000 
0.299833 0.361135 0.000000 
0.395569 0.171076 0.000000 
0.058417 0.027716 0.000000 
0.168581 0.012624 0.000000 
0.154025 -0.142353 0.000000 
0.022594 -0.272740 0.000000 
0.279103 0.004229 0.000000 

CELLS 128 512
3  0 25 27 
3  9 26 25 
3  11 27 26 
3  25 26 27 
3  4 28 30 
3  10 29 28 
3  9 30 29 
3  28 29 30 
3  8 31 33 
3  11 32 31 
3  10 33 32 
3  31 32 33 
3  9 29 26 
3  10 32 29 
3  11 26 32 
3  29 32 26 
3  4 34 28 
3  12 35 34 
3  10 28 35 
3  34 35 28 
3  1 36 38 
3  13 37 36 
3  12 38 37 
3  36 37 38 
3  8 33 40 
3  10 39 33 
3  13 40 39 
3  33 39 40 
3  12 37 35 
3  13 39 37 
3  10 35 39 
3  37 39 35 
3  1 41 36 
3  14 42 41 
3  13 36 42 
3  41 42 36 
3  5 43 45 
3  15 44 43 
3  14 45 44 
3  43 44 45 
3  8 40 47 
3  13 46 40 
3  15 47 46 
3  40 46 47 
3  14 44 42 
3  15 46 44 
3  13 42 46 
3  44 46 42 
3  5 48 43 
3  16 49 48 
3  15 43 49 
3  48 49 43 
3  2 50 52 
3  17 51 50 
3  16 52 51 
3  50 51 52 
3  8 47 54 
3  15 53 47 
3  17 54 53 
3  47 53 54 
3  16 51 49 
3  17 53 51 
3  15 49 53 
3  51 53 49 
3  2 55 50 
3  18 56 55 
3  17 50 56 
3  55 56 50 
3  6 57 59 
3  19 58 57 
3  18 59 58 
3  57 58 59 
3  8 54 61 
3  17 60 54 
3  19 61 60 
3  54 60 61 
3  18 58 56 
3  19 60 58 
3  17 56 60 
3  58 60 56 
3  6 62 57 
3  20 63 62 
3  19 57 63 
3  62 63 57 
3  3 64 66 
3  21 65 64 
3  20 66 65 
3  64 65 66 
3  8 61 68 
3  19 67 61 
3  21 68 67 
3  61 67 68 
3  20 65 63 
3  21 67 65 
3  19 63 67 
3  65 67 63 
3  3 69 64 
3  22 70 69 
3  21 64 70 
3  69 70 64 
3  7 71 73 
3  23 72 71 
3  22 73 72 
3  71 72 73 
3  8 68 75 
3  21 74 68 
3  23 75 74 
3  68 74 75 
3  22 72 70 
3  23 74 72 
3  21 70 74 
3  72 74 70 
3  7 76 71 
3  24 77 76 
3  23 71 77 
3  76 77 71 
3  0 27 79 
3  11 78 27 
3  24 79 78 
3  27 78 79 
3  8 75 31 
3  23 80 75 
3  11 31 80 
3  75 80 31 
3  24 78 77 
3  11 80 78 
3  23 77 80 
3  78 80 77 

CELL_TYPES 128
5
5
5
5
5
5
5
5
5
5
5
5
5
5
5
5
5
5
5
5
5
5
5
5
5
5
5
5
5
5
5
5
5
5
5
5
5
5
5
5
5
5
5
5
5
5
5
5
5
5
5
5
5
5
5
5
5
5
5
5
5
5
5
5
5
5
5
5
5
5
5
5
5
5
5
5
5
5
5
5
5
5
5
5
5
5
5
5
5
5
5
5
5
5
5
5
5
5
5
5
5
5
5
5
5
5
5
5
5
5
5
5
5
5
5
5
5
5
5
5
5
5
5
5
5
5
5
5

POINT_DATA 81

SCALARS u_h float 2
LOOKUP_TABLE default
0.010335 -0.405629 
-0.010335 -0.405629 
0.000000 0.000000 
0.000000 0.000000 
-0.000000 -0.427163 
-0.077024 -0.304000 
0.000000 0.000000 
0.077024 -0.304000 
-0.000000 -0.333262 
0.004772 -0.423902 
-0.000000 -0.406757 
0.019272 -0.400997 
-0.004772 -0.423902 
-0.019272 -0.400997 
-0.039382 -0.378432 
-0.040367 -0.325597 
-0.104773 -0.192222 
-0.051255 -0.183638 
0.000000 0.000000 
-0.000000 -0.178808 
0.000000 0.000000 
0.051255 -0.183638 
0.104773 -0.192222 
0.040367 -0.325597 
0.039382 -0.378432 
0.007472 -0.415562 
0.011197 -0.418022 
0.016770 -0.409597 
-0.000000 -0.422902 
0.005492 -0.422518 
0.002322 -0.428245 
0.014298 -0.375314 
0.009510 -0.405565 
-0.000000 -0.377363 
-0.002322 -0.428245 
-0.005492 -0.422518 
-0.016770 -0.409597 
-0.011197 -0.418022 
-0.007472 -0.415562 
-0.009510 -0.405565 
-0.014298 -0.375314 
-0.022594 -0.397740 
-0.029025 -0.392353 
-0.059162 -0.318925 
-0.043581 -0.362376 
-0.058417 -0.347284 
-0.029103 -0.370771 
-0.020569 -0.328924 
-0.094900 -0.254671 
-0.073447 -0.262065 
-0.060653 -0.092661 
-0.079110 -0.188160 
-0.096275 -0.114530 
-0.049833 -0.263865 
-0.025336 -0.264051 
0.000000 0.000000 
-0.037831 -0.090044 
-0.000000 -0.086008 
-0.018377 -0.089368 
0.000000 0.000000 
-0.025335 -0.181833 
-0.000000 -0.263405 
0.000000 0.000000 
0.018377 -0.089368 
0.060653 -0.092661 
0.037831 -0.090044 
0.000000 0.000000 
0.025335 -0.181833 
0.025336 -0.264051 
0.096275 -0.114530 
0.079110 -0.188160 
0.059162 -0.318925 
0.073447 -0.262065 
0.094900 -0.254671 
0.049833 -0.263865 
0.020569 -0.328924 
0.058417 -0.347284 
0.043581 -0.362376 
0.029025 -0.392353 
0.022594 -0.397740 
0.029103 -0.370771 

CELL_DATA 128

SCALARS epsilon float 4
LOOKUP_TABLE default
-0.014801 0.055311 0.000000 0.000056
-0.017238 0.051375 0.000000 -0.005642
-0.039825 0.132911 0.000000 0.003686
-0.037856 0.053817 0.000000 0.006721
-0.018752 0.033548 0.000000 0.004185
-0.044895 0.120928 0.000000 -0.001355
-0.018628 0.046199 0.000000 -0.003704
-0.044496 0.044851 0.000000 0.011770
-0.120816 0.294897 0.000000 -0.005956
-0.079353 0.215519 0.000000 0.005367
-0.078956 0.208541 0.000000 -0.003833
-0.119649 0.214495 0.000000 0.014311
-0.043523 0.048425 0.000000 0.009728
-0.078196 0.126887 0.000000 0.012979
-0.076996 0.129879 0.000000 0.018543
-0.045182 0.128159 0.000000 0.000796
-0.018752 0.033548 0.000000 -0.004185
-0.018628 0.046199 0.000000 0.003704
-0.044895 0.120928 0.000000 0.001355
-0.044496 0.044851 0.000000 -0.011770
-0.014801 0.055311 0.000000 -0.000056
-0.039825 0.132911 0.000000 -0.003686
-0.017238 0.051375 0.000000 0.005642
-0.037856 0.053817 0.000000 -0.006721
-0.120816 0.294897 0.000000 0.005956
-0.078956 0.208541 0.000000 0.003833
-0.079353 0.215519 0.000000 -0.005367
-0.119649 0.214495 0.000000 -0.014311
-0.043523 0.048425 0.000000 -0.009728
-0.076996 0.129879 0.000000 -0.018543
-0.078196 0.126887 0.000000 -0.012979
-0.045182 0.128159 0.000000 -0.000796
-0.033960 0.074530 0.000000 -0.006655
-0.064508 0.161879 0.000000 -0.023696
-0.070335 0.137058 0.000000 -0.022110
-0.035144 0.140731 0.000000 -0.008951
-0.129852 0.309708 0.000000 -0.037219
-0.149832 0.297687 0.000000 -0.049079
-0.100047 0.241048 0.000000 -0.034812
-0.107846 0.307974 0.000000 -0.021519
-0.175153 0.309164 0.000000 -0.015637
-0.120197 0.216735 0.000000 -0.028496
-0.165378 0.302908 0.000000 -0.040279
-0.122986 0.309147 0.000000 -0.013335
-0.069874 0.227721 0.000000 -0.016239
-0.114711 0.306894 0.000000 -0.022989
-0.074000 0.220042 0.000000 -0.013301
-0.109861 0.220822 0.000000 -0.036564
-0.132043 0.340858 0.000000 -0.034421
-0.180123 0.393106 0.000000 -0.023387
-0.152303 0.366895 0.000000 -0.042732
-0.175918 0.367768 0.000000 -0.042558
-0.105009 0.669374 0.000000 0.347970
-0.236295 0.530392 0.000000 0.067554
-0.221987 0.458538 0.000000 0.027090
-0.295276 0.552498 0.000000 0.040068
-0.176117 0.401328 0.000000 -0.009160
-0.167122 0.386887 0.000000 -0.031440
-0.213992 0.467338 0.000000 -0.005567
-0.213510 0.400076 0.000000 -0.020481
-0.225417 0.439917 0.000000 -0.034106
-0.245881 0.467455 0.000000 -0.016310
-0.202986 0.386108 0.000000 -0.037003
-0.204694 0.441087 0.000000 -0.019786
0.038825 0.516329 0.000000 0.198643
0.015475 0.506389 0.000000 0.124793
-0.194103 0.521214 0.000000 0.047902
-0.134354 0.522246 0.000000 0.236243
0.000000 0.490675 0.000000 0.000000
-0.157499 0.517014 0.000000 -0.007485
0.003674 0.503790 0.000000 0.060731
-0.149857 0.506186 0.000000 0.063472
-0.221898 0.422773 0.000000 -0.001550
-0.227384 0.475543 0.000000 -0.004055
-0.221896 0.485238 0.000000 -0.006751
-0.221898 0.475491 0.000000 -0.001456
-0.144592 0.507325 0.000000 0.146178
-0.220184 0.516538 0.000000 0.022071
-0.223347 0.520791 0.000000 0.051437
-0.166421 0.515765 0.000000 0.025500
0.000000 0.490675 0.000000 0.000000
0.003674 0.503790 0.000000 -0.060731
-0.157499 0.517014 0.000000 0.007485
-0.149857 0.506186 0.000000 -0.063472
0.038825 0.516329 0.000000 -0.198643
-0.194103 0.521214 0.000000 -0.047902
0.015475 0.506389 0.000000 -0.124793
-0.134354 0.522246 0.000000 -0.236243
-0.221898 0.422773 0.000000 0.001550
-0.221896 0.485238 0.000000 0.006751
-0.227384 0.475543 0.000000 0.004055
-0.221898 0.475491 0.000000 0.001456
-0.144592 0.507325 0.000000 -0.146178
-0.223347 0.520791 0.000000 -0.051437
-0.220184 0.516538 0.000000 -0.022071
-0.166421 0.515765 0.000000 -0.025500
-0.105009 0.669374 0.000000 -0.347970
-0.221987 0.458538 0.000000 -0.027090
-0.236295 0.530392 0.000000 -0.067554
-0.295276 0.552498 0.000000 -0.040068
-0.132043 0.340858 0.000000 0.034421
-0.152303 0.366895 0.000000 0.042732
-0.180123 0.393106 0.000000 0.023387
-0.175918 0.367768 0.000000 0.042558
-0.176117 0.401328 0.000000 0.009160
-0.213992 0.467338 0.000000 0.005567
-0.167122 0.386887 0.000000 0.031440
-0.213510 0.400076 0.000000 0.020481
-0.225417 0.439917 0.000000 0.034106
-0.202986 0.386108 0.000000 0.037003
-0.245881 0.467455 0.000000 0.016310
-0.204694 0.441087 0.000000 0.019786
-0.129852 0.309708 0.000000 0.037219
-0.100047 0.241048 0.000000 0.034812
-0.149832 0.297687 0.000000 0.049079
-0.107846 0.307974 0.000000 0.021519
-0.033960 0.074530 0.000000 0.006655
-0.070335 0.137058 0.000000 0.022110
-0.064508 0.161879 0.000000 0.023696
-0.035144 0.140731 0.000000 0.008951
-0.175153 0.309164 0.000000 0.015637
-0.165378 0.302908 0.000000 0.040279
-0.120197 0.216735 0.000000 0.028496
-0.122986 0.309147 0.000000 0.013335
-0.069874 0.227721 0.000000 0.016239
-0.074000 0.220042 0.000000 0.013301
-0.114711 0.306894 0.000000 0.022989
-0.109861 0.220822 0.000000 0.036564

SCALARS sigma float 4
LOOKUP_TABLE default
0.147742 1.226349 0.388725 -0.089241
0.045439 1.102753 0.323022 -0.150473
0.175278 2.668844 0.824722 -0.102080
-0.530115 0.955275 0.117961 0.041305
-0.175843 0.662754 0.135021 0.069956
-0.088634 2.364427 0.651716 -0.023294
-0.046695 0.969695 0.258226 -0.086352
-0.810680 0.667692 -0.039133 0.184567
-1.095311 4.649697 1.027538 -0.112172
-0.310433 3.806695 1.019034 -0.042726
-0.358106 3.684327 0.966255 -0.068509
-1.763926 3.305287 0.431079 0.137315
-0.749715 0.767813 0.004973 0.125894
-1.092493 2.114444 0.285096 0.161327
-1.041132 2.191370 0.321951 0.184432
-0.028713 2.511330 0.713940 -0.064371
-0.175843 0.662754 0.135021 -0.069956
-0.046695 0.969695 0.258226 0.086352
-0.088634 2.364427 0.651716 0.023294
-0.810680 0.667692 -0.039133 -0.184567
0.147742 1.226349 0.388725 0.089241
0.175278 2.668844 0.824722 0.102080
0.045439 1.102753 0.323022 0.150473
-0.530115 0.955275 0.117961 -0.041305
-1.095311 4.649697 1.027538 0.112172
-0.358106 3.684327 0.966255 0.068509
-0.310433 3.806695 1.019034 0.042726
-1.763926 3.305287 0.431079 -0.137315
-0.749715 0.767813 0.004973 -0.125894
-1.041132 2.191370 0.321951 -0.184432
-1.092493 2.114444 0.285096 -0.161327
-0.028713 2.511330 0.713940 0.064371
-0.219358 1.473318 0.354193 0.033433
-0.370351 2.976182 0.753636 -0.017706
-0.774706 2.415749 0.464652 -0.149965
0.379889 2.882332 0.955344 0.116082
-1.421503 4.766601 0.966534 -0.005642
-2.384181 4.309259 0.538314 -0.407906
-0.894328 4.007638 0.903446 -0.029054
-0.529221 5.018366 1.327734 0.190067
-3.262394 4.187257 0.252201 -0.091105
-1.804636 3.334910 0.428120 -0.262937
-2.957032 4.197396 0.340963 -0.406663
-1.066934 4.850149 1.097639 -0.020376
0.093098 4.135944 1.254957 0.165364
-0.793022 4.917455 1.207178 -0.012261
-0.102635 3.951930 1.131215 0.056522
-1.424352 3.531610 0.597671 -0.259004
-1.225943 5.218953 1.164295 0.060126
-2.838315 5.354929 0.702738 -0.055638
-1.869335 5.334047 0.991816 -0.253470
-2.922291 5.038634 0.588331 -0.278682
-2.378653 8.530820 1.816182 1.844985
-5.019147 6.310390 0.343123 0.599885
-4.487913 5.663282 0.315039 0.196309
-8.772968 5.771774 -0.722686 -0.007919
-2.552987 5.526160 0.836810 0.019444
-2.306884 5.432741 0.884730 -0.232147
-3.936805 5.893280 0.532716 -0.053554
-4.443113 5.001437 0.148873 -0.237675
-4.831595 5.354644 0.138436 -0.496212
-5.784567 5.442654 -0.088337 -0.307136
-4.059953 4.937768 0.236337 -0.388595
-3.665273 5.675436 0.550354 -0.163306
5.163293 9.560893 5.163293 0.593530
5.063894 9.423029 5.063894 0.388880
-2.595385 6.826084 1.201840 0.351403
-2.232860 6.960825 1.359392 1.933325
4.906754 9.202748 4.906754 0.000000
-0.746138 7.322031 1.965445 -0.148324
5.037902 9.386791 5.037902 0.191314
-0.679716 7.243056 1.965610 0.379118
-4.701956 5.201161 0.132452 -0.034074
-4.618690 5.810961 0.318654 -0.090079
-4.237137 6.008948 0.479063 -0.148461
-4.308786 5.887581 0.425675 -0.032031
-1.210882 7.085626 1.732859 1.129354
-3.935851 6.419624 0.679137 0.139990
-4.205207 6.397699 0.595172 0.471030
-1.196866 7.172439 1.763757 0.179486
4.906754 9.202748 4.906754 0.000000
5.037902 9.386791 5.037902 -0.191314
-0.746138 7.322031 1.965445 0.148324
-0.679716 7.243056 1.965610 -0.379118
5.163293 9.560893 5.163293 -0.593530
-2.595385 6.826084 1.201840 -0.351403
5.063894 9.423029 5.063894 -0.388880
-2.232860 6.960825 1.359392 -1.933325
-4.701956 5.201161 0.132452 0.034074
-4.237137 6.008948 0.479063 0.148461
-4.618690 5.810961 0.318654 0.090079
-4.308786 5.887581 0.425675 0.032031
-1.210882 7.085626 1.732859 -1.129354
-4.205207 6.397699 0.595172 -0.471030
-3.935851 6.419624 0.679137 -0.139990
-1.196866 7.172439 1.763757 -0.179486
-2.378653 8.530820 1.816182 -1.844985
-4.487913 5.663282 0.315039 -0.196309
-5.019147 6.310390 0.343123 -0.599885
-8.772968 5.771774 -0.722686 0.007919
-1.225943 5.218953 1.164295 -0.060126
-1.869335 5.334047 0.991816 0.253470
-2.838315 5.354929 0.702738 0.055638
-2.922291 5.038634 0.588331 0.278682
-2.552987 5.526160 0.836810 -0.019444
-3.936805 5.893280 0.532716 0.053554
-2.306884 5.432741 0.884730 0.232147
-4.443113 5.001437 0.148873 0.237675
-4.831595 5.354644 0.138436 0.496212
-4.059953 4.937768 0.236337 0.388595
-5.784567 5.442654 -0.088337 0.307136
-3.665273 5.675436 0.550354 0.163306
-1.421503 4.766601 0.966534 0.005642
-0.894328 4.007638 0.903446 0.029054
-2.384181 4.309259 0.538314 0.407906
-0.529221 5.018366 1.327734 -0.190067
-0.219358 1.473318 0.354193 -0.033433
-0.774706 2.415749 0.464652 0.149965
-0.370351 2.976182 0.753636 0.017706
0.379889 2.882332 0.955344 -0.116082
-3.262394 4.187257 0.252201 0.091105
-2.957032 4.197396 0.340963 0.406663
-1.804636 3.334910 0.428120 0.262937
-1.066934 4.850149 1.097639 0.020376
0.093098 4.135944 1.254957 -0.165364
-0.102635 3.951930 1.131215 -0.056522
-0.793022 4.917455 1.207178 0.012261
-1.424352 3.531610 0.597671 0.259004

