# vtk DataFile Version 2.0
Unstructured Grid Example
ASCII
DATASET UNSTRUCTURED_GRID

POINTS 9 float
0.033404 -0.401293 0.000000 
0.966596 -0.401293 0.000000 
1.000000 1.000000 0.000000 
0.000000 1.000000 0.000000 
0.500000 -0.365375 0.000000 
0.934903 0.224132 0.000000 
0.500000 1.000000 0.000000 
0.065097 0.224132 0.000000 
0.500000 0.211457 0.000000 

CELLS 8 32
3  0 4 8 
3  4 1 8 
3  1 5 8 
3  5 2 8 
3  2 6 8 
3  6 3 8 
3  3 7 8 
3  7 0 8 

CELL_TYPES 8
5
5
5
5
5
5
5
5

POINT_DATA 9

SCALARS u_h float 2
LOOKUP_TABLE default
0.033404 -0.401293 
-0.033404 -0.401293 
0.000000 0.000000 
0.000000 0.000000 
0.000000 -0.365375 
-0.065097 -0.275868 
0.000000 0.000000 
0.065097 -0.275868 
-0.000000 -0.288543 

CELL_DATA 8

SCALARS epsilon float 4
LOOKUP_TABLE default
-0.069029 0.144294 0.000000 0.030974
-0.069029 0.144294 0.000000 -0.030974
-0.135345 0.222340 0.000000 -0.025043
-0.136197 0.416809 0.000000 0.073442
0.000000 0.432867 0.000000 0.000000
0.000000 0.432867 0.000000 0.000000
-0.136197 0.416809 0.000000 -0.073442
-0.135345 0.222340 0.000000 0.025043

SCALARS sigma float 4
LOOKUP_TABLE default
-0.643929 2.527504 0.534249 0.547148
-0.643929 2.527504 0.534249 -0.547148
-2.325512 3.251974 0.255553 -0.260002
-0.894369 6.192919 1.562879 0.714577
4.328674 8.366308 4.328674 0.000000
4.328674 8.366308 4.328674 0.000000
-0.894369 6.192919 1.562879 -0.714577
-2.325512 3.251974 0.255553 0.260002

