# vtk DataFile Version 2.0
Unstructured Grid Example
ASCII
DATASET UNSTRUCTURED_GRID

POINTS 64 float
0.000000 0.000000 0.000000 
0.031250 0.000000 0.000000 
0.031250 0.000000 0.000000 
0.062500 0.000000 0.000000 
0.062500 0.000000 0.000000 
0.093750 0.000000 0.000000 
0.093750 0.000000 0.000000 
0.125000 0.000000 0.000000 
0.187500 0.000000 0.000000 
0.218750 0.000000 0.000000 
0.218750 0.000000 0.000000 
0.250000 0.000000 0.000000 
0.125000 0.000000 0.000000 
0.156250 0.000000 0.000000 
0.156250 0.000000 0.000000 
0.187500 0.000000 0.000000 
0.437500 -3.872164 0.000000 
0.468750 -3.684284 0.000000 
0.468750 -3.777275 0.000000 
0.500000 -3.686182 0.000000 
0.375000 -4.401478 0.000000 
0.406250 -3.708715 0.000000 
0.406250 -4.069735 0.000000 
0.437500 -3.679438 0.000000 
0.250000 11.011148 0.000000 
0.281250 -22.022297 0.000000 
0.281250 -16.391780 0.000000 
0.312500 -0.249885 0.000000 
0.312500 -6.655669 0.000000 
0.343750 -3.580212 0.000000 
0.343750 -5.040171 0.000000 
0.375000 -3.735750 0.000000 
0.500000 -3.686182 0.000000 
0.531250 -3.777275 0.000000 
0.531250 -3.684284 0.000000 
0.562500 -3.872164 0.000000 
0.562500 -3.679438 0.000000 
0.593750 -4.069735 0.000000 
0.593750 -3.708715 0.000000 
0.625000 -4.401478 0.000000 
0.687500 -0.249885 0.000000 
0.718750 -16.391780 0.000000 
0.718750 -22.022297 0.000000 
0.750000 11.011148 0.000000 
0.625000 -3.735750 0.000000 
0.656250 -5.040171 0.000000 
0.656250 -3.580212 0.000000 
0.687500 -6.655669 0.000000 
0.937500 0.000000 0.000000 
0.968750 0.000000 0.000000 
0.968750 0.000000 0.000000 
1.000000 0.000000 0.000000 
0.875000 0.000000 0.000000 
0.906250 0.000000 0.000000 
0.906250 0.000000 0.000000 
0.937500 0.000000 0.000000 
0.750000 0.000000 0.000000 
0.781250 0.000000 0.000000 
0.781250 0.000000 0.000000 
0.812500 0.000000 0.000000 
0.812500 0.000000 0.000000 
0.843750 0.000000 0.000000 
0.843750 0.000000 0.000000 
0.875000 0.000000 0.000000 

CELLS 32 96
2  0 1 
2  2 3 
2  4 5 
2  6 7 
2  8 9 
2  10 11 
2  12 13 
2  14 15 
2  16 17 
2  18 19 
2  20 21 
2  22 23 
2  24 25 
2  26 27 
2  28 29 
2  30 31 
2  32 33 
2  34 35 
2  36 37 
2  38 39 
2  40 41 
2  42 43 
2  44 45 
2  46 47 
2  48 49 
2  50 51 
2  52 53 
2  54 55 
2  56 57 
2  58 59 
2  60 61 
2  62 63 

CELL_TYPES 32
3
3
3
3
3
3
3
3
3
3
3
3
3
3
3
3
3
3
3
3
3
3
3
3
3
3
3
3
3
3
3
3

POINT_DATA 64

SCALARS lambda_h float 1
LOOKUP_TABLE default
0.000000 
0.000000 
0.000000 
0.000000 
0.000000 
0.000000 
0.000000 
0.000000 
0.000000 
0.000000 
0.000000 
0.000000 
0.000000 
0.000000 
0.000000 
0.000000 
-3.872164 
-3.684284 
-3.777275 
-3.686182 
-4.401478 
-3.708715 
-4.069735 
-3.679438 
11.011148 
-22.022297 
-16.391780 
-0.249885 
-6.655669 
-3.580212 
-5.040171 
-3.735750 
-3.686182 
-3.777275 
-3.684284 
-3.872164 
-3.679438 
-4.069735 
-3.708715 
-4.401478 
-0.249885 
-16.391780 
-22.022297 
11.011148 
-3.735750 
-5.040171 
-3.580212 
-6.655669 
0.000000 
0.000000 
0.000000 
0.000000 
0.000000 
0.000000 
0.000000 
0.000000 
0.000000 
0.000000 
0.000000 
0.000000 
0.000000 
0.000000 
0.000000 
0.000000 

