# vtk DataFile Version 2.0
Unstructured Grid Example
ASCII
DATASET UNSTRUCTURED_GRID

POINTS 128 float
0.000000 0.000000 0.000000 
0.015625 0.000000 0.000000 
0.015625 0.000000 0.000000 
0.031250 0.000000 0.000000 
0.031250 0.000000 0.000000 
0.046875 0.000000 0.000000 
0.046875 0.000000 0.000000 
0.062500 0.000000 0.000000 
0.093750 0.000000 0.000000 
0.109375 0.000000 0.000000 
0.109375 0.000000 0.000000 
0.125000 0.000000 0.000000 
0.062500 0.000000 0.000000 
0.078125 0.000000 0.000000 
0.078125 0.000000 0.000000 
0.093750 0.000000 0.000000 
0.218750 0.000000 0.000000 
0.234375 0.000000 0.000000 
0.234375 0.000000 0.000000 
0.250000 0.000000 0.000000 
0.187500 0.000000 0.000000 
0.203125 0.000000 0.000000 
0.203125 0.000000 0.000000 
0.218750 0.000000 0.000000 
0.125000 0.000000 0.000000 
0.140625 0.000000 0.000000 
0.140625 0.000000 0.000000 
0.156250 0.000000 0.000000 
0.156250 0.000000 0.000000 
0.171875 0.000000 0.000000 
0.171875 0.000000 0.000000 
0.187500 0.000000 0.000000 
0.468750 -3.707336 0.000000 
0.484375 -3.672034 0.000000 
0.484375 -3.703817 0.000000 
0.500000 -3.643771 0.000000 
0.437500 -3.791958 0.000000 
0.453125 -3.683262 0.000000 
0.453125 -3.743419 0.000000 
0.468750 -3.671643 0.000000 
0.375000 -4.192236 0.000000 
0.390625 -3.845120 0.000000 
0.390625 -4.048844 0.000000 
0.406250 -3.784788 0.000000 
0.406250 -3.939725 0.000000 
0.421875 -3.738969 0.000000 
0.421875 -3.856049 0.000000 
0.437500 -3.705565 0.000000 
0.250000 14.443963 0.000000 
0.265625 -28.887927 0.000000 
0.265625 -21.441690 0.000000 
0.281250 -0.448511 0.000000 
0.281250 -8.998856 0.000000 
0.296875 -4.341000 0.000000 
0.296875 -6.621505 0.000000 
0.312500 -4.437847 0.000000 
0.343750 -4.646479 0.000000 
0.359375 -4.021977 0.000000 
0.359375 -4.383758 0.000000 
0.375000 -3.922917 0.000000 
0.312500 -5.601058 0.000000 
0.328125 -4.295082 0.000000 
0.328125 -5.022504 0.000000 
0.343750 -4.146216 0.000000 
0.500000 -3.643771 0.000000 
0.515625 -3.703817 0.000000 
0.515625 -3.672034 0.000000 
0.531250 -3.707336 0.000000 
0.531250 -3.671643 0.000000 
0.546875 -3.743419 0.000000 
0.546875 -3.683262 0.000000 
0.562500 -3.791958 0.000000 
0.593750 -3.784788 0.000000 
0.609375 -4.048844 0.000000 
0.609375 -3.845120 0.000000 
0.625000 -4.192236 0.000000 
0.562500 -3.705565 0.000000 
0.578125 -3.856049 0.000000 
0.578125 -3.738969 0.000000 
0.593750 -3.939725 0.000000 
0.718750 -0.448511 0.000000 
0.734375 -21.441690 0.000000 
0.734375 -28.887927 0.000000 
0.750000 14.443963 0.000000 
0.687500 -4.437847 0.000000 
0.703125 -6.621505 0.000000 
0.703125 -4.341000 0.000000 
0.718750 -8.998856 0.000000 
0.625000 -3.922917 0.000000 
0.640625 -4.383758 0.000000 
0.640625 -4.021977 0.000000 
0.656250 -4.646479 0.000000 
0.656250 -4.146216 0.000000 
0.671875 -5.022504 0.000000 
0.671875 -4.295082 0.000000 
0.687500 -5.601058 0.000000 
0.968750 0.000000 0.000000 
0.984375 0.000000 0.000000 
0.984375 0.000000 0.000000 
1.000000 0.000000 0.000000 
0.937500 0.000000 0.000000 
0.953125 0.000000 0.000000 
0.953125 0.000000 0.000000 
0.968750 0.000000 0.000000 
0.875000 0.000000 0.000000 
0.890625 0.000000 0.000000 
0.890625 0.000000 0.000000 
0.906250 0.000000 0.000000 
0.906250 0.000000 0.000000 
0.921875 0.000000 0.000000 
0.921875 0.000000 0.000000 
0.937500 0.000000 0.000000 
0.750000 0.000000 0.000000 
0.765625 0.000000 0.000000 
0.765625 0.000000 0.000000 
0.781250 0.000000 0.000000 
0.781250 0.000000 0.000000 
0.796875 0.000000 0.000000 
0.796875 0.000000 0.000000 
0.812500 0.000000 0.000000 
0.843750 0.000000 0.000000 
0.859375 0.000000 0.000000 
0.859375 0.000000 0.000000 
0.875000 0.000000 0.000000 
0.812500 0.000000 0.000000 
0.828125 0.000000 0.000000 
0.828125 0.000000 0.000000 
0.843750 0.000000 0.000000 

CELLS 64 192
2  0 1 
2  2 3 
2  4 5 
2  6 7 
2  8 9 
2  10 11 
2  12 13 
2  14 15 
2  16 17 
2  18 19 
2  20 21 
2  22 23 
2  24 25 
2  26 27 
2  28 29 
2  30 31 
2  32 33 
2  34 35 
2  36 37 
2  38 39 
2  40 41 
2  42 43 
2  44 45 
2  46 47 
2  48 49 
2  50 51 
2  52 53 
2  54 55 
2  56 57 
2  58 59 
2  60 61 
2  62 63 
2  64 65 
2  66 67 
2  68 69 
2  70 71 
2  72 73 
2  74 75 
2  76 77 
2  78 79 
2  80 81 
2  82 83 
2  84 85 
2  86 87 
2  88 89 
2  90 91 
2  92 93 
2  94 95 
2  96 97 
2  98 99 
2  100 101 
2  102 103 
2  104 105 
2  106 107 
2  108 109 
2  110 111 
2  112 113 
2  114 115 
2  116 117 
2  118 119 
2  120 121 
2  122 123 
2  124 125 
2  126 127 

CELL_TYPES 64
3
3
3
3
3
3
3
3
3
3
3
3
3
3
3
3
3
3
3
3
3
3
3
3
3
3
3
3
3
3
3
3
3
3
3
3
3
3
3
3
3
3
3
3
3
3
3
3
3
3
3
3
3
3
3
3
3
3
3
3
3
3
3
3

POINT_DATA 128

SCALARS lambda_h float 1
LOOKUP_TABLE default
0.000000 
0.000000 
0.000000 
0.000000 
0.000000 
0.000000 
0.000000 
0.000000 
0.000000 
0.000000 
0.000000 
0.000000 
0.000000 
0.000000 
0.000000 
0.000000 
0.000000 
0.000000 
0.000000 
0.000000 
0.000000 
0.000000 
0.000000 
0.000000 
0.000000 
0.000000 
0.000000 
0.000000 
0.000000 
0.000000 
0.000000 
0.000000 
-3.707336 
-3.672034 
-3.703817 
-3.643771 
-3.791958 
-3.683262 
-3.743419 
-3.671643 
-4.192236 
-3.845120 
-4.048844 
-3.784788 
-3.939725 
-3.738969 
-3.856049 
-3.705565 
14.443963 
-28.887927 
-21.441690 
-0.448511 
-8.998856 
-4.341000 
-6.621505 
-4.437847 
-4.646479 
-4.021977 
-4.383758 
-3.922917 
-5.601058 
-4.295082 
-5.022504 
-4.146216 
-3.643771 
-3.703817 
-3.672034 
-3.707336 
-3.671643 
-3.743419 
-3.683262 
-3.791958 
-3.784788 
-4.048844 
-3.845120 
-4.192236 
-3.705565 
-3.856049 
-3.738969 
-3.939725 
-0.448511 
-21.441690 
-28.887927 
14.443963 
-4.437847 
-6.621505 
-4.341000 
-8.998856 
-3.922917 
-4.383758 
-4.021977 
-4.646479 
-4.146216 
-5.022504 
-4.295082 
-5.601058 
0.000000 
0.000000 
0.000000 
0.000000 
0.000000 
0.000000 
0.000000 
0.000000 
0.000000 
0.000000 
0.000000 
0.000000 
0.000000 
0.000000 
0.000000 
0.000000 
0.000000 
0.000000 
0.000000 
0.000000 
0.000000 
0.000000 
0.000000 
0.000000 
0.000000 
0.000000 
0.000000 
0.000000 
0.000000 
0.000000 
0.000000 
0.000000 

