# vtk DataFile Version 2.0
Unstructured Grid Example
ASCII
DATASET UNSTRUCTURED_GRID

POINTS 256 float
0.000000 0.000000 0.000000 
0.007812 0.000000 0.000000 
0.007812 0.000000 0.000000 
0.015625 0.000000 0.000000 
0.015625 0.000000 0.000000 
0.023438 0.000000 0.000000 
0.023438 0.000000 0.000000 
0.031250 0.000000 0.000000 
0.046875 0.000000 0.000000 
0.054688 0.000000 0.000000 
0.054688 0.000000 0.000000 
0.062500 0.000000 0.000000 
0.031250 0.000000 0.000000 
0.039062 0.000000 0.000000 
0.039062 0.000000 0.000000 
0.046875 0.000000 0.000000 
0.109375 0.000000 0.000000 
0.117188 0.000000 0.000000 
0.117188 0.000000 0.000000 
0.125000 0.000000 0.000000 
0.093750 0.000000 0.000000 
0.101562 0.000000 0.000000 
0.101562 0.000000 0.000000 
0.109375 0.000000 0.000000 
0.062500 0.000000 0.000000 
0.070312 0.000000 0.000000 
0.070312 0.000000 0.000000 
0.078125 0.000000 0.000000 
0.078125 0.000000 0.000000 
0.085938 0.000000 0.000000 
0.085938 0.000000 0.000000 
0.093750 0.000000 0.000000 
0.234375 0.000000 0.000000 
0.242188 0.000000 0.000000 
0.242188 0.000000 0.000000 
0.250000 0.000000 0.000000 
0.218750 0.000000 0.000000 
0.226562 0.000000 0.000000 
0.226562 0.000000 0.000000 
0.234375 0.000000 0.000000 
0.187500 0.000000 0.000000 
0.195312 0.000000 0.000000 
0.195312 0.000000 0.000000 
0.203125 0.000000 0.000000 
0.203125 0.000000 0.000000 
0.210938 0.000000 0.000000 
0.210938 0.000000 0.000000 
0.218750 0.000000 0.000000 
0.125000 0.000000 0.000000 
0.132812 0.000000 0.000000 
0.132812 0.000000 0.000000 
0.140625 0.000000 0.000000 
0.140625 0.000000 0.000000 
0.148438 0.000000 0.000000 
0.148438 0.000000 0.000000 
0.156250 0.000000 0.000000 
0.171875 0.000000 0.000000 
0.179688 0.000000 0.000000 
0.179688 0.000000 0.000000 
0.187500 0.000000 0.000000 
0.156250 0.000000 0.000000 
0.164062 0.000000 0.000000 
0.164062 0.000000 0.000000 
0.171875 0.000000 0.000000 
0.484375 -3.657407 0.000000 
0.492188 -3.649921 0.000000 
0.492188 -3.663894 0.000000 
0.500000 -3.629462 0.000000 
0.468750 -3.675375 0.000000 
0.476562 -3.652420 0.000000 
0.476562 -3.665232 0.000000 
0.484375 -3.649752 0.000000 
0.437500 -3.742916 0.000000 
0.445312 -3.687699 0.000000 
0.445312 -3.721585 0.000000 
0.453125 -3.675144 0.000000 
0.453125 -3.703371 0.000000 
0.460938 -3.665132 0.000000 
0.460938 -3.688032 0.000000 
0.468750 -3.657569 0.000000 
0.375000 -4.078704 0.000000 
0.382812 -3.907256 0.000000 
0.382812 -4.014207 0.000000 
0.390625 -3.864803 0.000000 
0.390625 -3.958082 0.000000 
0.398438 -3.827647 0.000000 
0.398438 -3.909106 0.000000 
0.406250 -3.795165 0.000000 
0.421875 -3.796159 0.000000 
0.429688 -3.721044 0.000000 
0.429688 -3.767655 0.000000 
0.437500 -3.702938 0.000000 
0.406250 -3.866298 0.000000 
0.414062 -3.766840 0.000000 
0.414062 -3.828864 0.000000 
0.421875 -3.742249 0.000000 
0.250000 18.775238 0.000000 
0.257812 -37.550477 0.000000 
0.257812 -27.389123 0.000000 
0.265625 -1.547468 0.000000 
0.265625 -12.408205 0.000000 
0.273438 -5.667650 0.000000 
0.273438 -9.016929 0.000000 
0.281250 -5.709645 0.000000 
0.296875 -6.001995 0.000000 
0.304688 -4.937293 0.000000 
0.304688 -5.566222 0.000000 
0.312500 -4.744138 0.000000 
0.281250 -7.498592 0.000000 
0.289062 -5.439036 0.000000 
0.289062 -6.604015 0.000000 
0.296875 -5.168634 0.000000 
0.359375 -4.239430 0.000000 
0.367188 -4.011291 0.000000 
0.367188 -4.153120 0.000000 
0.375000 -3.955772 0.000000 
0.343750 -4.458818 0.000000 
0.351562 -4.148278 0.000000 
0.351562 -4.340199 0.000000 
0.359375 -4.074976 0.000000 
0.312500 -5.235901 0.000000 
0.320312 -4.582696 0.000000 
0.320312 -4.977238 0.000000 
0.328125 -4.446816 0.000000 
0.328125 -4.769663 0.000000 
0.335938 -4.331543 0.000000 
0.335938 -4.599862 0.000000 
0.343750 -4.233025 0.000000 
0.500000 -3.629462 0.000000 
0.507812 -3.663894 0.000000 
0.507812 -3.649921 0.000000 
0.515625 -3.657407 0.000000 
0.515625 -3.649752 0.000000 
0.523438 -3.665232 0.000000 
0.523438 -3.652420 0.000000 
0.531250 -3.675375 0.000000 
0.546875 -3.675144 0.000000 
0.554688 -3.721585 0.000000 
0.554688 -3.687699 0.000000 
0.562500 -3.742916 0.000000 
0.531250 -3.657569 0.000000 
0.539062 -3.688032 0.000000 
0.539062 -3.665132 0.000000 
0.546875 -3.703371 0.000000 
0.609375 -3.864803 0.000000 
0.617188 -4.014207 0.000000 
0.617188 -3.907256 0.000000 
0.625000 -4.078704 0.000000 
0.593750 -3.795165 0.000000 
0.601562 -3.909106 0.000000 
0.601562 -3.827647 0.000000 
0.609375 -3.958082 0.000000 
0.562500 -3.702938 0.000000 
0.570312 -3.767655 0.000000 
0.570312 -3.721044 0.000000 
0.578125 -3.796159 0.000000 
0.578125 -3.742249 0.000000 
0.585938 -3.828864 0.000000 
0.585938 -3.766840 0.000000 
0.593750 -3.866298 0.000000 
0.734375 -1.547468 0.000000 
0.742188 -27.389123 0.000000 
0.742188 -37.550477 0.000000 
0.750000 18.775238 0.000000 
0.718750 -5.709645 0.000000 
0.726562 -9.016929 0.000000 
0.726562 -5.667650 0.000000 
0.734375 -12.408205 0.000000 
0.687500 -4.744138 0.000000 
0.695312 -5.566222 0.000000 
0.695312 -4.937293 0.000000 
0.703125 -6.001995 0.000000 
0.703125 -5.168634 0.000000 
0.710938 -6.604015 0.000000 
0.710938 -5.439036 0.000000 
0.718750 -7.498592 0.000000 
0.625000 -3.955772 0.000000 
0.632812 -4.153120 0.000000 
0.632812 -4.011291 0.000000 
0.640625 -4.239430 0.000000 
0.640625 -4.074976 0.000000 
0.648438 -4.340199 0.000000 
0.648438 -4.148278 0.000000 
0.656250 -4.458818 0.000000 
0.671875 -4.446816 0.000000 
0.679688 -4.977238 0.000000 
0.679688 -4.582696 0.000000 
0.687500 -5.235901 0.000000 
0.656250 -4.233025 0.000000 
0.664062 -4.599862 0.000000 
0.664062 -4.331543 0.000000 
0.671875 -4.769663 0.000000 
0.984375 0.000000 0.000000 
0.992188 0.000000 0.000000 
0.992188 0.000000 0.000000 
1.000000 0.000000 0.000000 
0.968750 0.000000 0.000000 
0.976562 0.000000 0.000000 
0.976562 0.000000 0.000000 
0.984375 0.000000 0.000000 
0.937500 0.000000 0.000000 
0.945312 0.000000 0.000000 
0.945312 0.000000 0.000000 
0.953125 0.000000 0.000000 
0.953125 0.000000 0.000000 
0.960938 0.000000 0.000000 
0.960938 0.000000 0.000000 
0.968750 0.000000 0.000000 
0.875000 0.000000 0.000000 
0.882812 0.000000 0.000000 
0.882812 0.000000 0.000000 
0.890625 0.000000 0.000000 
0.890625 0.000000 0.000000 
0.898438 0.000000 0.000000 
0.898438 0.000000 0.000000 
0.906250 0.000000 0.000000 
0.921875 0.000000 0.000000 
0.929688 0.000000 0.000000 
0.929688 0.000000 0.000000 
0.937500 0.000000 0.000000 
0.906250 0.000000 0.000000 
0.914062 0.000000 0.000000 
0.914062 0.000000 0.000000 
0.921875 0.000000 0.000000 
0.750000 0.000000 0.000000 
0.757812 0.000000 0.000000 
0.757812 0.000000 0.000000 
0.765625 0.000000 0.000000 
0.765625 0.000000 0.000000 
0.773438 0.000000 0.000000 
0.773438 0.000000 0.000000 
0.781250 0.000000 0.000000 
0.796875 0.000000 0.000000 
0.804688 0.000000 0.000000 
0.804688 0.000000 0.000000 
0.812500 0.000000 0.000000 
0.781250 0.000000 0.000000 
0.789062 0.000000 0.000000 
0.789062 0.000000 0.000000 
0.796875 0.000000 0.000000 
0.859375 0.000000 0.000000 
0.867188 0.000000 0.000000 
0.867188 0.000000 0.000000 
0.875000 0.000000 0.000000 
0.843750 0.000000 0.000000 
0.851562 0.000000 0.000000 
0.851562 0.000000 0.000000 
0.859375 0.000000 0.000000 
0.812500 0.000000 0.000000 
0.820312 0.000000 0.000000 
0.820312 0.000000 0.000000 
0.828125 0.000000 0.000000 
0.828125 0.000000 0.000000 
0.835938 0.000000 0.000000 
0.835938 0.000000 0.000000 
0.843750 0.000000 0.000000 

CELLS 128 384
2  0 1 
2  2 3 
2  4 5 
2  6 7 
2  8 9 
2  10 11 
2  12 13 
2  14 15 
2  16 17 
2  18 19 
2  20 21 
2  22 23 
2  24 25 
2  26 27 
2  28 29 
2  30 31 
2  32 33 
2  34 35 
2  36 37 
2  38 39 
2  40 41 
2  42 43 
2  44 45 
2  46 47 
2  48 49 
2  50 51 
2  52 53 
2  54 55 
2  56 57 
2  58 59 
2  60 61 
2  62 63 
2  64 65 
2  66 67 
2  68 69 
2  70 71 
2  72 73 
2  74 75 
2  76 77 
2  78 79 
2  80 81 
2  82 83 
2  84 85 
2  86 87 
2  88 89 
2  90 91 
2  92 93 
2  94 95 
2  96 97 
2  98 99 
2  100 101 
2  102 103 
2  104 105 
2  106 107 
2  108 109 
2  110 111 
2  112 113 
2  114 115 
2  116 117 
2  118 119 
2  120 121 
2  122 123 
2  124 125 
2  126 127 
2  128 129 
2  130 131 
2  132 133 
2  134 135 
2  136 137 
2  138 139 
2  140 141 
2  142 143 
2  144 145 
2  146 147 
2  148 149 
2  150 151 
2  152 153 
2  154 155 
2  156 157 
2  158 159 
2  160 161 
2  162 163 
2  164 165 
2  166 167 
2  168 169 
2  170 171 
2  172 173 
2  174 175 
2  176 177 
2  178 179 
2  180 181 
2  182 183 
2  184 185 
2  186 187 
2  188 189 
2  190 191 
2  192 193 
2  194 195 
2  196 197 
2  198 199 
2  200 201 
2  202 203 
2  204 205 
2  206 207 
2  208 209 
2  210 211 
2  212 213 
2  214 215 
2  216 217 
2  218 219 
2  220 221 
2  222 223 
2  224 225 
2  226 227 
2  228 229 
2  230 231 
2  232 233 
2  234 235 
2  236 237 
2  238 239 
2  240 241 
2  242 243 
2  244 245 
2  246 247 
2  248 249 
2  250 251 
2  252 253 
2  254 255 

CELL_TYPES 128
3
3
3
3
3
3
3
3
3
3
3
3
3
3
3
3
3
3
3
3
3
3
3
3
3
3
3
3
3
3
3
3
3
3
3
3
3
3
3
3
3
3
3
3
3
3
3
3
3
3
3
3
3
3
3
3
3
3
3
3
3
3
3
3
3
3
3
3
3
3
3
3
3
3
3
3
3
3
3
3
3
3
3
3
3
3
3
3
3
3
3
3
3
3
3
3
3
3
3
3
3
3
3
3
3
3
3
3
3
3
3
3
3
3
3
3
3
3
3
3
3
3
3
3
3
3
3
3

POINT_DATA 256

SCALARS lambda_h float 1
LOOKUP_TABLE default
0.000000 
0.000000 
0.000000 
0.000000 
0.000000 
0.000000 
0.000000 
0.000000 
0.000000 
0.000000 
0.000000 
0.000000 
0.000000 
0.000000 
0.000000 
0.000000 
0.000000 
0.000000 
0.000000 
0.000000 
0.000000 
0.000000 
0.000000 
0.000000 
0.000000 
0.000000 
0.000000 
0.000000 
0.000000 
0.000000 
0.000000 
0.000000 
0.000000 
0.000000 
0.000000 
0.000000 
0.000000 
0.000000 
0.000000 
0.000000 
0.000000 
0.000000 
0.000000 
0.000000 
0.000000 
0.000000 
0.000000 
0.000000 
0.000000 
0.000000 
0.000000 
0.000000 
0.000000 
0.000000 
0.000000 
0.000000 
0.000000 
0.000000 
0.000000 
0.000000 
0.000000 
0.000000 
0.000000 
0.000000 
-3.657407 
-3.649921 
-3.663894 
-3.629462 
-3.675375 
-3.652420 
-3.665232 
-3.649752 
-3.742916 
-3.687699 
-3.721585 
-3.675144 
-3.703371 
-3.665132 
-3.688032 
-3.657569 
-4.078704 
-3.907256 
-4.014207 
-3.864803 
-3.958082 
-3.827647 
-3.909106 
-3.795165 
-3.796159 
-3.721044 
-3.767655 
-3.702938 
-3.866298 
-3.766840 
-3.828864 
-3.742249 
18.775238 
-37.550477 
-27.389123 
-1.547468 
-12.408205 
-5.667650 
-9.016929 
-5.709645 
-6.001995 
-4.937293 
-5.566222 
-4.744138 
-7.498592 
-5.439036 
-6.604015 
-5.168634 
-4.239430 
-4.011291 
-4.153120 
-3.955772 
-4.458818 
-4.148278 
-4.340199 
-4.074976 
-5.235901 
-4.582696 
-4.977238 
-4.446816 
-4.769663 
-4.331543 
-4.599862 
-4.233025 
-3.629462 
-3.663894 
-3.649921 
-3.657407 
-3.649752 
-3.665232 
-3.652420 
-3.675375 
-3.675144 
-3.721585 
-3.687699 
-3.742916 
-3.657569 
-3.688032 
-3.665132 
-3.703371 
-3.864803 
-4.014207 
-3.907256 
-4.078704 
-3.795165 
-3.909106 
-3.827647 
-3.958082 
-3.702938 
-3.767655 
-3.721044 
-3.796159 
-3.742249 
-3.828864 
-3.766840 
-3.866298 
-1.547468 
-27.389123 
-37.550477 
18.775238 
-5.709645 
-9.016929 
-5.667650 
-12.408205 
-4.744138 
-5.566222 
-4.937293 
-6.001995 
-5.168634 
-6.604015 
-5.439036 
-7.498592 
-3.955772 
-4.153120 
-4.011291 
-4.239430 
-4.074976 
-4.340199 
-4.148278 
-4.458818 
-4.446816 
-4.977238 
-4.582696 
-5.235901 
-4.233025 
-4.599862 
-4.331543 
-4.769663 
0.000000 
0.000000 
0.000000 
0.000000 
0.000000 
0.000000 
0.000000 
0.000000 
0.000000 
0.000000 
0.000000 
0.000000 
0.000000 
0.000000 
0.000000 
0.000000 
0.000000 
0.000000 
0.000000 
0.000000 
0.000000 
0.000000 
0.000000 
0.000000 
0.000000 
0.000000 
0.000000 
0.000000 
0.000000 
0.000000 
0.000000 
0.000000 
0.000000 
0.000000 
0.000000 
0.000000 
0.000000 
0.000000 
0.000000 
0.000000 
0.000000 
0.000000 
0.000000 
0.000000 
0.000000 
0.000000 
0.000000 
0.000000 
0.000000 
0.000000 
0.000000 
0.000000 
0.000000 
0.000000 
0.000000 
0.000000 
0.000000 
0.000000 
0.000000 
0.000000 
0.000000 
0.000000 
0.000000 
0.000000 

