# vtk DataFile Version 2.0
Unstructured Grid Example
ASCII
DATASET UNSTRUCTURED_GRID

POINTS 81 float
0.016360 -0.178733 0.000000 
0.983640 -0.178733 0.000000 
1.000000 1.000000 0.000000 
0.000000 1.000000 0.000000 
0.500000 -0.100000 0.000000 
0.977996 0.372773 0.000000 
0.500000 1.000000 0.000000 
0.022004 0.372773 0.000000 
0.500000 0.376463 0.000000 
0.264645 -0.145899 0.000000 
0.500000 0.124120 0.000000 
0.247692 0.101864 0.000000 
0.735355 -0.145899 0.000000 
0.752308 0.101864 0.000000 
0.994340 0.087864 0.000000 
0.742061 0.371612 0.000000 
0.962566 0.668450 0.000000 
0.734023 0.672601 0.000000 
0.750000 1.000000 0.000000 
0.500000 0.675856 0.000000 
0.250000 1.000000 0.000000 
0.265977 0.672601 0.000000 
0.037434 0.668450 0.000000 
0.257939 0.371612 0.000000 
0.005660 0.087864 0.000000 
0.140655 -0.167434 0.000000 
0.250179 -0.024184 0.000000 
0.128477 -0.040880 0.000000 
0.500000 0.011059 0.000000 
0.372952 0.002882 0.000000 
0.386585 -0.100000 0.000000 
0.374133 0.242402 0.000000 
0.371782 0.118034 0.000000 
0.500000 0.245551 0.000000 
0.613415 -0.100000 0.000000 
0.627048 0.002882 0.000000 
0.871523 -0.040880 0.000000 
0.749821 -0.024184 0.000000 
0.859345 -0.167434 0.000000 
0.628218 0.118034 0.000000 
0.625867 0.242402 0.000000 
0.993515 -0.048651 0.000000 
0.873961 0.090572 0.000000 
0.860475 0.368440 0.000000 
0.869167 0.226855 0.000000 
0.987939 0.228604 0.000000 
0.748667 0.233260 0.000000 
0.622025 0.376503 0.000000 
0.968831 0.518149 0.000000 
0.852556 0.515469 0.000000 
0.854668 0.833735 0.000000 
0.848409 0.669881 0.000000 
0.965308 0.825891 0.000000 
0.736169 0.517740 0.000000 
0.618390 0.520644 0.000000 
0.875000 1.000000 0.000000 
0.738194 0.834864 0.000000 
0.500000 0.836363 0.000000 
0.619566 0.835446 0.000000 
0.625000 1.000000 0.000000 
0.617510 0.674503 0.000000 
0.500000 0.521835 0.000000 
0.375000 1.000000 0.000000 
0.380434 0.835446 0.000000 
0.145332 0.833735 0.000000 
0.261806 0.834864 0.000000 
0.125000 1.000000 0.000000 
0.382490 0.674503 0.000000 
0.381610 0.520644 0.000000 
0.034692 0.825891 0.000000 
0.151591 0.669881 0.000000 
0.139525 0.368440 0.000000 
0.147444 0.515469 0.000000 
0.031169 0.518149 0.000000 
0.263831 0.517740 0.000000 
0.377975 0.376503 0.000000 
0.012061 0.228604 0.000000 
0.130833 0.226855 0.000000 
0.126039 0.090572 0.000000 
0.006485 -0.048651 0.000000 
0.251333 0.233260 0.000000 

CELLS 128 512
3  0 25 27 
3  9 26 25 
3  11 27 26 
3  25 26 27 
3  4 28 30 
3  10 29 28 
3  9 30 29 
3  28 29 30 
3  8 31 33 
3  11 32 31 
3  10 33 32 
3  31 32 33 
3  9 29 26 
3  10 32 29 
3  11 26 32 
3  29 32 26 
3  4 34 28 
3  12 35 34 
3  10 28 35 
3  34 35 28 
3  1 36 38 
3  13 37 36 
3  12 38 37 
3  36 37 38 
3  8 33 40 
3  10 39 33 
3  13 40 39 
3  33 39 40 
3  12 37 35 
3  13 39 37 
3  10 35 39 
3  37 39 35 
3  1 41 36 
3  14 42 41 
3  13 36 42 
3  41 42 36 
3  5 43 45 
3  15 44 43 
3  14 45 44 
3  43 44 45 
3  8 40 47 
3  13 46 40 
3  15 47 46 
3  40 46 47 
3  14 44 42 
3  15 46 44 
3  13 42 46 
3  44 46 42 
3  5 48 43 
3  16 49 48 
3  15 43 49 
3  48 49 43 
3  2 50 52 
3  17 51 50 
3  16 52 51 
3  50 51 52 
3  8 47 54 
3  15 53 47 
3  17 54 53 
3  47 53 54 
3  16 51 49 
3  17 53 51 
3  15 49 53 
3  51 53 49 
3  2 55 50 
3  18 56 55 
3  17 50 56 
3  55 56 50 
3  6 57 59 
3  19 58 57 
3  18 59 58 
3  57 58 59 
3  8 54 61 
3  17 60 54 
3  19 61 60 
3  54 60 61 
3  18 58 56 
3  19 60 58 
3  17 56 60 
3  58 60 56 
3  6 62 57 
3  20 63 62 
3  19 57 63 
3  62 63 57 
3  3 64 66 
3  21 65 64 
3  20 66 65 
3  64 65 66 
3  8 61 68 
3  19 67 61 
3  21 68 67 
3  61 67 68 
3  20 65 63 
3  21 67 65 
3  19 63 67 
3  65 67 63 
3  3 69 64 
3  22 70 69 
3  21 64 70 
3  69 70 64 
3  7 71 73 
3  23 72 71 
3  22 73 72 
3  71 72 73 
3  8 68 75 
3  21 74 68 
3  23 75 74 
3  68 74 75 
3  22 72 70 
3  23 74 72 
3  21 70 74 
3  72 74 70 
3  7 76 71 
3  24 77 76 
3  23 71 77 
3  76 77 71 
3  0 27 79 
3  11 78 27 
3  24 79 78 
3  27 78 79 
3  8 75 31 
3  23 80 75 
3  11 31 80 
3  75 80 31 
3  24 78 77 
3  11 80 78 
3  23 77 80 
3  78 80 77 

CELL_TYPES 128
5
5
5
5
5
5
5
5
5
5
5
5
5
5
5
5
5
5
5
5
5
5
5
5
5
5
5
5
5
5
5
5
5
5
5
5
5
5
5
5
5
5
5
5
5
5
5
5
5
5
5
5
5
5
5
5
5
5
5
5
5
5
5
5
5
5
5
5
5
5
5
5
5
5
5
5
5
5
5
5
5
5
5
5
5
5
5
5
5
5
5
5
5
5
5
5
5
5
5
5
5
5
5
5
5
5
5
5
5
5
5
5
5
5
5
5
5
5
5
5
5
5
5
5
5
5
5
5

POINT_DATA 81

SCALARS u_h float 2
LOOKUP_TABLE default
0.016360 -0.178733 
-0.016360 -0.178733 
0.000000 0.000000 
0.000000 0.000000 
-0.000000 -0.100000 
-0.022004 -0.127227 
0.000000 0.000000 
0.022004 -0.127227 
-0.000000 -0.123537 
0.014645 -0.145899 
-0.000000 -0.125880 
-0.002308 -0.148136 
-0.014645 -0.145899 
0.002308 -0.148136 
-0.005660 -0.162136 
-0.007939 -0.128388 
-0.037434 -0.081550 
-0.015977 -0.077399 
0.000000 0.000000 
0.000000 -0.074144 
0.000000 0.000000 
0.015977 -0.077399 
0.037434 -0.081550 
0.007939 -0.128388 
0.005660 -0.162136 
0.015655 -0.167434 
0.000179 -0.149184 
0.003477 -0.165880 
-0.000000 -0.113941 
-0.002048 -0.122118 
0.011585 -0.100000 
-0.000867 -0.132598 
-0.003218 -0.131966 
-0.000000 -0.129449 
-0.011585 -0.100000 
0.002048 -0.122118 
-0.003477 -0.165880 
-0.000179 -0.149184 
-0.015655 -0.167434 
0.003218 -0.131966 
0.000867 -0.132598 
-0.006485 -0.173651 
-0.001039 -0.159428 
-0.014525 -0.131560 
-0.005833 -0.148145 
-0.012061 -0.146396 
-0.001333 -0.141740 
-0.002975 -0.123497 
-0.031169 -0.106851 
-0.022444 -0.109531 
-0.020332 -0.041265 
-0.026591 -0.080119 
-0.034692 -0.049109 
-0.013831 -0.107260 
-0.006610 -0.104356 
0.000000 0.000000 
-0.011806 -0.040136 
-0.000000 -0.038637 
-0.005434 -0.039554 
0.000000 0.000000 
-0.007490 -0.075497 
-0.000000 -0.103165 
0.000000 0.000000 
0.005434 -0.039554 
0.020332 -0.041265 
0.011806 -0.040136 
0.000000 0.000000 
0.007490 -0.075497 
0.006610 -0.104356 
0.034692 -0.049109 
0.026591 -0.080119 
0.014525 -0.131560 
0.022444 -0.109531 
0.031169 -0.106851 
0.013831 -0.107260 
0.002975 -0.123497 
0.012061 -0.146396 
0.005833 -0.148145 
0.001039 -0.159428 
0.006485 -0.173651 
0.001333 -0.141740 

CELL_DATA 128

SCALARS epsilon float 4
LOOKUP_TABLE default
0.007658 0.025028 0.000000 -0.004326
0.019207 0.009076 0.000000 0.030120
-0.023825 0.020253 0.000000 0.055971
-0.008864 0.034412 0.000000 0.015951
-0.096931 -0.117650 0.000000 0.000000
0.016251 -0.097491 0.000000 0.036154
0.032256 -0.050024 0.000000 0.168425
0.033097 -0.180754 0.000000 -0.011687
0.006914 0.046462 0.000000 0.012026
-0.009584 0.001089 0.000000 0.074472
0.025409 -0.027762 0.000000 0.025044
0.006617 -0.005220 0.000000 0.021995
0.014833 0.023572 0.000000 0.052262
0.025940 -0.080058 0.000000 0.021882
-0.004536 0.019219 0.000000 0.054118
-0.015691 -0.051138 0.000000 0.112760
-0.096931 -0.117650 0.000000 -0.000000
0.032256 -0.050024 0.000000 -0.168425
0.016251 -0.097491 0.000000 -0.036154
0.033097 -0.180754 0.000000 0.011687
0.007658 0.025028 0.000000 0.004326
-0.023825 0.020253 0.000000 -0.055971
0.019207 0.009076 0.000000 -0.030120
-0.008864 0.034412 0.000000 -0.015951
0.006914 0.046462 0.000000 -0.012026
0.025409 -0.027762 0.000000 -0.025044
-0.009584 0.001089 0.000000 -0.074472
0.006617 -0.005220 0.000000 -0.021995
0.014833 0.023572 0.000000 -0.052262
-0.004536 0.019219 0.000000 -0.054118
0.025940 -0.080058 0.000000 -0.021882
-0.015691 -0.051138 0.000000 -0.112760
-0.016534 0.046504 0.000000 0.010537
-0.037497 0.088257 0.000000 -0.006503
-0.025238 0.055885 0.000000 -0.032925
-0.022991 0.053296 0.000000 -0.019575
-0.056404 0.144798 0.000000 -0.026561
-0.053610 0.122656 0.000000 -0.047377
-0.049251 0.118839 0.000000 -0.020405
-0.048078 0.124975 0.000000 -0.029925
-0.023641 0.070175 0.000000 -0.015521
-0.019420 0.050320 0.000000 -0.049569
-0.041204 0.099913 0.000000 -0.044914
-0.019462 0.070459 0.000000 -0.049650
-0.037774 0.085644 0.000000 -0.029695
-0.037950 0.099804 0.000000 -0.050277
-0.029304 0.051211 0.000000 -0.057861
-0.037846 0.085551 0.000000 -0.043220
-0.057061 0.152762 0.000000 -0.023359
-0.070265 0.183619 0.000000 -0.017304
-0.053895 0.159898 0.000000 -0.043446
-0.069317 0.162453 0.000000 -0.024208
-0.082907 0.335967 0.000000 0.121172
-0.086719 0.266260 0.000000 0.017581
-0.090074 0.227540 0.000000 0.006995
-0.117778 0.269245 0.000000 0.003114
-0.023739 0.141617 0.000000 -0.014496
-0.041258 0.154043 0.000000 -0.040744
-0.059657 0.211283 0.000000 -0.018111
-0.059686 0.141227 0.000000 -0.025196
-0.090373 0.208349 0.000000 -0.022102
-0.088701 0.211281 0.000000 -0.017739
-0.071107 0.154412 0.000000 -0.032517
-0.071368 0.208242 0.000000 -0.024489
0.007477 0.278985 0.000000 0.076320
0.002556 0.272582 0.000000 0.044434
-0.069899 0.256280 0.000000 0.013499
-0.060757 0.280123 0.000000 0.078491
0.000000 0.263991 0.000000 0.000000
-0.044413 0.245705 0.000000 -0.002850
0.000545 0.269261 0.000000 0.020479
-0.043564 0.269517 0.000000 0.018628
-0.054277 0.149992 0.000000 -0.004084
-0.070265 0.205159 0.000000 -0.009788
-0.061705 0.206217 0.000000 -0.004373
-0.054316 0.205139 0.000000 -0.007441
-0.049087 0.272918 0.000000 0.045059
-0.061466 0.248444 0.000000 0.004126
-0.069394 0.256492 0.000000 0.011124
-0.052119 0.248331 0.000000 0.006432
0.000000 0.263991 0.000000 0.000000
0.000545 0.269261 0.000000 -0.020479
-0.044413 0.245705 0.000000 0.002850
-0.043564 0.269517 0.000000 -0.018628
0.007477 0.278985 0.000000 -0.076320
-0.069899 0.256280 0.000000 -0.013499
0.002556 0.272582 0.000000 -0.044434
-0.060757 0.280123 0.000000 -0.078491
-0.054277 0.149992 0.000000 0.004084
-0.061705 0.206217 0.000000 0.004373
-0.070265 0.205159 0.000000 0.009788
-0.054316 0.205139 0.000000 0.007441
-0.049087 0.272918 0.000000 -0.045059
-0.069394 0.256492 0.000000 -0.011124
-0.061466 0.248444 0.000000 -0.004126
-0.052119 0.248331 0.000000 -0.006432
-0.082907 0.335967 0.000000 -0.121172
-0.090074 0.227540 0.000000 -0.006995
-0.086719 0.266260 0.000000 -0.017581
-0.117778 0.269245 0.000000 -0.003114
-0.057061 0.152762 0.000000 0.023359
-0.053895 0.159898 0.000000 0.043446
-0.070265 0.183619 0.000000 0.017304
-0.069317 0.162453 0.000000 0.024208
-0.023739 0.141617 0.000000 0.014496
-0.059657 0.211283 0.000000 0.018111
-0.041258 0.154043 0.000000 0.040744
-0.059686 0.141227 0.000000 0.025196
-0.090373 0.208349 0.000000 0.022102
-0.071107 0.154412 0.000000 0.032517
-0.088701 0.211281 0.000000 0.017739
-0.071368 0.208242 0.000000 0.024489
-0.056404 0.144798 0.000000 0.026561
-0.049251 0.118839 0.000000 0.020405
-0.053610 0.122656 0.000000 0.047377
-0.048078 0.124975 0.000000 0.029925
-0.016534 0.046504 0.000000 -0.010537
-0.025238 0.055885 0.000000 0.032925
-0.037497 0.088257 0.000000 0.006503
-0.022991 0.053296 0.000000 0.019575
-0.023641 0.070175 0.000000 0.015521
-0.041204 0.099913 0.000000 0.044914
-0.019420 0.050320 0.000000 0.049569
-0.019462 0.070459 0.000000 0.049650
-0.037774 0.085644 0.000000 0.029695
-0.029304 0.051211 0.000000 0.057861
-0.037950 0.099804 0.000000 0.050277
-0.037846 0.085551 0.000000 0.043220

SCALARS sigma float 4
LOOKUP_TABLE default
0.444172 0.725756 0.330316 -0.001324
0.621103 0.327143 0.268177 0.525932
-0.491014 0.095153 -0.108028 0.942783
0.123927 0.744599 0.244288 0.338882
-3.906421 -4.399438 -1.917727 0.000000
-0.594124 -2.807011 -0.870224 0.583524
0.161190 -3.088851 -0.777296 2.308026
-1.048478 -5.650207 -1.598953 -0.900102
0.646217 1.238643 0.537285 0.195884
-0.381451 -0.343619 -0.196077 1.240061
0.357555 -0.540965 -0.050185 0.400674
0.104687 -0.091582 0.003600 0.360133
0.658500 0.522285 0.336411 0.911535
-0.158852 -2.100794 -0.592297 0.329656
0.029601 0.282969 0.086514 0.897408
-1.158340 -2.386169 -0.906538 1.854075
-3.906421 -4.399438 -1.917727 -0.000000
0.161190 -3.088851 -0.777296 -2.308026
-0.594124 -2.807011 -0.870224 -0.583524
-1.048478 -5.650207 -1.598953 0.900102
0.444172 0.725756 0.330316 0.001324
-0.491014 0.095153 -0.108028 -0.942783
0.621103 0.327143 0.268177 -0.525932
0.123927 0.744599 0.244288 -0.338882
0.646217 1.238643 0.537285 -0.195884
0.357555 -0.540965 -0.050185 -0.400674
-0.381451 -0.343619 -0.196077 -1.240061
0.104687 -0.091582 0.003600 -0.360133
0.658500 0.522285 0.336411 -0.911535
0.029601 0.282969 0.086514 -0.897408
-0.158852 -2.100794 -0.592297 -0.329656
-1.158340 -2.386169 -0.906538 -1.854075
-0.001897 1.006682 0.282104 0.096781
-0.180644 1.738603 0.440573 -0.122223
-0.151198 1.068249 0.256582 -0.575106
-0.102677 1.070061 0.270876 -0.349546
-0.262040 2.721397 0.706491 -0.251821
-0.435961 2.249538 0.514061 -0.669342
-0.265189 2.267612 0.570490 -0.238524
-0.195852 2.401825 0.630897 -0.353933
0.033461 1.477977 0.427349 -0.216440
-0.102356 0.963658 0.240322 -0.801737
-0.256395 1.898381 0.464418 -0.671126
0.093799 1.439156 0.433239 -0.788029
-0.249556 1.655864 0.396355 -0.443887
-0.174943 1.912276 0.492232 -0.759972
-0.397313 0.838761 0.122103 -0.953747
-0.281214 1.614082 0.374937 -0.676379
-0.198216 2.874820 0.771771 -0.203192
-0.316932 3.321827 0.869509 -0.145857
-0.073556 3.011639 0.849923 -0.573843
-0.498582 2.922525 0.694424 -0.246166
-0.023730 5.597208 1.679864 0.840627
-0.114951 4.601671 1.327436 0.106175
-0.569081 3.893037 0.963775 0.044720
-1.203323 4.267068 0.880257 -0.151811
0.730404 3.027821 1.107346 -0.163484
0.278699 3.038998 0.967543 -0.564717
0.293746 3.955887 1.257605 -0.254508
-0.378126 2.598720 0.634124 -0.366306
-0.771427 3.535039 0.793406 -0.285709
-0.676909 3.609642 0.844697 -0.260493
-0.642541 2.725004 0.592313 -0.448766
-0.130444 3.755845 1.059508 -0.316845
2.789848 5.900720 2.789848 0.530054
2.725815 5.789129 2.725815 0.314837
0.378078 4.639322 1.501880 0.100783
0.644405 5.066906 1.730052 0.671337
2.639911 5.638116 2.639911 0.000000
1.116903 4.768829 1.794512 -0.048968
2.692612 5.730938 2.692612 0.146616
1.355838 5.190058 2.017756 0.132347
-0.101841 2.853386 0.793992 -0.070932
-0.101903 3.723258 1.058712 -0.148521
0.190415 3.846690 1.190244 -0.076603
0.416139 3.913771 1.284269 -0.104246
1.140566 5.153172 1.929766 0.370678
0.592849 4.608761 1.564016 0.005392
0.399166 4.650302 1.512528 0.058477
0.894480 4.720742 1.702440 0.044330
2.639911 5.638116 2.639911 0.000000
2.692612 5.730938 2.692612 -0.146616
1.116903 4.768829 1.794512 0.048968
1.355838 5.190058 2.017756 -0.132347
2.789848 5.900720 2.789848 -0.530054
0.378078 4.639322 1.501880 -0.100783
2.725815 5.789129 2.725815 -0.314837
0.644405 5.066906 1.730052 -0.671337
-0.101841 2.853386 0.793992 0.070932
0.190415 3.846690 1.190244 0.076603
-0.101903 3.723258 1.058712 0.148521
0.416139 3.913771 1.284269 0.104246
1.140566 5.153172 1.929766 -0.370678
0.399166 4.650302 1.512528 -0.058477
0.592849 4.608761 1.564016 -0.005392
0.894480 4.720742 1.702440 -0.044330
-0.023730 5.597208 1.679864 -0.840627
-0.569081 3.893037 0.963775 -0.044720
-0.114951 4.601671 1.327436 -0.106175
-1.203323 4.267068 0.880257 0.151811
-0.198216 2.874820 0.771771 0.203192
-0.073556 3.011639 0.849923 0.573843
-0.316932 3.321827 0.869509 0.145857
-0.498582 2.922525 0.694424 0.246166
0.730404 3.027821 1.107346 0.163484
0.293746 3.955887 1.257605 0.254508
0.278699 3.038998 0.967543 0.564717
-0.378126 2.598720 0.634124 0.366306
-0.771427 3.535039 0.793406 0.285709
-0.642541 2.725004 0.592313 0.448766
-0.676909 3.609642 0.844697 0.260493
-0.130444 3.755845 1.059508 0.316845
-0.262040 2.721397 0.706491 0.251821
-0.265189 2.267612 0.570490 0.238524
-0.435961 2.249538 0.514061 0.669342
-0.195852 2.401825 0.630897 0.353933
-0.001897 1.006682 0.282104 -0.096781
-0.151198 1.068249 0.256582 0.575106
-0.180644 1.738603 0.440573 0.122223
-0.102677 1.070061 0.270876 0.349546
0.033461 1.477977 0.427349 0.216440
-0.256395 1.898381 0.464418 0.671126
-0.102356 0.963658 0.240322 0.801737
0.093799 1.439156 0.433239 0.788029
-0.249556 1.655864 0.396355 0.443887
-0.397313 0.838761 0.122103 0.953747
-0.174943 1.912276 0.492232 0.759972
-0.281214 1.614082 0.374937 0.676379

