# vtk DataFile Version 2.0
Unstructured Grid Example
ASCII
DATASET UNSTRUCTURED_GRID

POINTS 9 float
-0.014047 -0.109042 0.000000 
1.014047 -0.109042 0.000000 
1.000000 1.000000 0.000000 
0.000000 1.000000 0.000000 
0.500000 0.009808 0.000000 
0.985502 0.418394 0.000000 
0.500000 1.000000 0.000000 
0.014498 0.418394 0.000000 
0.500000 0.434082 0.000000 

CELLS 8 32
3  0 4 8 
3  4 1 8 
3  1 5 8 
3  5 2 8 
3  2 6 8 
3  6 3 8 
3  3 7 8 
3  7 0 8 

CELL_TYPES 8
5
5
5
5
5
5
5
5

POINT_DATA 9

SCALARS u_h float 2
LOOKUP_TABLE default
-0.014047 -0.109042 
0.014047 -0.109042 
0.000000 0.000000 
0.000000 0.000000 
-0.000000 0.009808 
-0.014498 -0.081606 
0.000000 0.000000 
0.014498 -0.081606 
-0.000000 -0.065918 

CELL_DATA 8

SCALARS epsilon float 4
LOOKUP_TABLE default
0.027700 -0.125436 0.000000 0.139958
0.027700 -0.125436 0.000000 -0.139958
-0.029606 0.052095 0.000000 -0.044180
-0.028283 0.151330 0.000000 0.001159
0.000000 0.123264 0.000000 0.000000
0.000000 0.123264 0.000000 0.000000
-0.028283 0.151330 0.000000 -0.001159
-0.029606 0.052095 0.000000 0.044180

SCALARS sigma float 4
LOOKUP_TABLE default
-0.958149 -4.996277 -1.438612 2.234255
-0.958149 -4.996277 -1.438612 -2.234255
-0.381755 0.940704 0.155009 -0.694005
0.700488 3.176919 1.144849 -0.064357
1.232642 2.914674 1.232642 0.000000
1.232642 2.914674 1.232642 0.000000
0.700488 3.176919 1.144849 0.064357
-0.381755 0.940704 0.155009 0.694005

