# vtk DataFile Version 2.0
Unstructured Grid Example
ASCII
DATASET UNSTRUCTURED_GRID

POINTS 4225 float
0.019422 -0.169404 0.000000 
0.980578 -0.169404 0.000000 
1.000000 1.000000 0.000000 
0.000000 1.000000 0.000000 
0.500000 -0.100000 0.000000 
0.981708 0.380635 0.000000 
0.500000 1.000000 0.000000 
0.018292 0.380635 0.000000 
0.500000 0.382791 0.000000 
0.268305 -0.111996 0.000000 
0.500000 0.128076 0.000000 
0.246237 0.115290 0.000000 
0.731695 -0.111996 0.000000 
0.753763 0.115290 0.000000 
0.998523 0.098220 0.000000 
0.743567 0.377653 0.000000 
0.963080 0.673494 0.000000 
0.733937 0.674558 0.000000 
0.750000 1.000000 0.000000 
0.500000 0.676770 0.000000 
0.250000 1.000000 0.000000 
0.266063 0.674558 0.000000 
0.036920 0.673494 0.000000 
0.256433 0.377653 0.000000 
0.001477 0.098220 0.000000 
0.144977 -0.153036 0.000000 
0.248352 -0.003846 0.000000 
0.126587 -0.026978 0.000000 
0.500000 0.012056 0.000000 
0.375458 0.009974 0.000000 
0.379849 -0.100000 0.000000 
0.374566 0.248536 0.000000 
0.373080 0.125080 0.000000 
0.500000 0.250888 0.000000 
0.620151 -0.100000 0.000000 
0.624542 0.009974 0.000000 
0.873413 -0.026978 0.000000 
0.751648 -0.003846 0.000000 
0.855023 -0.153036 0.000000 
0.626920 0.125080 0.000000 
0.625434 0.248536 0.000000 
0.994438 -0.039924 0.000000 
0.877641 0.102945 0.000000 
0.863428 0.375392 0.000000 
0.872555 0.236609 0.000000 
0.992427 0.238734 0.000000 
0.750038 0.242413 0.000000 
0.622213 0.381306 0.000000 
0.970692 0.525076 0.000000 
0.854192 0.520364 0.000000 
0.852796 0.833951 0.000000 
0.848633 0.672782 0.000000 
0.964585 0.827309 0.000000 
0.737186 0.521588 0.000000 
0.619025 0.523935 0.000000 
0.875000 1.000000 0.000000 
0.737521 0.835520 0.000000 
0.500000 0.836232 0.000000 
0.619395 0.836042 0.000000 
0.625000 1.000000 0.000000 
0.617557 0.676141 0.000000 
0.500000 0.524964 0.000000 
0.375000 1.000000 0.000000 
0.380605 0.836042 0.000000 
0.147204 0.833951 0.000000 
0.262479 0.835520 0.000000 
0.125000 1.000000 0.000000 
0.382443 0.676141 0.000000 
0.380975 0.523935 0.000000 
0.035415 0.827309 0.000000 
0.151367 0.672782 0.000000 
0.136572 0.375392 0.000000 
0.145808 0.520364 0.000000 
0.029308 0.525076 0.000000 
0.262814 0.521588 0.000000 
0.377787 0.381306 0.000000 
0.007573 0.238734 0.000000 
0.127445 0.236609 0.000000 
0.122359 0.102945 0.000000 
0.005562 -0.039924 0.000000 
0.249962 0.242413 0.000000 
0.081655 -0.162013 0.000000 
0.134156 -0.090863 0.000000 
0.073224 -0.099199 0.000000 
0.253223 -0.059845 0.000000 
0.193923 -0.078290 0.000000 
0.208703 -0.138983 0.000000 
0.184051 0.045689 0.000000 
0.186865 -0.016467 0.000000 
0.246342 0.054674 0.000000 
0.500000 -0.044416 0.000000 
0.439175 -0.044574 0.000000 
0.439765 -0.100000 0.000000 
0.437006 0.068776 0.000000 
0.437970 0.011628 0.000000 
0.500000 0.069425 0.000000 
0.320967 -0.100000 0.000000 
0.378209 -0.045275 0.000000 
0.316371 -0.047917 0.000000 
0.437984 0.315141 0.000000 
0.437245 0.250287 0.000000 
0.500000 0.315631 0.000000 
0.309483 0.121030 0.000000 
0.373481 0.185694 0.000000 
0.310339 0.182298 0.000000 
0.500000 0.188449 0.000000 
0.436739 0.187757 0.000000 
0.436611 0.127350 0.000000 
0.311984 0.005601 0.000000 
0.373656 0.066574 0.000000 
0.309880 0.062049 0.000000 
0.560235 -0.100000 0.000000 
0.560825 -0.044574 0.000000 
0.683629 -0.047917 0.000000 
0.621791 -0.045275 0.000000 
0.679033 -0.100000 0.000000 
0.562030 0.011628 0.000000 
0.562994 0.068776 0.000000 
0.926776 -0.099199 0.000000 
0.865844 -0.090863 0.000000 
0.918345 -0.162013 0.000000 
0.753658 0.054674 0.000000 
0.813135 -0.016467 0.000000 
0.815949 0.045689 0.000000 
0.791297 -0.138983 0.000000 
0.806077 -0.078290 0.000000 
0.746777 -0.059845 0.000000 
0.562755 0.250287 0.000000 
0.562016 0.315141 0.000000 
0.563389 0.127350 0.000000 
0.563261 0.187757 0.000000 
0.689661 0.182298 0.000000 
0.626519 0.185694 0.000000 
0.690517 0.121030 0.000000 
0.688016 0.005601 0.000000 
0.690120 0.062049 0.000000 
0.626344 0.066574 0.000000 
0.988015 -0.106097 0.000000 
0.933862 -0.034399 0.000000 
0.938414 0.099115 0.000000 
0.937756 0.031844 0.000000 
0.998059 0.028560 0.000000 
0.877088 0.037626 0.000000 
0.816167 0.108762 0.000000 
0.922746 0.376601 0.000000 
0.928053 0.305873 0.000000 
0.987346 0.309434 0.000000 
0.807862 0.306643 0.000000 
0.868232 0.305294 0.000000 
0.803705 0.376024 0.000000 
0.996386 0.168351 0.000000 
0.932825 0.236118 0.000000 
0.936507 0.167219 0.000000 
0.623923 0.313711 0.000000 
0.561162 0.382458 0.000000 
0.752427 0.177868 0.000000 
0.687919 0.245789 0.000000 
0.683046 0.379587 0.000000 
0.685615 0.311532 0.000000 
0.746966 0.308982 0.000000 
0.875893 0.169208 0.000000 
0.811617 0.239055 0.000000 
0.814543 0.173143 0.000000 
0.976022 0.452422 0.000000 
0.917399 0.448444 0.000000 
0.908336 0.596166 0.000000 
0.912437 0.521570 0.000000 
0.966190 0.598720 0.000000 
0.858605 0.447033 0.000000 
0.799553 0.447306 0.000000 
0.918741 0.915473 0.000000 
0.908839 0.831601 0.000000 
0.972818 0.907689 0.000000 
0.791469 0.673612 0.000000 
0.848941 0.752236 0.000000 
0.792106 0.753377 0.000000 
0.962139 0.749578 0.000000 
0.905386 0.750778 0.000000 
0.905697 0.672462 0.000000 
0.620507 0.451378 0.000000 
0.560306 0.452308 0.000000 
0.740186 0.448499 0.000000 
0.680492 0.450007 0.000000 
0.676630 0.598004 0.000000 
0.678253 0.522821 0.000000 
0.734954 0.596954 0.000000 
0.850666 0.595552 0.000000 
0.792935 0.596010 0.000000 
0.795813 0.520599 0.000000 
0.937500 1.000000 0.000000 
0.861568 0.917255 0.000000 
0.742773 0.917729 0.000000 
0.802600 0.917642 0.000000 
0.812500 1.000000 0.000000 
0.795640 0.835002 0.000000 
0.734637 0.754221 0.000000 
0.500000 0.917795 0.000000 
0.560947 0.917780 0.000000 
0.562500 1.000000 0.000000 
0.559077 0.755623 0.000000 
0.559774 0.836174 0.000000 
0.500000 0.755737 0.000000 
0.687500 1.000000 0.000000 
0.621795 0.917767 0.000000 
0.682445 0.917753 0.000000 
0.559572 0.524693 0.000000 
0.500000 0.452629 0.000000 
0.675953 0.675436 0.000000 
0.617971 0.598912 0.000000 
0.500000 0.599742 0.000000 
0.559054 0.599521 0.000000 
0.558857 0.676600 0.000000 
0.678702 0.835833 0.000000 
0.617984 0.755328 0.000000 
0.676556 0.754860 0.000000 
0.437500 1.000000 0.000000 
0.439053 0.917780 0.000000 
0.317555 0.917753 0.000000 
0.378205 0.917767 0.000000 
0.312500 1.000000 0.000000 
0.440226 0.836174 0.000000 
0.440923 0.755623 0.000000 
0.081259 0.915473 0.000000 
0.138432 0.917255 0.000000 
0.062500 1.000000 0.000000 
0.265363 0.754221 0.000000 
0.204360 0.835002 0.000000 
0.207894 0.753377 0.000000 
0.187500 1.000000 0.000000 
0.197400 0.917642 0.000000 
0.257227 0.917729 0.000000 
0.440428 0.524693 0.000000 
0.439694 0.452308 0.000000 
0.441143 0.676600 0.000000 
0.440946 0.599521 0.000000 
0.323370 0.598004 0.000000 
0.382029 0.598912 0.000000 
0.324047 0.675436 0.000000 
0.321298 0.835833 0.000000 
0.323444 0.754860 0.000000 
0.382016 0.755328 0.000000 
0.027182 0.907689 0.000000 
0.091161 0.831601 0.000000 
0.094303 0.672462 0.000000 
0.094614 0.750778 0.000000 
0.037861 0.749578 0.000000 
0.151059 0.752236 0.000000 
0.208531 0.673612 0.000000 
0.077254 0.376601 0.000000 
0.082601 0.448444 0.000000 
0.023978 0.452422 0.000000 
0.200447 0.447306 0.000000 
0.141395 0.447033 0.000000 
0.196295 0.376024 0.000000 
0.033810 0.598720 0.000000 
0.087563 0.521570 0.000000 
0.091664 0.596166 0.000000 
0.379493 0.451378 0.000000 
0.438838 0.382458 0.000000 
0.265046 0.596954 0.000000 
0.321747 0.522821 0.000000 
0.316954 0.379587 0.000000 
0.319508 0.450007 0.000000 
0.259814 0.448499 0.000000 
0.149334 0.595552 0.000000 
0.204187 0.520599 0.000000 
0.207065 0.596010 0.000000 
0.012654 0.309434 0.000000 
0.071947 0.305873 0.000000 
0.063493 0.167219 0.000000 
0.067175 0.236118 0.000000 
0.003614 0.168351 0.000000 
0.131768 0.305294 0.000000 
0.192138 0.306643 0.000000 
0.066138 -0.034399 0.000000 
0.011985 -0.106097 0.000000 
0.183833 0.108762 0.000000 
0.122912 0.037626 0.000000 
0.001941 0.028560 0.000000 
0.062244 0.031844 0.000000 
0.061586 0.099115 0.000000 
0.376077 0.313711 0.000000 
0.253034 0.308982 0.000000 
0.314385 0.311532 0.000000 
0.312081 0.245789 0.000000 
0.247573 0.177868 0.000000 
0.124107 0.169208 0.000000 
0.185457 0.173143 0.000000 
0.188383 0.239055 0.000000 
0.050427 -0.165716 0.000000 
0.077489 -0.130875 0.000000 
0.046557 -0.134460 0.000000 
0.139364 -0.122273 0.000000 
0.108458 -0.126940 0.000000 
0.113186 -0.157916 0.000000 
0.099683 -0.063374 0.000000 
0.103783 -0.095387 0.000000 
0.129856 -0.059040 0.000000 
0.257948 -0.086671 0.000000 
0.229419 -0.099270 0.000000 
0.239766 -0.128152 0.000000 
0.219678 -0.039972 0.000000 
0.223363 -0.069651 0.000000 
0.250310 -0.032203 0.000000 
0.176902 -0.146929 0.000000 
0.200160 -0.109024 0.000000 
0.170027 -0.116468 0.000000 
0.214730 0.080932 0.000000 
0.215014 0.050218 0.000000 
0.246083 0.084733 0.000000 
0.156698 -0.022136 0.000000 
0.185066 0.014531 0.000000 
0.154610 0.009581 0.000000 
0.247072 0.025134 0.000000 
0.215839 0.019865 0.000000 
0.217323 -0.010174 0.000000 
0.164229 -0.085280 0.000000 
0.189685 -0.047390 0.000000 
0.159832 -0.053768 0.000000 
0.500000 -0.072342 0.000000 
0.469793 -0.072351 0.000000 
0.469863 -0.100000 0.000000 
0.469313 -0.016345 0.000000 
0.469592 -0.044449 0.000000 
0.500000 -0.016279 0.000000 
0.409742 -0.100000 0.000000 
0.439608 -0.072403 0.000000 
0.409465 -0.072507 0.000000 
0.468386 0.098384 0.000000 
0.468528 0.069263 0.000000 
0.500000 0.098561 0.000000 
0.406808 0.011013 0.000000 
0.437425 0.040054 0.000000 
0.405993 0.039288 0.000000 
0.500000 0.040609 0.000000 
0.468741 0.040472 0.000000 
0.469013 0.011953 0.000000 
0.292970 -0.100000 0.000000 
0.319269 -0.073821 0.000000 
0.288476 -0.076455 0.000000 
0.379382 -0.072693 0.000000 
0.349355 -0.073042 0.000000 
0.350183 -0.100000 0.000000 
0.345520 -0.019113 0.000000 
0.347502 -0.046130 0.000000 
0.376785 -0.017761 0.000000 
0.438586 -0.016566 0.000000 
0.407769 -0.016996 0.000000 
0.408729 -0.044822 0.000000 
0.469190 0.348812 0.000000 
[...]
POINT_DATA 4225

SCALARS u_h float 2
LOOKUP_TABLE default
0.019422 -0.169404 
-0.019422 -0.169404 
0.000000 0.000000 
0.000000 0.000000 
0.000000 -0.100000 
-0.018292 -0.119365 
0.000000 0.000000 
0.018292 -0.119365 
0.000000 -0.117209 
0.018305 -0.111996 
0.000000 -0.121924 
-0.003763 -0.134710 
-0.018305 -0.111996 
0.003763 -0.134710 
-0.001477 -0.151780 
-0.006433 -0.122347 
-0.036920 -0.076506 
-0.016063 -0.075442 
0.000000 0.000000 
0.000000 -0.073230 
0.000000 0.000000 
0.016063 -0.075442 
0.036920 -0.076506 
0.006433 -0.122347 
0.001477 -0.151780 
0.019977 -0.153036 
-0.001648 -0.128846 
0.001587 -0.151978 
0.000000 -0.112944 
0.000458 -0.115026 
0.004849 -0.100000 
-0.000434 -0.126464 
-0.001920 -0.124920 
0.000000 -0.124112 
-0.004849 -0.100000 
-0.000458 -0.115026 
-0.001587 -0.151978 
0.001648 -0.128846 
-0.019977 -0.153036 
0.001920 -0.124920 
0.000434 -0.126464 
-0.005562 -0.164924 
0.002641 -0.147055 
-0.011572 -0.124608 
-0.002445 -0.138391 
-0.007573 -0.136266 
0.000038 -0.132587 
-0.002787 -0.118694 
-0.029308 -0.099924 
-0.020808 -0.104636 
-0.022204 -0.041049 
-0.026367 -0.077218 
-0.035415 -0.047691 
-0.012814 -0.103412 
-0.005975 -0.101065 
0.000000 0.000000 
-0.012479 -0.039480 
0.000000 -0.038768 
-0.005605 -0.038958 
0.000000 0.000000 
-0.007443 -0.073859 
0.000000 -0.100036 
0.000000 0.000000 
0.005605 -0.038958 
0.022204 -0.041049 
0.012479 -0.039480 
0.000000 0.000000 
0.007443 -0.073859 
0.005975 -0.101065 
0.035415 -0.047691 
0.026367 -0.077218 
0.011572 -0.124608 
0.020808 -0.104636 
0.029308 -0.099924 
0.012814 -0.103412 
0.002787 -0.118694 
0.007573 -0.136266 
0.002445 -0.138391 
-0.002641 -0.147055 
0.005562 -0.164924 
-0.000038 -0.132587 
0.019155 -0.162013 
0.009156 -0.153363 
0.010724 -0.161699 
0.003223 -0.122345 
0.006423 -0.140790 
0.021203 -0.138983 
-0.003449 -0.141811 
-0.000635 -0.141467 
-0.003658 -0.132826 
0.000000 -0.106916 
0.001675 -0.107074 
0.002265 -0.100000 
-0.000494 -0.118724 
0.000470 -0.113372 
0.000000 -0.118075 
0.008467 -0.100000 
0.003209 -0.107775 
0.003871 -0.110417 
0.000484 -0.122359 
-0.000255 -0.124713 
0.000000 -0.121869 
-0.003017 -0.128970 
-0.001519 -0.126806 
-0.002161 -0.130202 
0.000000 -0.124051 
-0.000761 -0.124743 
-0.000889 -0.122650 
-0.000516 -0.119399 
-0.001344 -0.120926 
-0.002620 -0.125451 
-0.002265 -0.100000 
-0.001675 -0.107074 
-0.003871 -0.110417 
-0.003209 -0.107775 
-0.008467 -0.100000 
-0.000470 -0.113372 
0.000494 -0.118724 
-0.010724 -0.161699 
-0.009156 -0.153363 
-0.019155 -0.162013 
0.003658 -0.132826 
0.000635 -0.141467 
0.003449 -0.141811 
-0.021203 -0.138983 
-0.006423 -0.140790 
-0.003223 -0.122345 
0.000255 -0.124713 
-0.000484 -0.122359 
0.000889 -0.122650 
0.000761 -0.124743 
0.002161 -0.130202 
0.001519 -0.126806 
0.003017 -0.128970 
0.000516 -0.119399 
0.002620 -0.125451 
0.001344 -0.120926 
-0.011985 -0.168597 
-0.003638 -0.159399 
0.000914 -0.150885 
0.000256 -0.155656 
-0.001941 -0.158940 
0.002088 -0.149874 
0.003667 -0.141238 
-0.014754 -0.123399 
-0.009447 -0.131627 
-0.012654 -0.128066 
-0.004638 -0.130857 
-0.006768 -0.132206 
-0.008795 -0.123976 
-0.003614 -0.144149 
-0.004675 -0.138882 
-0.000993 -0.145281 
-0.001077 -0.123789 
-0.001338 -0.117542 
0.002427 -0.134632 
0.000419 -0.129211 
-0.004454 -0.120413 
-0.001885 -0.125968 
-0.003034 -0.128518 
0.000893 -0.143292 
-0.000883 -0.135945 
0.002043 -0.139357 
-0.023978 -0.110078 
-0.020101 -0.114056 
-0.029164 -0.091334 
-0.025063 -0.103430 
-0.033810 -0.088780 
-0.016395 -0.115467 
-0.012947 -0.115194 
-0.018759 -0.022027 
-0.028661 -0.043399 
-0.027182 -0.029811 
-0.021031 -0.076388 
-0.026059 -0.060264 
-0.020394 -0.059123 
-0.037861 -0.062922 
-0.032114 -0.061722 
-0.031803 -0.077538 
-0.004493 -0.111122 
-0.002194 -0.110192 
-0.009814 -0.114001 
-0.007008 -0.112493 
-0.010870 -0.089496 
-0.009247 -0.102179 
-0.015046 -0.090546 
-0.024334 -0.091948 
-0.019565 -0.091490 
-0.016687 -0.104401 
0.000000 0.000000 
-0.013432 -0.020245 
-0.007227 -0.019771 
-0.009900 -0.019858 
0.000000 0.000000 
-0.016860 -0.039998 
-0.015363 -0.058279 
0.000000 -0.019705 
-0.001553 -0.019720 
0.000000 0.000000 
-0.003423 -0.056877 
-0.002726 -0.038826 
0.000000 -0.056763 
0.000000 0.000000 
-0.003205 -0.019733 
-0.005055 -0.019747 
-0.002928 -0.100307 
0.000000 -0.109871 
-0.011547 -0.074564 
-0.007029 -0.088588 
0.000000 -0.087758 
-0.003446 -0.087979 
-0.003643 -0.073400 
-0.008798 -0.039167 
-0.007016 -0.057172 
-0.010944 -0.057640 
0.000000 0.000000 
0.001553 -0.019720 
0.005055 -0.019747 
0.003205 -0.019733 
0.000000 0.000000 
0.002726 -0.038826 
0.003423 -0.056877 
0.018759 -0.022027 
0.013432 -0.020245 
0.000000 0.000000 
0.015363 -0.058279 
0.016860 -0.039998 
0.020394 -0.059123 
0.000000 0.000000 
0.009900 -0.019858 
0.007227 -0.019771 
0.002928 -0.100307 
0.002194 -0.110192 
0.003643 -0.073400 
0.003446 -0.087979 
0.010870 -0.089496 
0.007029 -0.088588 
0.011547 -0.074564 
0.008798 -0.039167 
0.010944 -0.057640 
0.007016 -0.057172 
0.027182 -0.029811 
0.028661 -0.043399 
0.031803 -0.077538 
0.032114 -0.061722 
0.037861 -0.062922 
0.026059 -0.060264 
0.021031 -0.076388 
0.014754 -0.123399 
0.020101 -0.114056 
0.023978 -0.110078 
0.012947 -0.115194 
0.016395 -0.115467 
0.008795 -0.123976 
0.033810 -0.088780 
0.025063 -0.103430 
0.029164 -0.091334 
0.004493 -0.111122 
0.001338 -0.117542 
0.015046 -0.090546 
0.009247 -0.102179 
0.004454 -0.120413 
0.007008 -0.112493 
0.009814 -0.114001 
0.024334 -0.091948 
0.016687 -0.104401 
0.019565 -0.091490 
0.012654 -0.128066 
0.009447 -0.131627 
0.000993 -0.145281 
0.004675 -0.138882 
0.003614 -0.144149 
0.006768 -0.132206 
0.004638 -0.130857 
0.003638 -0.159399 
0.011985 -0.168597 
-0.003667 -0.141238 
-0.002088 -0.149874 
0.001941 -0.158940 
-0.000256 -0.155656 
-0.000914 -0.150885 
0.001077 -0.123789 
0.003034 -0.128518 
0.001885 -0.125968 
-0.000419 -0.129211 
-0.002427 -0.134632 
-0.000893 -0.143292 
-0.002043 -0.139357 
0.000883 -0.135945 
0.019177 -0.165716 
0.014989 -0.162125 
0.015307 -0.165710 
0.014364 -0.153523 
0.014708 -0.158190 
0.019436 -0.157916 
0.005933 -0.157124 
0.010033 -0.157887 
0.004856 -0.152790 
0.007948 -0.117921 
0.010669 -0.130520 
0.021016 -0.128152 
0.000928 -0.133722 
0.004613 -0.132151 
0.000310 -0.125953 
0.020652 -0.146929 
0.012660 -0.140274 
0.013777 -0.147718 
-0.004020 -0.137818 
-0.003736 -0.137282 
-0.003917 -0.134017 
0.000448 -0.147136 
-0.002434 -0.141719 
-0.001640 -0.146669 
-0.002928 -0.131116 
-0.002911 -0.136385 
-0.001427 -0.135174 
0.007979 -0.147780 
0.002185 -0.141140 
0.003582 -0.147518 
0.000000 -0.103592 
0.001043 -0.103601 
0.001113 -0.100000 
0.000563 -0.110095 
0.000842 -0.106949 
0.000000 -0.110029 
0.003492 -0.100000 
0.002108 -0.103653 
0.003215 -0.103757 
-0.000364 -0.120366 
-0.000222 -0.118237 
0.000000 -0.120189 
0.000558 -0.113987 
-0.000075 -0.116196 
-0.000257 -0.116962 
0.000000 -0.115641 
-0.000009 -0.115778 
0.000263 -0.113047 
0.011720 -0.100000 
0.006769 -0.105071 
0.007226 -0.107705 
0.004382 -0.103943 
0.005605 -0.104292 
0.006433 -0.100000 
0.001770 -0.112863 
0.003752 -0.108630 
0.001785 -0.111511 
0.001086 -0.110316 
0.001519 -0.110746 
0.002479 -0.107322 
0.000440 -0.119938 
0.000234 -0.121991 
0.000000 -0.119840 
-0.000359 -0.125450 
0.000094 -0.123836 
0.000170 -0.124507 
0.000000 -0.123289 
0.000041 -0.123428 
-0.000132 -0.124265 
-0.003469 -0.131663 
-0.002721 -0.129865 
-0.003058 -0.132260 
-0.001823 -0.126134 
-0.002293 -0.127809 
-0.002479 -0.126713 
-0.001244 -0.128323 
-0.001868 -0.128347 
-0.001045 -0.126920 
0.000000 -0.123227 
-0.000435 -0.123410 
-0.000433 -0.122108 
-0.000275 -0.124523 
-0.000379 -0.124227 
0.000000 -0.124357 
-0.001384 -0.123576 
-0.000882 -0.123946 
-0.001346 -0.124849 
-0.000806 -0.125809 
-0.001144 -0.125602 
-0.000545 -0.125007 
0.003357 -0.114412 
0.000102 -0.116720 
0.001361 -0.115286 
0.000662 -0.119486 
-0.001228 -0.123409 
-0.000764 -0.120894 
-0.001773 -0.123178 
-0.001230 -0.121812 
-0.000858 -0.119591 
-0.000602 -0.118193 
-0.003548 -0.130519 
-0.002494 -0.126462 
-0.003242 -0.128802 
-0.003001 -0.127506 
-0.002380 -0.125059 
-0.001136 -0.120061 
-0.001949 -0.122843 
-0.001816 -0.122767 
-0.001113 -0.100000 
-0.001043 -0.103601 
-0.003215 -0.103757 
-0.002108 -0.103653 
-0.003492 -0.100000 
-0.000842 -0.106949 
-0.000563 -0.110095 
-0.007226 -0.107705 
-0.006769 -0.105071 
-0.011720 -0.100000 
-0.001785 -0.111511 
-0.003752 -0.108630 
-0.001770 -0.112863 
-0.006433 -0.100000 
-0.005605 -0.104292 
-0.004382 -0.103943 
0.000222 -0.118237 
0.000364 -0.120366 
-0.000263 -0.113047 
0.000009 -0.115778 
0.000257 -0.116962 
0.000075 -0.116196 
-0.000558 -0.113987 
-0.002479 -0.107322 
-0.001519 -0.110746 
-0.001086 -0.110316 
-0.015307 -0.165710 
-0.014989 -0.162125 
-0.019177 -0.165716 
-0.004856 -0.152790 
-0.010033 -0.157887 
-0.005933 -0.157124 
-0.019436 -0.157916 
-0.014708 -0.158190 
-0.014364 -0.153523 
0.003917 -0.134017 
0.003736 -0.137282 
0.004020 -0.137818 
0.001427 -0.135174 
0.002911 -0.136385 
0.002928 -0.131116 
0.001640 -0.146669 
0.002434 -0.141719 
-0.000448 -0.147136 
-0.021016 -0.128152 
-0.010669 -0.130520 
-0.007948 -0.117921 
-0.013777 -0.147718 
-0.012660 -0.140274 
-0.020652 -0.146929 
-0.000310 -0.125953 
-0.004613 -0.132151 
-0.000928 -0.133722 
-0.003582 -0.147518 
-0.002185 -0.141140 
-0.007979 -0.147780 
-0.000234 -0.121991 
-0.000440 -0.119938 
0.000132 -0.124265 
-0.000041 -0.123428 
-0.000170 -0.124507 
-0.000094 -0.123836 
0.000359 -0.125450 
0.000433 -0.122108 
0.000435 -0.123410 
0.001346 -0.124849 
0.000882 -0.123946 
0.001384 -0.123576 
0.000379 -0.124227 
0.000275 -0.124523 
0.003058 -0.132260 
0.002721 -0.129865 
0.003469 -0.131663 
0.001045 -0.126920 
0.001868 -0.128347 
0.001244 -0.128323 
0.002479 -0.126713 
0.002293 -0.127809 
0.001823 -0.126134 
0.000545 -0.125007 
0.001144 -0.125602 
0.000806 -0.125809 
-0.003357 -0.114412 
0.001228 -0.123409 
-0.000662 -0.119486 
-0.001361 -0.115286 
-0.000102 -0.116720 
0.003548 -0.130519 
0.002380 -0.125059 
0.003001 -0.127506 
0.003242 -0.128802 
0.002494 -0.126462 
0.000764 -0.120894 
0.000602 -0.118193 
0.000858 -0.119591 
0.001230 -0.121812 
0.001773 -0.123178 
0.001816 -0.122767 
0.001949 -0.122843 
0.001136 -0.120061 
-0.015710 -0.169322 
-0.011340 -0.165144 
-0.004569 -0.162296 
-0.007660 -0.163991 
-0.008506 -0.167118 
-0.006841 -0.160765 
-0.002659 -0.156021 
-0.000185 -0.151761 
-0.000103 -0.154798 
-0.001338 -0.155449 
0.001887 -0.151284 
0.000955 -0.153382 
0.001854 -0.149280 
-0.003347 -0.162145 
-0.000768 -0.157613 
-0.002250 -0.160140 
0.003827 -0.141669 
0.003839 -0.137966 
0.000695 -0.151003 
0.002865 -0.146082 
0.003257 -0.144327 
0.003367 -0.145319 
0.002701 -0.148568 
-0.001262 -0.157676 
0.001204 -0.153076 
-0.000288 -0.154659 
-0.016483 -0.121805 
-0.013696 -0.126147 
-0.015433 -0.123793 
-0.010543 -0.128415 
-0.012064 -0.127643 
-0.013114 -0.124291 
-0.010011 -0.132216 
-0.010988 -0.130288 
-0.008414 -0.134247 
-0.005647 -0.126750 
-0.006692 -0.127648 
-0.007563 -0.123239 
-0.004517 -0.135467 
-0.005635 -0.131711 
-0.003525 -0.134722 
-0.010131 -0.124466 
-0.007855 -0.128298 
-0.009139 -0.128592 
-0.002269 -0.148001 
-0.002207 -0.145186 
-0.000920 -0.148548 
-0.006042 -0.138040 
-0.003945 -0.141683 
-0.005412 -0.140239 
-0.001550 -0.141903 
-0.002658 -0.142183 
-0.003476 -0.138950 
-0.008040 -0.132221 
-0.005663 -0.135728 
-0.006963 -0.135368 
-0.000903 -0.120264 
-0.000661 -0.117252 
-0.000283 -0.125424 
-0.000761 -0.122964 
-0.002042 -0.118031 
-0.001392 -0.120809 
-0.001921 -0.121549 
0.003251 -0.134915 
0.002360 -0.132323 
0.000286 -0.130854 
0.001422 -0.131855 
0.001341 -0.133858 
0.001379 -0.129985 
0.000460 -0.127730 
-0.005400 -0.121382 
-0.003887 -0.124587 
-0.004715 -0.125700 
-0.002503 -0.122454 
-0.003154 -0.123483 
-0.003587 -0.119501 
-0.001435 -0.130810 
-0.002409 -0.127228 
-0.001005 -0.129314 
-0.000448 -0.126560 
-0.000682 -0.127875 
-0.001446 -0.124804 
0.000230 -0.148181 
-0.000617 -0.140994 
0.000039 -0.144600 
0.001205 -0.147055 
0.002008 -0.145305 
-0.003774 -0.129759 
-0.000346 -0.134320 
-0.001991 -0.132278 
-0.002684 -0.133618 
-0.001580 -0.137345 
0.003256 -0.137706 
0.002629 -0.143065 
0.003049 -0.140478 
0.002329 -0.137021 
0.001110 -0.135896 
0.000137 -0.139597 
0.000712 -0.137853 
0.001563 -0.141497 
-0.021152 -0.114824 
-0.019275 -0.117246 
-0.024684 -0.107378 
-0.022025 -0.112445 
-0.026716 -0.105116 
-0.017449 -0.118876 
-0.015690 -0.119835 
-0.033198 -0.084011 
-0.031524 -0.090366 
-0.035581 -0.082794 
-0.022928 -0.104263 
-0.027254 -0.097579 
-0.024986 -0.098265 
-0.031695 -0.094485 
-0.029497 -0.096361 
-0.027195 -0.102024 
-0.010897 -0.119830 
-0.009477 -0.119217 
-0.014007 -0.120239 
-0.012408 -0.120202 
-0.016758 -0.110312 
-0.014634 -0.115490 
-0.018681 -0.110272 
-0.022658 -0.108915 
-0.020652 -0.109842 
-0.018221 -0.115025 
-0.013284 -0.012306 
-0.022675 -0.024707 
-0.019020 -0.018552 
-0.025306 -0.041996 
-0.024760 -0.033101 
-0.021393 -0.031599 
-0.032270 -0.039215 
-0.028518 -0.035594 
-0.032125 -0.045336 
-0.018493 -0.075916 
-0.021025 -0.068017 
-0.018425 -0.067541 
-0.026571 -0.069028 
-0.023748 -0.068518 
-0.023665 -0.076835 
-0.021747 -0.050261 
-0.023153 -0.059650 
-0.024666 -0.050925 
-0.037723 -0.069893 
-0.035105 -0.070094 
-0.034429 -0.077267 
-0.034180 -0.054223 
-0.035085 -0.062438 
-0.037168 -0.055547 
-0.029096 -0.077481 
-0.032320 -0.069908 
-0.029450 -0.069514 
-0.027769 -0.051799 
-0.029070 -0.060965 
-0.030985 -0.052913 
-0.001776 -0.114186 
-0.000885 -0.113924 
-0.003656 -0.115219 
-0.002695 -0.114625 
-0.003907 -0.105921 
-0.003322 -0.110588 
-0.005274 -0.106402 
-0.008149 -0.118451 
-0.006909 -0.117607 
-0.009746 -0.108320 
-0.008371 -0.113255 
-0.011385 -0.108990 
-0.005752 -0.116752 
-0.004671 -0.115941 
-0.013493 -0.082773 
-0.012914 -0.090017 
-0.015737 -0.083267 
-0.007577 -0.101590 
-0.010155 -0.096129 
-0.008326 -0.095594 
-0.014052 -0.097263 
-0.012063 -0.096697 
-0.010991 -0.102800 
-0.005718 -0.111768 
-0.008185 -0.107636 
-0.006697 -0.106984 
-0.030712 -0.084665 
-0.025583 -0.084851 
-0.028159 -0.084905 
-0.026757 -0.091822 
-0.022716 -0.098535 
-0.018080 -0.083759 
-0.016122 -0.097787 
-0.017266 -0.091052 
-0.020514 -0.084215 
-0.023023 -0.084597 
-0.011339 -0.114671 
-0.018723 -0.104651 
-0.014895 -0.110056 
-0.013102 -0.109590 
-0.014714 -0.103965 
-0.021928 -0.091811 
-0.018265 -0.098216 
-0.020469 -0.098490 
0.000000 0.000000 
-0.010250 -0.010611 
-0.007131 -0.009891 
-0.008434 -0.010080 
0.000000 0.000000 
-0.015767 -0.020804 
-0.018493 -0.030746 
-0.003810 -0.009847 
-0.004478 -0.009829 
0.000000 0.000000 
-0.011877 -0.029801 
-0.008485 -0.019799 
-0.010140 -0.029684 
0.000000 0.000000 
-0.005231 -0.009819 
-0.006098 -0.009830 
-0.017797 -0.058671 
-0.015960 -0.067098 
-0.019395 -0.040421 
-0.019036 -0.049756 
-0.014216 -0.049045 
-0.016531 -0.049362 
-0.014567 -0.039701 
-0.011522 -0.019983 
-0.013811 -0.029977 
-0.015994 -0.030261 
0.000000 -0.009911 
-0.000403 -0.009915 
0.000000 0.000000 
-0.001089 -0.029355 
-0.000770 -0.019714 
0.000000 -0.029341 
0.000000 0.000000 
-0.000815 -0.009914 
-0.001239 -0.009910 
-0.001785 -0.065256 
-0.001701 -0.056797 
0.000000 -0.065215 
-0.004136 -0.038882 
-0.003136 -0.048013 
-0.004756 -0.048103 
0.000000 -0.047928 
-0.001557 -0.047955 
-0.001353 -0.038788 
0.000000 0.000000 
-0.002660 -0.009880 
-0.003208 -0.009865 
-0.001684 -0.009903 
-0.002155 -0.009893 
0.000000 0.000000 
-0.005777 -0.029482 
-0.004098 -0.019740 
-0.004522 -0.029438 
-0.002195 -0.029375 
-0.003334 -0.029403 
-0.002361 -0.019727 
-0.001092 -0.109951 
0.000000 -0.113847 
-0.004429 -0.100631 
-0.002582 -0.105563 
0.000000 -0.105266 
-0.001284 -0.105342 
-0.001457 -0.100106 
-0.013749 -0.074987 
-0.011348 -0.082299 
-0.007329 -0.081490 
-0.009297 -0.081866 
-0.009449 -0.074184 
-0.008911 -0.089013 
-0.006568 -0.095121 
0.000000 -0.080759 
-0.001786 -0.080812 
-0.001811 -0.073277 
-0.001602 -0.094258 
-0.001714 -0.087817 
0.000000 -0.094193 
-0.005514 -0.073595 
-0.003591 -0.080954 
-0.005433 -0.081183 
-0.004871 -0.094730 
-0.005212 -0.088239 
-0.003221 -0.094439 
-0.006092 -0.019756 
-0.007152 -0.039052 
-0.007117 -0.029535 
-0.008563 -0.029600 
-0.010565 -0.039307 
-0.003590 -0.065358 
-0.007346 -0.065736 
-0.005437 -0.065519 
-0.005188 -0.057002 
-0.006438 -0.048225 
-0.013629 -0.066693 
-0.012071 -0.048783 
-0.013083 -0.057937 
-0.011425 -0.066328 
-0.009336 -0.066007 
-0.008204 -0.048378 
-0.008928 -0.057385 
-0.010074 -0.048563 
0.000000 0.000000 
0.000403 -0.009915 
0.001239 -0.009910 
0.000815 -0.009914 
0.000000 0.000000 
0.000770 -0.019714 
0.001089 -0.029355 
0.003208 -0.009865 
0.002660 -0.009880 
0.000000 0.000000 
0.004522 -0.029438 
0.004098 -0.019740 
0.005777 -0.029482 
0.000000 0.000000 
0.002155 -0.009893 
0.001684 -0.009903 
0.001701 -0.056797 
0.001785 -0.065256 
0.001353 -0.038788 
0.001557 -0.047955 
0.004756 -0.048103 
0.003136 -0.048013 
0.004136 -0.038882 
0.002361 -0.019727 
0.003334 -0.029403 
0.002195 -0.029375 
0.013284 -0.012306 
0.010250 -0.010611 
0.000000 0.000000 
0.018493 -0.030746 
0.015767 -0.020804 
0.021393 -0.031599 
0.000000 0.000000 
0.008434 -0.010080 
0.007131 -0.009891 
0.015960 -0.067098 
0.017797 -0.058671 
0.018425 -0.067541 
0.014567 -0.039701 
0.016531 -0.049362 
0.014216 -0.049045 
0.021747 -0.050261 
0.019036 -0.049756 
0.019395 -0.040421 
0.000000 0.000000 
0.004478 -0.009829 
0.003810 -0.009847 
0.006098 -0.009830 
0.005231 -0.009819 
0.000000 0.000000 
0.010140 -0.029684 
0.008485 -0.019799 
0.011877 -0.029801 
0.015994 -0.030261 
0.013811 -0.029977 
0.011522 -0.019983 
0.001092 -0.109951 
0.000885 -0.113924 
0.001457 -0.100106 
0.001284 -0.105342 
0.003907 -0.105921 
0.002582 -0.105563 
0.004429 -0.100631 
0.001811 -0.073277 
0.001786 -0.080812 
0.005433 -0.081183 
0.003591 -0.080954 
0.005514 -0.073595 
0.001714 -0.087817 
0.001602 -0.094258 
0.013493 -0.082773 
0.011348 -0.082299 
0.013749 -0.074987 
0.006568 -0.095121 
0.008911 -0.089013 
0.008326 -0.095594 
0.009449 -0.074184 
0.009297 -0.081866 
0.007329 -0.081490 
0.003221 -0.094439 
0.005212 -0.088239 
0.004871 -0.094730 
0.006092 -0.019756 
0.010565 -0.039307 
0.008563 -0.029600 
0.007117 -0.029535 
0.007152 -0.039052 
0.013629 -0.066693 
0.009336 -0.066007 
0.011425 -0.066328 
0.013083 -0.057937 
0.012071 -0.048783 
0.003590 -0.065358 
0.006438 -0.048225 
0.005188 -0.057002 
0.005437 -0.065519 
0.007346 -0.065736 
0.010074 -0.048563 
0.008928 -0.057385 
0.008204 -0.048378 
0.019020 -0.018552 
0.022675 -0.024707 
0.032125 -0.045336 
0.028518 -0.035594 
0.032270 -0.039215 
0.024760 -0.033101 
0.025306 -0.041996 
0.034429 -0.077267 
0.035105 -0.070094 
0.037723 -0.069893 
0.029450 -0.069514 
0.032320 -0.069908 
0.029096 -0.077481 
0.037168 -0.055547 
0.035085 -0.062438 
0.034180 -0.054223 
0.021025 -0.068017 
0.018493 -0.075916 
0.024666 -0.050925 
0.023153 -0.059650 
0.023665 -0.076835 
0.023748 -0.068518 
0.026571 -0.069028 
0.030985 -0.052913 
0.029070 -0.060965 
0.027769 -0.051799 
0.016483 -0.121805 
0.019275 -0.117246 
0.021152 -0.114824 
0.015690 -0.119835 
0.017449 -0.118876 
0.013114 -0.124291 
0.026716 -0.105116 
0.022025 -0.112445 
0.024684 -0.107378 
0.009477 -0.119217 
0.010897 -0.119830 
0.007563 -0.123239 
0.018681 -0.110272 
0.014634 -0.115490 
0.016758 -0.110312 
0.010131 -0.124466 
0.012408 -0.120202 
0.014007 -0.120239 
0.035581 -0.082794 
0.031524 -0.090366 
0.033198 -0.084011 
0.027195 -0.102024 
0.029497 -0.096361 
0.031695 -0.094485 
0.024986 -0.098265 
0.027254 -0.097579 
0.022928 -0.104263 
0.018221 -0.115025 
0.020652 -0.109842 
0.022658 -0.108915 
0.001776 -0.114186 
0.000661 -0.117252 
0.005274 -0.106402 
0.003322 -0.110588 
0.002042 -0.118031 
0.002695 -0.114625 
0.003656 -0.115219 
0.015737 -0.083267 
0.012914 -0.090017 
0.010991 -0.102800 
0.012063 -0.096697 
0.014052 -0.097263 
0.010155 -0.096129 
0.007577 -0.101590 
0.005400 -0.121382 
0.006909 -0.117607 
0.008149 -0.118451 
0.004671 -0.115941 
0.005752 -0.116752 
0.003587 -0.119501 
0.011385 -0.108990 