# vtk DataFile Version 2.0
Unstructured Grid Example
ASCII
DATASET UNSTRUCTURED_GRID

POINTS 16641 float
0.019341 -0.168400 0.000000 
0.980659 -0.168400 0.000000 
1.000000 1.000000 0.000000 
0.000000 1.000000 0.000000 
0.500000 -0.100000 0.000000 
0.981845 0.381209 0.000000 
0.500000 1.000000 0.000000 
0.018155 0.381209 0.000000 
0.500000 0.383165 0.000000 
0.267529 -0.106951 0.000000 
0.500000 0.128309 0.000000 
0.246255 0.116074 0.000000 
0.732471 -0.106951 0.000000 
0.753745 0.116074 0.000000 
0.998796 0.099173 0.000000 
0.743574 0.378094 0.000000 
0.963171 0.673785 0.000000 
0.733950 0.674758 0.000000 
0.750000 1.000000 0.000000 
0.500000 0.676927 0.000000 
0.250000 1.000000 0.000000 
0.266050 0.674758 0.000000 
0.036829 0.673785 0.000000 
0.256426 0.378094 0.000000 
0.001204 0.099173 0.000000 
0.145006 -0.151804 0.000000 
0.248340 -0.002632 0.000000 
0.126293 -0.025803 0.000000 
0.500000 0.012141 0.000000 
0.375494 0.010240 0.000000 
0.379546 -0.100000 0.000000 
0.374612 0.248940 0.000000 
0.373161 0.125485 0.000000 
0.500000 0.251207 0.000000 
0.620454 -0.100000 0.000000 
0.624506 0.010240 0.000000 
0.873707 -0.025803 0.000000 
0.751660 -0.002632 0.000000 
0.854994 -0.151804 0.000000 
0.626839 0.125485 0.000000 
0.625388 0.248940 0.000000 
0.994666 -0.039018 0.000000 
0.877833 0.103900 0.000000 
0.863495 0.375928 0.000000 
0.872649 0.237330 0.000000 
0.992605 0.239542 0.000000 
0.750029 0.242994 0.000000 
0.622197 0.381659 0.000000 
0.970800 0.525510 0.000000 
0.854253 0.520745 0.000000 
0.852780 0.834030 0.000000 
0.848679 0.673014 0.000000 
0.964613 0.827450 0.000000 
0.737209 0.521910 0.000000 
0.619031 0.524210 0.000000 
0.875000 1.000000 0.000000 
0.737513 0.835608 0.000000 
0.500000 0.836301 0.000000 
0.619392 0.836128 0.000000 
0.625000 1.000000 0.000000 
0.617559 0.676320 0.000000 
0.500000 0.525219 0.000000 
0.375000 1.000000 0.000000 
0.380608 0.836128 0.000000 
0.147220 0.834030 0.000000 
0.262487 0.835608 0.000000 
0.125000 1.000000 0.000000 
0.382441 0.676320 0.000000 
0.380969 0.524210 0.000000 
0.035387 0.827450 0.000000 
0.151321 0.673014 0.000000 
0.136505 0.375928 0.000000 
0.145747 0.520745 0.000000 
0.029200 0.525510 0.000000 
0.262791 0.521910 0.000000 
0.377803 0.381659 0.000000 
0.007395 0.239542 0.000000 
0.127351 0.237330 0.000000 
0.122167 0.103900 0.000000 
0.005334 -0.039018 0.000000 
0.249971 0.242994 0.000000 
0.081614 -0.160954 0.000000 
0.133975 -0.089681 0.000000 
0.073093 -0.098170 0.000000 
0.253022 -0.057966 0.000000 
0.193536 -0.076708 0.000000 
0.208928 -0.137304 0.000000 
0.183893 0.046809 0.000000 
0.186582 -0.015085 0.000000 
0.246358 0.055620 0.000000 
0.500000 -0.044384 0.000000 
0.439094 -0.044534 0.000000 
0.439635 -0.100000 0.000000 
0.437045 0.068989 0.000000 
0.437967 0.011750 0.000000 
0.500000 0.069585 0.000000 
0.320265 -0.100000 0.000000 
0.378074 -0.045172 0.000000 
0.316337 -0.047469 0.000000 
0.438006 0.315488 0.000000 
0.437275 0.250631 0.000000 
0.500000 0.315970 0.000000 
0.309564 0.121618 0.000000 
0.373544 0.186107 0.000000 
0.310397 0.182835 0.000000 
0.500000 0.188735 0.000000 
0.436778 0.188081 0.000000 
0.436657 0.127632 0.000000 
0.312093 0.006244 0.000000 
0.373742 0.066939 0.000000 
0.309983 0.062684 0.000000 
0.560365 -0.100000 0.000000 
0.560906 -0.044534 0.000000 
0.683663 -0.047469 0.000000 
0.621926 -0.045172 0.000000 
0.679735 -0.100000 0.000000 
0.562033 0.011750 0.000000 
0.562955 0.068989 0.000000 
0.926907 -0.098170 0.000000 
0.866025 -0.089681 0.000000 
0.918386 -0.160954 0.000000 
0.753642 0.055620 0.000000 
0.813418 -0.015085 0.000000 
0.816107 0.046809 0.000000 
0.791072 -0.137304 0.000000 
0.806464 -0.076708 0.000000 
0.746978 -0.057966 0.000000 
0.562725 0.250631 0.000000 
0.561994 0.315488 0.000000 
0.563343 0.127632 0.000000 
0.563222 0.188081 0.000000 
0.689603 0.182835 0.000000 
0.626456 0.186107 0.000000 
0.690436 0.121618 0.000000 
0.687907 0.006244 0.000000 
0.690017 0.062684 0.000000 
0.626258 0.066939 0.000000 
0.988126 -0.105181 0.000000 
0.934113 -0.033376 0.000000 
0.938662 0.100054 0.000000 
0.938043 0.032842 0.000000 
0.998349 0.029507 0.000000 
0.877346 0.038711 0.000000 
0.816260 0.109682 0.000000 
0.922847 0.377171 0.000000 
0.928163 0.306536 0.000000 
0.987494 0.310131 0.000000 
0.807894 0.307214 0.000000 
0.868303 0.305917 0.000000 
0.803739 0.376515 0.000000 
0.996609 0.169250 0.000000 
0.932964 0.236878 0.000000 
0.936696 0.168074 0.000000 
0.623893 0.314093 0.000000 
0.561151 0.382790 0.000000 
0.752413 0.178538 0.000000 
0.687880 0.246277 0.000000 
0.683036 0.379980 0.000000 
0.685591 0.311973 0.000000 
0.746964 0.309490 0.000000 
0.876026 0.170039 0.000000 
0.811657 0.239718 0.000000 
0.814601 0.173918 0.000000 
0.976138 0.452932 0.000000 
0.917490 0.448931 0.000000 
0.908416 0.596499 0.000000 
0.912522 0.521979 0.000000 
0.966291 0.599081 0.000000 
0.858669 0.447489 0.000000 
0.799591 0.447725 0.000000 
0.918643 0.915464 0.000000 
0.908836 0.831685 0.000000 
0.972749 0.907671 0.000000 
0.791495 0.673826 0.000000 
0.848964 0.752391 0.000000 
0.792115 0.753523 0.000000 
0.962208 0.749799 0.000000 
0.905432 0.750952 0.000000 
0.905766 0.672718 0.000000 
0.620507 0.451695 0.000000 
0.560308 0.452611 0.000000 
0.740204 0.448880 0.000000 
0.680498 0.450352 0.000000 
0.676641 0.598246 0.000000 
0.678265 0.523116 0.000000 
0.734975 0.597215 0.000000 
0.850722 0.595859 0.000000 
0.792972 0.596293 0.000000 
0.795853 0.520950 0.000000 
0.937500 1.000000 0.000000 
0.861525 0.917282 0.000000 
0.742767 0.917772 0.000000 
0.802584 0.917681 0.000000 
0.812500 1.000000 0.000000 
0.795627 0.835086 0.000000 
0.734639 0.754362 0.000000 
0.500000 0.917826 0.000000 
0.560945 0.917820 0.000000 
0.562500 1.000000 0.000000 
0.559076 0.755747 0.000000 
0.559773 0.836255 0.000000 
0.500000 0.755848 0.000000 
0.687500 1.000000 0.000000 
0.621793 0.917810 0.000000 
0.682441 0.917797 0.000000 
0.559575 0.524955 0.000000 
0.500000 0.452933 0.000000 
0.675959 0.675625 0.000000 
0.617977 0.599140 0.000000 
0.500000 0.599948 0.000000 
0.559057 0.599737 0.000000 
0.558859 0.676769 0.000000 
0.678697 0.835921 0.000000 
0.617983 0.755459 0.000000 
0.676555 0.754996 0.000000 
0.437500 1.000000 0.000000 
0.439055 0.917820 0.000000 
0.317559 0.917797 0.000000 
0.378207 0.917810 0.000000 
0.312500 1.000000 0.000000 
0.440227 0.836255 0.000000 
0.440924 0.755747 0.000000 
0.081357 0.915464 0.000000 
0.138475 0.917282 0.000000 
0.062500 1.000000 0.000000 
0.265361 0.754362 0.000000 
0.204373 0.835086 0.000000 
0.207885 0.753523 0.000000 
0.187500 1.000000 0.000000 
0.197416 0.917681 0.000000 
0.257233 0.917772 0.000000 
0.440425 0.524955 0.000000 
0.439692 0.452611 0.000000 
0.441141 0.676769 0.000000 
0.440943 0.599737 0.000000 
0.323359 0.598246 0.000000 
0.382023 0.599140 0.000000 
0.324041 0.675625 0.000000 
0.321303 0.835921 0.000000 
0.323445 0.754996 0.000000 
0.382017 0.755459 0.000000 
0.027251 0.907671 0.000000 
0.091164 0.831685 0.000000 
0.094234 0.672718 0.000000 
0.094568 0.750952 0.000000 
0.037792 0.749799 0.000000 
0.151036 0.752391 0.000000 
0.208505 0.673826 0.000000 
0.077153 0.377171 0.000000 
0.082510 0.448931 0.000000 
0.023862 0.452932 0.000000 
0.200409 0.447725 0.000000 
0.141331 0.447489 0.000000 
0.196261 0.376515 0.000000 
0.033709 0.599081 0.000000 
0.087478 0.521979 0.000000 
0.091584 0.596499 0.000000 
0.379493 0.451695 0.000000 
0.438849 0.382790 0.000000 
0.265025 0.597215 0.000000 
0.321735 0.523116 0.000000 
0.316964 0.379980 0.000000 
0.319502 0.450352 0.000000 
0.259796 0.448880 0.000000 
0.149278 0.595859 0.000000 
0.204147 0.520950 0.000000 
0.207028 0.596293 0.000000 
0.012506 0.310131 0.000000 
0.071837 0.306536 0.000000 
0.063304 0.168074 0.000000 
0.067036 0.236878 0.000000 
0.003391 0.169250 0.000000 
0.131697 0.305917 0.000000 
0.192106 0.307214 0.000000 
0.065887 -0.033376 0.000000 
0.011874 -0.105181 0.000000 
0.183740 0.109682 0.000000 
0.122654 0.038711 0.000000 
0.001651 0.029507 0.000000 
0.061957 0.032842 0.000000 
0.061338 0.100054 0.000000 
0.376107 0.314093 0.000000 
0.253036 0.309490 0.000000 
0.314409 0.311973 0.000000 
0.312120 0.246277 0.000000 
0.247587 0.178538 0.000000 
0.123974 0.170039 0.000000 
0.185399 0.173918 0.000000 
0.188343 0.239718 0.000000 
0.050369 -0.164711 0.000000 
0.077416 -0.129836 0.000000 
0.046483 -0.133471 0.000000 
0.139305 -0.121083 0.000000 
0.108393 -0.125837 0.000000 
0.113171 -0.156784 0.000000 
0.099460 -0.062282 0.000000 
0.103635 -0.094296 0.000000 
0.129591 -0.057853 0.000000 
0.257250 -0.083873 0.000000 
0.228888 -0.097138 0.000000 
0.240161 -0.125759 0.000000 
0.219379 -0.038333 0.000000 
0.222877 -0.067721 0.000000 
0.250250 -0.030752 0.000000 
0.177002 -0.145539 0.000000 
0.199978 -0.107442 0.000000 
0.169951 -0.115141 0.000000 
0.214682 0.081885 0.000000 
0.214943 0.051282 0.000000 
0.246102 0.085590 0.000000 
0.156389 -0.020854 0.000000 
0.184855 0.015775 0.000000 
0.154343 0.010787 0.000000 
0.247080 0.026193 0.000000 
0.215730 0.021069 0.000000 
0.217146 -0.008782 0.000000 
0.163973 -0.083949 0.000000 
0.189320 -0.045881 0.000000 
0.159510 -0.052441 0.000000 
0.500000 -0.072325 0.000000 
0.469735 -0.072338 0.000000 
0.469802 -0.100000 0.000000 
0.469291 -0.016286 0.000000 
0.469551 -0.044418 0.000000 
0.500000 -0.016224 0.000000 
0.409534 -0.100000 0.000000 
0.439491 -0.072388 0.000000 
0.409284 -0.072484 0.000000 
0.468408 0.098599 0.000000 
0.468546 0.069440 0.000000 
0.500000 0.098760 0.000000 
0.406818 0.011187 0.000000 
0.437448 0.040223 0.000000 
0.406038 0.039518 0.000000 
0.500000 0.040730 0.000000 
0.468751 0.040608 0.000000 
0.469009 0.012048 0.000000 
0.291525 -0.100000 0.000000 
0.318931 -0.073651 0.000000 
0.288369 -0.075654 0.000000 
0.379133 -0.072656 0.000000 
0.349040 -0.072974 0.000000 
0.349743 -0.100000 0.000000 
0.345531 -0.018782 0.000000 
0.347381 -0.045931 0.000000 
0.376753 -0.017573 0.000000 
0.438547 -0.016489 0.000000 
0.407724 -0.016882 0.000000 
0.408614 -0.044762 0.000000 
0.469203 0.349153 0.000000 
[...]
POINT_DATA 16641

SCALARS u_h float 2
LOOKUP_TABLE default
0.019341 -0.168400 
-0.019341 -0.168400 
0.000000 0.000000 
0.000000 0.000000 
0.000000 -0.100000 
-0.018155 -0.118791 
0.000000 0.000000 
0.018155 -0.118791 
0.000000 -0.116835 
0.017529 -0.106951 
0.000000 -0.121691 
-0.003745 -0.133926 
-0.017529 -0.106951 
0.003745 -0.133926 
-0.001204 -0.150827 
-0.006426 -0.121906 
-0.036829 -0.076215 
-0.016050 -0.075242 
0.000000 0.000000 
0.000000 -0.073073 
0.000000 0.000000 
0.016050 -0.075242 
0.036829 -0.076215 
0.006426 -0.121906 
0.001204 -0.150827 
0.020006 -0.151804 
-0.001660 -0.127632 
0.001293 -0.150803 
0.000000 -0.112859 
0.000494 -0.114760 
0.004546 -0.100000 
-0.000388 -0.126060 
-0.001839 -0.124515 
0.000000 -0.123793 
-0.004546 -0.100000 
-0.000494 -0.114760 
-0.001293 -0.150803 
0.001660 -0.127632 
-0.020006 -0.151804 
0.001839 -0.124515 
0.000388 -0.126060 
-0.005334 -0.164018 
0.002833 -0.146100 
-0.011505 -0.124072 
-0.002351 -0.137670 
-0.007395 -0.135458 
0.000029 -0.132006 
-0.002803 -0.118341 
-0.029200 -0.099490 
-0.020747 -0.104255 
-0.022220 -0.040970 
-0.026321 -0.076986 
-0.035387 -0.047550 
-0.012791 -0.103090 
-0.005969 -0.100790 
0.000000 0.000000 
-0.012487 -0.039392 
-0.000000 -0.038699 
-0.005608 -0.038872 
0.000000 0.000000 
-0.007441 -0.073680 
0.000000 -0.099781 
0.000000 0.000000 
0.005608 -0.038872 
0.022220 -0.040970 
0.012487 -0.039392 
0.000000 0.000000 
0.007441 -0.073680 
0.005969 -0.100790 
0.035387 -0.047550 
0.026321 -0.076986 
0.011505 -0.124072 
0.020747 -0.104255 
0.029200 -0.099490 
0.012791 -0.103090 
0.002803 -0.118341 
0.007395 -0.135458 
0.002351 -0.137670 
-0.002833 -0.146100 
0.005334 -0.164018 
-0.000029 -0.132006 
0.019114 -0.160954 
0.008975 -0.152181 
0.010593 -0.160670 
0.003022 -0.120466 
0.006036 -0.139208 
0.021428 -0.137304 
-0.003607 -0.140691 
-0.000918 -0.140085 
-0.003642 -0.131880 
0.000000 -0.106884 
0.001594 -0.107034 
0.002135 -0.100000 
-0.000455 -0.118511 
0.000467 -0.113250 
0.000000 -0.117915 
0.007765 -0.100000 
0.003074 -0.107672 
0.003837 -0.109969 
0.000506 -0.122012 
-0.000225 -0.124369 
0.000000 -0.121530 
-0.002936 -0.128382 
-0.001456 -0.126393 
-0.002103 -0.129665 
0.000000 -0.123765 
-0.000722 -0.124419 
-0.000843 -0.122368 
-0.000407 -0.118756 
-0.001258 -0.120561 
-0.002517 -0.124816 
-0.002135 -0.100000 
-0.001594 -0.107034 
-0.003837 -0.109969 
-0.003074 -0.107672 
-0.007765 -0.100000 
-0.000467 -0.113250 
0.000455 -0.118511 
-0.010593 -0.160670 
-0.008975 -0.152181 
-0.019114 -0.160954 
0.003642 -0.131880 
0.000918 -0.140085 
0.003607 -0.140691 
-0.021428 -0.137304 
-0.006036 -0.139208 
-0.003022 -0.120466 
0.000225 -0.124369 
-0.000506 -0.122012 
0.000843 -0.122368 
0.000722 -0.124419 
0.002103 -0.129665 
0.001456 -0.126393 
0.002936 -0.128382 
0.000407 -0.118756 
0.002517 -0.124816 
0.001258 -0.120561 
-0.011874 -0.167681 
-0.003387 -0.158376 
0.001162 -0.149946 
0.000543 -0.154658 
-0.001651 -0.157993 
0.002346 -0.148789 
0.003760 -0.140318 
-0.014653 -0.122829 
-0.009337 -0.130964 
-0.012506 -0.127369 
-0.004606 -0.130286 
-0.006697 -0.131583 
-0.008761 -0.123485 
-0.003391 -0.143250 
-0.004536 -0.138122 
-0.000804 -0.144426 
-0.001107 -0.123407 
-0.001349 -0.117210 
0.002413 -0.133962 
0.000380 -0.128723 
-0.004464 -0.120020 
-0.001909 -0.125527 
-0.003036 -0.128010 
0.001026 -0.142461 
-0.000843 -0.135282 
0.002101 -0.138582 
-0.023862 -0.109568 
-0.020010 -0.113569 
-0.029084 -0.091001 
-0.024978 -0.103021 
-0.033709 -0.088419 
-0.016331 -0.115011 
-0.012909 -0.114775 
-0.018857 -0.022036 
-0.028664 -0.043315 
-0.027251 -0.029829 
-0.021005 -0.076174 
-0.026036 -0.060109 
-0.020385 -0.058977 
-0.037792 -0.062701 
-0.032068 -0.061548 
-0.031734 -0.077282 
-0.004493 -0.110805 
-0.002192 -0.109889 
-0.009796 -0.113620 
-0.007002 -0.112148 
-0.010859 -0.089254 
-0.009235 -0.101884 
-0.015025 -0.090285 
-0.024278 -0.091641 
-0.019528 -0.091207 
-0.016647 -0.104050 
0.000000 0.000000 
-0.013475 -0.020218 
-0.007233 -0.019728 
-0.009916 -0.019819 
0.000000 0.000000 
-0.016873 -0.039914 
-0.015361 -0.058138 
-0.000000 -0.019674 
-0.001555 -0.019680 
0.000000 0.000000 
-0.003424 -0.056753 
-0.002727 -0.038745 
0.000000 -0.056652 
0.000000 0.000000 
-0.003207 -0.019690 
-0.005059 -0.019703 
-0.002925 -0.100045 
0.000000 -0.109567 
-0.011541 -0.074375 
-0.007023 -0.088360 
0.000000 -0.087552 
-0.003443 -0.087763 
-0.003641 -0.073231 
-0.008803 -0.039079 
-0.007017 -0.057041 
-0.010945 -0.057504 
0.000000 0.000000 
0.001555 -0.019680 
0.005059 -0.019703 
0.003207 -0.019690 
0.000000 0.000000 
0.002727 -0.038745 
0.003424 -0.056753 
0.018857 -0.022036 
0.013475 -0.020218 
0.000000 0.000000 
0.015361 -0.058138 
0.016873 -0.039914 
0.020385 -0.058977 
0.000000 0.000000 
0.009916 -0.019819 
0.007233 -0.019728 
0.002925 -0.100045 
0.002192 -0.109889 
0.003641 -0.073231 
0.003443 -0.087763 
0.010859 -0.089254 
0.007023 -0.088360 
0.011541 -0.074375 
0.008803 -0.039079 
0.010945 -0.057504 
0.007017 -0.057041 
0.027251 -0.029829 
0.028664 -0.043315 
0.031734 -0.077282 
0.032068 -0.061548 
0.037792 -0.062701 
0.026036 -0.060109 
0.021005 -0.076174 
0.014653 -0.122829 
0.020010 -0.113569 
0.023862 -0.109568 
0.012909 -0.114775 
0.016331 -0.115011 
0.008761 -0.123485 
0.033709 -0.088419 
0.024978 -0.103021 
0.029084 -0.091001 
0.004493 -0.110805 
0.001349 -0.117210 
0.015025 -0.090285 
0.009235 -0.101884 
0.004464 -0.120020 
0.007002 -0.112148 
0.009796 -0.113620 
0.024278 -0.091641 
0.016647 -0.104050 
0.019528 -0.091207 
0.012506 -0.127369 
0.009337 -0.130964 
0.000804 -0.144426 
0.004536 -0.138122 
0.003391 -0.143250 
0.006697 -0.131583 
0.004606 -0.130286 
0.003387 -0.158376 
0.011874 -0.167681 
-0.003760 -0.140318 
-0.002346 -0.148789 
0.001651 -0.157993 
-0.000543 -0.154658 
-0.001162 -0.149946 
0.001107 -0.123407 
0.003036 -0.128010 
0.001909 -0.125527 
-0.000380 -0.128723 
-0.002413 -0.133962 
-0.001026 -0.142461 
-0.002101 -0.138582 
0.000843 -0.135282 
0.019119 -0.164711 
0.014916 -0.161086 
0.015233 -0.164721 
0.014305 -0.152333 
0.014643 -0.157087 
0.019421 -0.156784 
0.005710 -0.156032 
0.009885 -0.156796 
0.004591 -0.151603 
0.007250 -0.115123 
0.010138 -0.128388 
0.021411 -0.125759 
0.000629 -0.132083 
0.004127 -0.130221 
0.000250 -0.124502 
0.020752 -0.145539 
0.012478 -0.138692 
0.013701 -0.146391 
-0.004068 -0.136865 
-0.003807 -0.136218 
-0.003898 -0.133160 
0.000139 -0.145854 
-0.002645 -0.140475 
-0.001907 -0.145463 
-0.002920 -0.130057 
-0.003020 -0.135181 
-0.001604 -0.133782 
0.007723 -0.146449 
0.001820 -0.139631 
0.003260 -0.146191 
0.000000 -0.103575 
0.000985 -0.103588 
0.001052 -0.100000 
0.000541 -0.110036 
0.000801 -0.106918 
0.000000 -0.109974 
0.003284 -0.100000 
0.001991 -0.103638 
0.003034 -0.103734 
-0.000342 -0.120151 
-0.000204 -0.118060 
0.000000 -0.119990 
0.000568 -0.113813 
-0.000052 -0.116027 
-0.000212 -0.116732 
0.000000 -0.115520 
0.000001 -0.115642 
0.000259 -0.112952 
0.010275 -0.100000 
0.006431 -0.104901 
0.007119 -0.106904 
0.004133 -0.103906 
0.005290 -0.104224 
0.005993 -0.100000 
0.001781 -0.112532 
0.003631 -0.108431 
0.001753 -0.111323 
0.001047 -0.110239 
0.001474 -0.110632 
0.002364 -0.107262 
0.000453 -0.119597 
0.000247 -0.121651 
0.000000 -0.119490 
-0.000319 -0.125081 
0.000120 -0.123489 
0.000204 -0.124140 
0.000000 -0.122959 
0.000055 -0.123093 
-0.000116 -0.123938 
-0.003412 -0.130975 
-0.002652 -0.129302 
-0.003009 -0.131616 
-0.001750 -0.125723 
-0.002217 -0.127326 
-0.002392 -0.126222 
-0.001189 -0.127864 
-0.001803 -0.127875 
-0.000991 -0.126510 
0.000000 -0.122965 
-0.000413 -0.123134 
-0.000410 -0.121859 
-0.000256 -0.124208 
-0.000358 -0.123929 
0.000000 -0.124052 
-0.001318 -0.123242 
-0.000838 -0.123640 
-0.001285 -0.124498 
-0.000759 -0.125441 
-0.001090 -0.125239 
-0.000511 -0.124671 
0.003441 -0.113394 
0.000177 -0.116301 
0.001439 -0.114692 
0.000761 -0.118496 
-0.001134 -0.122485 
-0.000719 -0.120643 
-0.001686 -0.122787 
-0.001162 -0.121502 
-0.000796 -0.119316 
-0.000531 -0.117867 
-0.003481 -0.129781 
-0.002408 -0.125606 
-0.003166 -0.128009 
-0.002908 -0.126893 
-0.002283 -0.124565 
-0.001037 -0.119595 
-0.001846 -0.122356 
-0.001704 -0.122118 
-0.001052 -0.100000 
-0.000985 -0.103588 
-0.003034 -0.103734 
-0.001991 -0.103638 
-0.003284 -0.100000 
-0.000801 -0.106918 
-0.000541 -0.110036 
-0.007119 -0.106904 
-0.006431 -0.104901 
-0.010275 -0.100000 
-0.001753 -0.111323 
-0.003631 -0.108431 
-0.001781 -0.112532 
-0.005993 -0.100000 
-0.005290 -0.104224 
-0.004133 -0.103906 
0.000204 -0.118060 
0.000342 -0.120151 
-0.000259 -0.112952 
-0.000001 -0.115642 
0.000212 -0.116732 
0.000052 -0.116027 
-0.000568 -0.113813 
-0.002364 -0.107262 
-0.001474 -0.110632 
-0.001047 -0.110239 
-0.015233 -0.164721 
-0.014916 -0.161086 
-0.019119 -0.164711 
-0.004591 -0.151603 
-0.009885 -0.156796 
-0.005710 -0.156032 
-0.019421 -0.156784 
-0.014643 -0.157087 
-0.014305 -0.152333 
0.003898 -0.133160 
0.003807 -0.136218 
0.004068 -0.136865 
0.001604 -0.133782 
0.003020 -0.135181 
0.002920 -0.130057 
0.001907 -0.145463 
0.002645 -0.140475 
-0.000139 -0.145854 
-0.021411 -0.125759 
-0.010138 -0.128388 
-0.007250 -0.115123 
-0.013701 -0.146391 
-0.012478 -0.138692 
-0.020752 -0.145539 
-0.000250 -0.124502 
-0.004127 -0.130221 
-0.000629 -0.132083 
-0.003260 -0.146191 
-0.001820 -0.139631 
-0.007723 -0.146449 
-0.000247 -0.121651 
-0.000453 -0.119597 
0.000116 -0.123938 
-0.000055 -0.123093 
-0.000204 -0.124140 
-0.000120 -0.123489 
0.000319 -0.125081 
0.000410 -0.121859 
0.000413 -0.123134 
0.001285 -0.124498 
0.000838 -0.123640 
0.001318 -0.123242 
0.000358 -0.123929 
0.000256 -0.124208 
0.003009 -0.131616 
0.002652 -0.129302 
0.003412 -0.130975 
0.000991 -0.126510 
0.001803 -0.127875 
0.001189 -0.127864 
0.002392 -0.126222 
0.002217 -0.127326 
0.001750 -0.125723 
0.000511 -0.124671 
0.001090 -0.125239 
0.000759 -0.125441 
-0.003441 -0.113394 
0.001134 -0.122485 
-0.000761 -0.118496 
-0.001439 -0.114692 
-0.000177 -0.116301 
0.003481 -0.129781 
0.002283 -0.124565 
0.002908 -0.126893 
0.003166 -0.128009 
0.002408 -0.125606 
0.000719 -0.120643 
0.000531 -0.117867 
0.000796 -0.119316 
0.001162 -0.121502 
0.001686 -0.122787 
0.001704 -0.122118 
0.001846 -0.122356 
0.001037 -0.119595 
-0.015634 -0.168361 
-0.011221 -0.164166 
-0.004330 -0.161327 
-0.007477 -0.163020 
-0.008336 -0.166220 
-0.006643 -0.159739 
-0.002389 -0.154933 
0.000078 -0.150826 
0.000181 -0.153843 
-0.001049 -0.154492 
0.002141 -0.150287 
0.001228 -0.152410 
0.002079 -0.148331 
-0.003077 -0.161219 
-0.000477 -0.156648 
-0.001973 -0.159171 
0.003946 -0.140657 
0.003873 -0.137101 
0.000980 -0.149865 
0.003086 -0.144964 
0.003404 -0.143378 
0.003548 -0.144288 
0.002927 -0.147547 
-0.000981 -0.156661 
0.001481 -0.152037 
-0.000002 -0.153588 
-0.016365 -0.121224 
-0.013576 -0.125518 
-0.015294 -0.123155 
-0.010458 -0.127816 
-0.011961 -0.127027 
-0.013031 -0.123737 
-0.009851 -0.131461 
-0.010860 -0.129608 
-0.008273 -0.133516 
-0.005630 -0.126247 
-0.006660 -0.127117 
-0.007544 -0.122772 
-0.004436 -0.134796 
-0.005583 -0.131112 
-0.003467 -0.134076 
-0.010081 -0.123952 
-0.007806 -0.127742 
-0.009072 -0.128013 
-0.002020 -0.147068 
-0.001999 -0.144315 
-0.000684 -0.147642 
-0.005883 -0.137260 
-0.003763 -0.140856 
-0.005214 -0.139382 
-0.001411 -0.141111 
-0.002496 -0.141375 
-0.003358 -0.138208 
-0.007948 -0.131576 
-0.005561 -0.135035 
-0.006840 -0.134656 
-0.000921 -0.119923 
-0.000668 -0.116916 
-0.000321 -0.125030 
-0.000789 -0.122603 
-0.002057 -0.117692 
-0.001413 -0.120457 
-0.001943 -0.121180 
0.003234 -0.134192 
0.002319 -0.131719 
0.000259 -0.130319 
0.001388 -0.131287 
0.001328 -0.133235 
0.001331 -0.129473 
0.000415 -0.127286 
-0.005402 -0.120965 
-0.003896 -0.124141 
-0.004712 -0.125226 
-0.002525 -0.122063 
-0.003171 -0.123066 
-0.003601 -0.119130 
-0.001441 -0.130267 
-0.002424 -0.126754 
-0.001025 -0.128810 
-0.000484 -0.126132 
-0.000713 -0.127410 
-0.001475 -0.124394 
0.000449 -0.147283 
-0.000506 -0.140220 
0.000204 -0.143756 
0.001398 -0.146159 
0.002168 -0.144414 
-0.003760 -0.129218 
-0.000333 -0.133695 
-0.001978 -0.131697 
-0.002650 -0.133003 
-0.001514 -0.136650 
0.003282 -0.136915 
0.002748 -0.142189 
0.003122 -0.139635 
0.002348 -0.136293 
0.001126 -0.135223 
0.000217 -0.138848 
0.000760 -0.137137 
0.001661 -0.140688 
-0.021027 -0.114278 
-0.019163 -0.116708 
-0.024584 -0.106918 
-0.021920 -0.111946 
-0.026604 -0.104644 
-0.017353 -0.118349 
-0.015610 -0.119322 
-0.033112 -0.083702 
-0.031433 -0.090018 
-0.035484 -0.082468 
-0.022855 -0.103868 
-0.027172 -0.097208 
-0.024915 -0.097907 
-0.031590 -0.094087 
-0.029403 -0.095977 
-0.027098 -0.101602 
-0.010861 -0.119375 
-0.009453 -0.118784 
-0.013943 -0.119744 
-0.012358 -0.119727 
-0.016707 -0.109910 
-0.014584 -0.115052 
-0.018618 -0.109854 
-0.022570 -0.108467 
-0.020577 -0.109408 
-0.018144 -0.114553 
-0.013495 -0.012423 
-0.022773 -0.024731 
-0.019160 -0.018888 
-0.025318 -0.041918 
-0.024804 -0.033065 
-0.021438 -0.031560 
-0.032280 -0.039129 
-0.028549 -0.035555 
-0.032113 -0.045239 
-0.018473 -0.075708 
-0.021006 -0.067837 
-0.018412 -0.067366 
-0.026535 -0.068834 
-0.023722 -0.068331 
-0.023629 -0.076612 
-0.021747 -0.050148 
-0.023139 -0.059500 
-0.024660 -0.050809 
-0.037641 -0.069636 
-0.035034 -0.069861 
-0.034349 -0.076996 
-0.034139 -0.054077 
-0.035026 -0.062247 
-0.037115 -0.055363 
-0.029039 -0.077237 
-0.032261 -0.069692 
-0.029402 -0.069310 
-0.027754 -0.051678 
-0.029036 -0.060802 
-0.030958 -0.052783 
-0.001778 -0.113866 
-0.000884 -0.113601 
-0.003662 -0.114884 
-0.002700 -0.114300 
-0.003903 -0.105632 
-0.003322 -0.110280 
-0.005270 -0.106105 
-0.008135 -0.118040 
-0.006904 -0.117218 
-0.009732 -0.107985 
-0.008360 -0.112892 
-0.011363 -0.108638 
-0.005753 -0.116383 
-0.004676 -0.115590 
-0.013480 -0.082550 
-0.012898 -0.089765 
-0.015719 -0.083036 
-0.007569 -0.101306 
-0.010143 -0.095860 
-0.008318 -0.095335 
-0.014030 -0.096972 
-0.012046 -0.096417 
-0.010975 -0.102492 
-0.005716 -0.111439 
-0.008176 -0.107315 
-0.006691 -0.106676 
-0.030637 -0.084370 
-0.025531 -0.084580 
-0.028096 -0.084623 
-0.026689 -0.091502 
-0.022657 -0.098191 
-0.018055 -0.083519 
-0.016092 -0.097483 
-0.017238 -0.090779 
-0.020481 -0.083966 
-0.022981 -0.084338 
-0.011312 -0.114271 
-0.018673 -0.104285 
-0.014855 -0.109671 
-0.013072 -0.109222 
-0.014683 -0.103629 
-0.021882 -0.091516 
-0.018226 -0.097899 
-0.020420 -0.098159 
0.000000 0.000000 
-0.010347 -0.010627 
-0.007156 -0.009875 
-0.008480 -0.010070 
0.000000 0.000000 
-0.015836 -0.020791 
-0.018530 -0.030699 
-0.003813 -0.009825 
-0.004483 -0.009808 
0.000000 0.000000 
-0.011889 -0.029738 
-0.008495 -0.019757 
-0.010149 -0.029620 
0.000000 0.000000 
-0.005239 -0.009798 
-0.006112 -0.009810 
-0.017792 -0.058528 
-0.015952 -0.066928 
-0.019410 -0.040340 
-0.019039 -0.049643 
-0.014220 -0.048932 
-0.016534 -0.049249 
-0.014577 -0.039614 
-0.011548 -0.019948 
-0.013830 -0.029918 
-0.016021 -0.030207 
-0.000000 -0.009896 
-0.000405 -0.009896 
0.000000 0.000000 
-0.001090 -0.029299 
-0.000772 -0.019677 
-0.000000 -0.029292 
0.000000 0.000000 
-0.000816 -0.009894 
-0.001240 -0.009889 
-0.001784 -0.065116 
-0.001701 -0.056679 
0.000000 -0.065082 
-0.004139 -0.038798 
-0.003137 -0.047911 
-0.004758 -0.047998 
0.000000 -0.047839 
-0.001558 -0.047858 
-0.001354 -0.038712 
0.000000 0.000000 
-0.002662 -0.009859 
-0.003210 -0.009843 
-0.001685 -0.009882 
-0.002156 -0.009872 
0.000000 0.000000 
-0.005781 -0.029417 
-0.004101 -0.019696 
-0.004525 -0.029374 
-0.002197 -0.029315 
-0.003337 -0.029340 
-0.002363 -0.019685 
-0.001090 -0.109648 
0.000000 -0.113513 
-0.004425 -0.100363 
-0.002579 -0.105279 
0.000000 -0.104987 
-0.001282 -0.105061 
-0.001455 -0.099848 
-0.013740 -0.074792 
-0.011339 -0.082083 
-0.007325 -0.081286 
-0.009290 -0.081657 
-0.009445 -0.074000 
-0.008903 -0.088778 
-0.006562 -0.094869 
0.000000 -0.080577 
-0.001785 -0.080625 
-0.001811 -0.073114 
-0.001601 -0.094023 
-0.001713 -0.087606 
0.000000 -0.093963 
-0.005512 -0.073421 
-0.003589 -0.080762 
-0.005430 -0.080985 
-0.004866 -0.094486 
-0.005208 -0.088018 
-0.003217 -0.094200 
-0.006096 -0.019712 
-0.007156 -0.038965 
-0.007122 -0.029469 
-0.008570 -0.029534 
-0.010571 -0.039219 
-0.003590 -0.065212 
-0.007345 -0.065582 
-0.005437 -0.065368 
-0.005189 -0.056875 
-0.006440 -0.048116 
-0.013624 -0.066527 
-0.012075 -0.048670 
-0.013083 -0.057798 
-0.011423 -0.066165 
-0.009335 -0.065849 
-0.008207 -0.048267 
-0.008929 -0.057251 
-0.010077 -0.048451 
0.000000 0.000000 
0.000405 -0.009896 
0.001240 -0.009889 
0.000816 -0.009894 
0.000000 0.000000 
0.000772 -0.019677 
0.001090 -0.029299 
0.003210 -0.009843 
0.002662 -0.009859 
0.000000 0.000000 
0.004525 -0.029374 
0.004101 -0.019696 
0.005781 -0.029417 
0.000000 0.000000 
0.002156 -0.009872 
0.001685 -0.009882 
0.001701 -0.056679 
0.001784 -0.065116 
0.001354 -0.038712 
0.001558 -0.047858 
0.004758 -0.047998 
0.003137 -0.047911 
0.004139 -0.038798 
0.002363 -0.019685 
0.003337 -0.029340 
0.002197 -0.029315 
0.013495 -0.012423 
0.010347 -0.010627 
0.000000 0.000000 
0.018530 -0.030699 
0.015836 -0.020791 
0.021438 -0.031560 
0.000000 0.000000 
0.008480 -0.010070 
0.007156 -0.009875 
0.015952 -0.066928 
0.017792 -0.058528 
0.018412 -0.067366 
0.014577 -0.039614 
0.016534 -0.049249 
0.014220 -0.048932 
0.021747 -0.050148 
0.019039 -0.049643 
0.019410 -0.040340 
0.000000 0.000000 
0.004483 -0.009808 
0.003813 -0.009825 
0.006112 -0.009810 
0.005239 -0.009798 
0.000000 0.000000 
0.010149 -0.029620 
0.008495 -0.019757 
0.011889 -0.029738 
0.016021 -0.030207 
0.013830 -0.029918 
0.011548 -0.019948 
0.001090 -0.109648 
0.000884 -0.113601 
0.001455 -0.099848 
0.001282 -0.105061 
0.003903 -0.105632 
0.002579 -0.105279 
0.004425 -0.100363 
0.001811 -0.073114 
0.001785 -0.080625 
0.005430 -0.080985 
0.003589 -0.080762 
0.005512 -0.073421 
0.001713 -0.087606 
0.001601 -0.094023 
0.013480 -0.082550 
0.011339 -0.082083 
0.013740 -0.074792 
0.006562 -0.094869 
0.008903 -0.088778 
0.008318 -0.095335 
0.009445 -0.074000 
0.009290 -0.081657 
0.007325 -0.081286 
0.003217 -0.094200 
0.005208 -0.088018 
0.004866 -0.094486 
0.006096 -0.019712 
0.010571 -0.039219 
0.008570 -0.029534 
0.007122 -0.029469 
0.007156 -0.038965 
0.013624 -0.066527 
0.009335 -0.065849 
0.011423 -0.066165 
0.013083 -0.057798 
0.012075 -0.048670 
0.003590 -0.065212 
0.006440 -0.048116 
0.005189 -0.056875 
0.005437 -0.065368 
0.007345 -0.065582 
0.010077 -0.048451 
0.008929 -0.057251 
0.008207 -0.048267 
0.019160 -0.018888 
0.022773 -0.024731 
0.032113 -0.045239 
0.028549 -0.035555 
0.032280 -0.039129 
0.024804 -0.033065 
0.025318 -0.041918 
0.034349 -0.076996 
0.035034 -0.069861 
0.037641 -0.069636 
0.029402 -0.069310 
0.032261 -0.069692 
0.029039 -0.077237 
0.037115 -0.055363 
0.035026 -0.062247 
0.034139 -0.054077 
0.021006 -0.067837 
0.018473 -0.075708 
0.024660 -0.050809 
0.023139 -0.059500 
0.023629 -0.076612 
0.023722 -0.068331 
0.026535 -0.068834 
0.030958 -0.052783 
0.029036 -0.060802 
0.027754 -0.051678 
0.016365 -0.121224 
0.019163 -0.116708 
0.021027 -0.114278 
0.015610 -0.119322 
0.017353 -0.118349 
0.013031 -0.123737 
0.026604 -0.104644 
0.021920 -0.111946 
0.024584 -0.106918 
0.009453 -0.118784 
0.010861 -0.119375 
0.007544 -0.122772 
0.018618 -0.109854 
0.014584 -0.115052 
0.016707 -0.109910 
0.010081 -0.123952 
0.012358 -0.119727 
0.013943 -0.119744 
0.035484 -0.082468 
0.031433 -0.090018 
0.033112 -0.083702 
0.027098 -0.101602 
0.029403 -0.095977 
0.031590 -0.094087 
0.024915 -0.097907 
0.027172 -0.097208 
0.022855 -0.103868 
0.018144 -0.114553 
0.020577 -0.109408 
0.022570 -0.108467 
0.001778 -0.113866 
0.000668 -0.116916 
0.005270 -0.106105 
0.003322 -0.110280 
0.002057 -0.117692 
0.002700 -0.114300 
0.003662 -0.114884 
0.015719 -0.083036 
0.012898 -0.089765 
0.010975 -0.102492 
0.012046 -0.096417 
0.014030 -0.096972 
0.010143 -0.095860 
0.007569 -0.101306 
0.005402 -0.120965 
0.006904 -0.117218 
0.008135 -0.118040 
0.004676 -0.115590 
0.005753 -0.116383 
0.003601 -0.119130 
0.011363 -0.108638 