# vtk DataFile Version 2.0
Unstructured Grid Example
ASCII
DATASET UNSTRUCTURED_GRID

POINTS 1089 float
0.019506 -0.171288 0.000000 
0.980494 -0.171288 0.000000 
1.000000 1.000000 0.000000 
0.000000 1.000000 0.000000 
0.500000 -0.100000 0.000000 
0.981375 0.379497 0.000000 
0.500000 1.000000 0.000000 
0.018625 0.379497 0.000000 
0.500000 0.381982 0.000000 
0.268608 -0.119496 0.000000 
0.500000 0.127611 0.000000 
0.246233 0.113686 0.000000 
0.731392 -0.119496 0.000000 
0.753767 0.113686 0.000000 
0.997931 0.096413 0.000000 
0.743522 0.376803 0.000000 
0.962948 0.672862 0.000000 
0.733929 0.674196 0.000000 
0.750000 1.000000 0.000000 
0.500000 0.676514 0.000000 
0.250000 1.000000 0.000000 
0.266071 0.674196 0.000000 
0.037052 0.672862 0.000000 
0.256478 0.376803 0.000000 
0.002069 0.096413 0.000000 
0.144774 -0.155337 0.000000 
0.248491 -0.006519 0.000000 
0.127126 -0.029233 0.000000 
0.500000 0.011894 0.000000 
0.375336 0.009391 0.000000 
0.380644 -0.100000 0.000000 
0.374480 0.247723 0.000000 
0.372908 0.124239 0.000000 
0.500000 0.250235 0.000000 
0.619356 -0.100000 0.000000 
0.624664 0.009391 0.000000 
0.872874 -0.029233 0.000000 
0.751509 -0.006519 0.000000 
0.855226 -0.155337 0.000000 
0.627092 0.124239 0.000000 
0.625520 0.247723 0.000000 
0.994077 -0.041549 0.000000 
0.877189 0.101050 0.000000 
0.863240 0.374354 0.000000 
0.872297 0.235184 0.000000 
0.991993 0.237129 0.000000 
0.750022 0.241259 0.000000 
0.622235 0.380616 0.000000 
0.970480 0.524174 0.000000 
0.854054 0.519632 0.000000 
0.852910 0.833827 0.000000 
0.848574 0.672344 0.000000 
0.964629 0.827051 0.000000 
0.737124 0.520986 0.000000 
0.618997 0.523415 0.000000 
0.875000 1.000000 0.000000 
0.737571 0.835369 0.000000 
0.500000 0.836143 0.000000 
0.619413 0.835892 0.000000 
0.625000 1.000000 0.000000 
0.617557 0.675820 0.000000 
0.500000 0.524478 0.000000 
0.375000 1.000000 0.000000 
0.380587 0.835892 0.000000 
0.147090 0.833827 0.000000 
0.262429 0.835369 0.000000 
0.125000 1.000000 0.000000 
0.382443 0.675820 0.000000 
0.381003 0.523415 0.000000 
0.035371 0.827051 0.000000 
0.151426 0.672344 0.000000 
0.136760 0.374354 0.000000 
0.145946 0.519632 0.000000 
0.029520 0.524174 0.000000 
0.262876 0.520986 0.000000 
0.377765 0.380616 0.000000 
0.008007 0.237129 0.000000 
0.127703 0.235184 0.000000 
0.122811 0.101050 0.000000 
0.005923 -0.041549 0.000000 
0.249978 0.241259 0.000000 
0.081669 -0.163993 0.000000 
0.134389 -0.093090 0.000000 
0.073351 -0.101110 0.000000 
0.253957 -0.064019 0.000000 
0.194548 -0.081322 0.000000 
0.208025 -0.142183 0.000000 
0.184440 0.043404 0.000000 
0.187468 -0.019219 0.000000 
0.246353 0.052687 0.000000 
0.500000 -0.044478 0.000000 
0.439343 -0.044640 0.000000 
0.440074 -0.100000 0.000000 
0.436915 0.068331 0.000000 
0.437959 0.011380 0.000000 
0.500000 0.069109 0.000000 
0.322941 -0.100000 0.000000 
0.378468 -0.045477 0.000000 
0.316295 -0.049055 0.000000 
0.437933 0.314435 0.000000 
0.437182 0.249585 0.000000 
0.500000 0.314916 0.000000 
0.309324 0.119830 0.000000 
0.373355 0.184852 0.000000 
0.310236 0.181215 0.000000 
0.500000 0.187871 0.000000 
0.436658 0.187092 0.000000 
0.436512 0.126764 0.000000 
0.311706 0.004202 0.000000 
0.373456 0.065795 0.000000 
0.309653 0.060728 0.000000 
0.559926 -0.100000 0.000000 
0.560657 -0.044640 0.000000 
0.683705 -0.049055 0.000000 
0.621532 -0.045477 0.000000 
0.677059 -0.100000 0.000000 
0.562041 0.011380 0.000000 
0.563085 0.068331 0.000000 
0.926649 -0.101110 0.000000 
0.865611 -0.093090 0.000000 
0.918331 -0.163993 0.000000 
0.753647 0.052687 0.000000 
0.812532 -0.019219 0.000000 
0.815560 0.043404 0.000000 
0.791975 -0.142183 0.000000 
0.805452 -0.081322 0.000000 
0.746043 -0.064019 0.000000 
0.562818 0.249585 0.000000 
0.562067 0.314435 0.000000 
0.563488 0.126764 0.000000 
0.563342 0.187092 0.000000 
0.689764 0.181215 0.000000 
0.626645 0.184852 0.000000 
0.690676 0.119830 0.000000 
0.688294 0.004202 0.000000 
0.690347 0.060728 0.000000 
0.626544 0.065795 0.000000 
0.987921 -0.107774 0.000000 
0.933438 -0.036319 0.000000 
0.937860 0.097303 0.000000 
0.937183 0.029945 0.000000 
0.997497 0.026824 0.000000 
0.876538 0.035501 0.000000 
0.815913 0.106886 0.000000 
0.922484 0.375487 0.000000 
0.927764 0.304568 0.000000 
0.986978 0.308044 0.000000 
0.807750 0.305524 0.000000 
0.868027 0.304071 0.000000 
0.803593 0.375077 0.000000 
0.995864 0.166593 0.000000 
0.932467 0.234622 0.000000 
0.936050 0.165548 0.000000 
0.623978 0.312950 0.000000 
0.561183 0.381785 0.000000 
0.752423 0.176521 0.000000 
0.687981 0.244817 0.000000 
0.683047 0.378828 0.000000 
0.685645 0.310667 0.000000 
0.746938 0.307989 0.000000 
0.875548 0.167558 0.000000 
0.811484 0.237738 0.000000 
0.814365 0.171583 0.000000 
0.975766 0.451391 0.000000 
0.917182 0.447489 0.000000 
0.908191 0.595504 0.000000 
0.912258 0.520760 0.000000 
0.966013 0.597952 0.000000 
0.858442 0.446154 0.000000 
0.799444 0.446506 0.000000 
0.919051 0.915564 0.000000 
0.908937 0.831455 0.000000 
0.972991 0.907990 0.000000 
0.791441 0.673219 0.000000 
0.848953 0.751955 0.000000 
0.792138 0.753122 0.000000 
0.962074 0.749096 0.000000 
0.905360 0.750444 0.000000 
0.905597 0.671957 0.000000 
0.620487 0.450767 0.000000 
0.560286 0.451705 0.000000 
0.740122 0.447777 0.000000 
0.680459 0.449350 0.000000 
0.676605 0.597557 0.000000 
0.678213 0.522268 0.000000 
0.734912 0.596471 0.000000 
0.850559 0.594964 0.000000 
0.792866 0.595481 0.000000 
0.795717 0.519936 0.000000 
0.937500 1.000000 0.000000 
0.861707 0.917221 0.000000 
0.742802 0.917654 0.000000 
0.802661 0.917575 0.000000 
0.812500 1.000000 0.000000 
0.795722 0.834863 0.000000 
0.734668 0.753975 0.000000 
0.500000 0.917759 0.000000 
0.560954 0.917715 0.000000 
0.562500 1.000000 0.000000 
0.559084 0.755414 0.000000 
0.559784 0.836042 0.000000 
0.500000 0.755573 0.000000 
0.687500 1.000000 0.000000 
0.621806 0.917693 0.000000 
0.682461 0.917676 0.000000 
0.559553 0.524192 0.000000 
0.500000 0.452002 0.000000 
0.675953 0.675096 0.000000 
0.617954 0.598493 0.000000 
0.500000 0.599378 0.000000 
0.559043 0.599126 0.000000 
0.558857 0.676304 0.000000 
0.678732 0.835678 0.000000 
0.617999 0.755097 0.000000 
0.676579 0.754618 0.000000 
0.437500 1.000000 0.000000 
0.439046 0.917715 0.000000 
0.317539 0.917676 0.000000 
0.378194 0.917693 0.000000 
0.312500 1.000000 0.000000 
0.440216 0.836042 0.000000 
0.440916 0.755414 0.000000 
0.080949 0.915564 0.000000 
0.138293 0.917221 0.000000 
0.062500 1.000000 0.000000 
0.265332 0.753975 0.000000 
0.204278 0.834863 0.000000 
0.207862 0.753122 0.000000 
0.187500 1.000000 0.000000 
0.197339 0.917575 0.000000 
0.257198 0.917654 0.000000 
0.440447 0.524192 0.000000 
0.439714 0.451705 0.000000 
0.441143 0.676304 0.000000 
0.440957 0.599126 0.000000 
0.323395 0.597557 0.000000 
0.382046 0.598493 0.000000 
0.324047 0.675096 0.000000 
0.321268 0.835678 0.000000 
0.323421 0.754618 0.000000 
0.382001 0.755097 0.000000 
0.027009 0.907990 0.000000 
0.091063 0.831455 0.000000 
0.094403 0.671957 0.000000 
0.094640 0.750444 0.000000 
0.037926 0.749096 0.000000 
0.151047 0.751955 0.000000 
0.208559 0.673219 0.000000 
0.077516 0.375487 0.000000 
0.082818 0.447489 0.000000 
0.024234 0.451391 0.000000 
0.200556 0.446506 0.000000 
0.141558 0.446154 0.000000 
0.196407 0.375077 0.000000 
0.033987 0.597952 0.000000 
0.087742 0.520760 0.000000 
0.091809 0.595504 0.000000 
0.379513 0.450767 0.000000 
0.438817 0.381785 0.000000 
0.265088 0.596471 0.000000 
0.321787 0.522268 0.000000 
0.316953 0.378828 0.000000 
0.319541 0.449350 0.000000 
0.259878 0.447777 0.000000 
0.149441 0.594964 0.000000 
0.204283 0.519936 0.000000 
0.207134 0.595481 0.000000 
0.013022 0.308044 0.000000 
0.072236 0.304568 0.000000 
0.063950 0.165548 0.000000 
0.067533 0.234622 0.000000 
0.004136 0.166593 0.000000 
0.131973 0.304071 0.000000 
0.192250 0.305524 0.000000 
0.066562 -0.036319 0.000000 
0.012079 -0.107774 0.000000 
0.184087 0.106886 0.000000 
0.123462 0.035501 0.000000 
0.002503 0.026824 0.000000 
0.062817 0.029945 0.000000 
0.062140 0.097303 0.000000 
0.376022 0.312950 0.000000 
0.253062 0.307989 0.000000 
0.314355 0.310667 0.000000 
0.312019 0.244817 0.000000 
0.247577 0.176521 0.000000 
0.124452 0.167558 0.000000 
0.185635 0.171583 0.000000 
0.188516 0.237738 0.000000 
0.050481 -0.167601 0.000000 
0.077506 -0.132805 0.000000 
0.046590 -0.136303 0.000000 
0.139330 -0.124498 0.000000 
0.108447 -0.128989 0.000000 
0.113119 -0.160027 0.000000 
0.100023 -0.065428 0.000000 
0.103944 -0.097425 0.000000 
0.130290 -0.061295 0.000000 
0.259276 -0.092145 0.000000 
0.230111 -0.103288 0.000000 
0.238958 -0.132593 0.000000 
0.220358 -0.043293 0.000000 
0.224243 -0.073384 0.000000 
0.250645 -0.035472 0.000000 
0.176491 -0.149542 0.000000 
0.200347 -0.112065 0.000000 
0.170023 -0.118983 0.000000 
0.214889 0.078959 0.000000 
0.215231 0.048000 0.000000 
0.246081 0.082960 0.000000 
0.157298 -0.024631 0.000000 
0.185555 0.012012 0.000000 
0.155171 0.007199 0.000000 
0.247121 0.022863 0.000000 
0.216153 0.017341 0.000000 
0.217789 -0.013068 0.000000 
0.164608 -0.087815 0.000000 
0.190374 -0.050330 0.000000 
0.160396 -0.056316 0.000000 
0.500000 -0.072377 0.000000 
0.469922 -0.072370 0.000000 
0.470004 -0.100000 0.000000 
0.469355 -0.016454 0.000000 
0.469680 -0.044501 0.000000 
0.500000 -0.016381 0.000000 
0.410256 -0.100000 0.000000 
0.439873 -0.072422 0.000000 
0.409876 -0.072533 0.000000 
0.468336 0.097944 0.000000 
0.468486 0.068903 0.000000 
0.500000 0.098167 0.000000 
0.406759 0.010645 0.000000 
0.437361 0.039703 0.000000 
0.405876 0.038799 0.000000 
0.500000 0.040373 0.000000 
0.468716 0.040199 0.000000 
0.469016 0.011767 0.000000 
0.296089 -0.100000 0.000000 
0.319942 -0.074264 0.000000 
0.288484 -0.078990 0.000000 
0.379943 -0.072739 0.000000 
0.350044 -0.073156 0.000000 
0.351414 -0.100000 0.000000 
0.345416 -0.019869 0.000000 
0.347692 -0.046578 0.000000 
0.376806 -0.018167 0.000000 
0.438655 -0.016712 0.000000 
0.407839 -0.017228 0.000000 
0.408963 -0.044929 0.000000 
0.469156 0.348098 0.000000 
[...]
POINT_DATA 1089

SCALARS u_h float 2
LOOKUP_TABLE default
0.019506 -0.171288 
-0.019506 -0.171288 
0.000000 0.000000 
0.000000 0.000000 
0.000000 -0.100000 
-0.018625 -0.120503 
0.000000 0.000000 
0.018625 -0.120503 
-0.000000 -0.118018 
0.018608 -0.119496 
0.000000 -0.122389 
-0.003767 -0.136314 
-0.018608 -0.119496 
0.003767 -0.136314 
-0.002069 -0.153587 
-0.006478 -0.123197 
-0.037052 -0.077138 
-0.016071 -0.075804 
0.000000 0.000000 
-0.000000 -0.073486 
0.000000 0.000000 
0.016071 -0.075804 
0.037052 -0.077138 
0.006478 -0.123197 
0.002069 -0.153587 
0.019774 -0.155337 
-0.001509 -0.131519 
0.002126 -0.154233 
0.000000 -0.113106 
0.000336 -0.115609 
0.005644 -0.100000 
-0.000520 -0.127277 
-0.002092 -0.125761 
0.000000 -0.124765 
-0.005644 -0.100000 
-0.000336 -0.115609 
-0.002126 -0.154233 
0.001509 -0.131519 
-0.019774 -0.155337 
0.002092 -0.125761 
0.000520 -0.127277 
-0.005923 -0.166549 
0.002189 -0.148950 
-0.011760 -0.125646 
-0.002703 -0.139816 
-0.008007 -0.137871 
0.000022 -0.133741 
-0.002765 -0.119384 
-0.029520 -0.100826 
-0.020946 -0.105368 
-0.022090 -0.041173 
-0.026426 -0.077656 
-0.035371 -0.047949 
-0.012876 -0.104014 
-0.006003 -0.101585 
0.000000 0.000000 
-0.012429 -0.039631 
-0.000000 -0.038857 
-0.005587 -0.039108 
0.000000 0.000000 
-0.007443 -0.074180 
-0.000000 -0.100522 
0.000000 0.000000 
0.005587 -0.039108 
0.022090 -0.041173 
0.012429 -0.039631 
0.000000 0.000000 
0.007443 -0.074180 
0.006003 -0.101585 
0.035371 -0.047949 
0.026426 -0.077656 
0.011760 -0.125646 
0.020946 -0.105368 
0.029520 -0.100826 
0.012876 -0.104014 
0.002765 -0.119384 
0.008007 -0.137871 
0.002703 -0.139816 
-0.002189 -0.148950 
0.005923 -0.166549 
-0.000022 -0.133741 
0.019169 -0.163993 
0.009389 -0.155590 
0.010851 -0.163610 
0.003957 -0.126519 
0.007048 -0.143822 
0.020525 -0.142183 
-0.003060 -0.144096 
-0.000032 -0.144219 
-0.003647 -0.134813 
0.000000 -0.106978 
0.001843 -0.107140 
0.002574 -0.100000 
-0.000585 -0.119169 
0.000459 -0.113620 
0.000000 -0.118391 
0.010441 -0.100000 
0.003468 -0.107977 
0.003795 -0.111555 
0.000433 -0.123065 
-0.000318 -0.125415 
-0.000000 -0.122584 
-0.003176 -0.130170 
-0.001645 -0.127648 
-0.002264 -0.131285 
0.000000 -0.124629 
-0.000842 -0.125408 
-0.000988 -0.123236 
-0.000794 -0.120798 
-0.001544 -0.121705 
-0.002847 -0.126772 
-0.002574 -0.100000 
-0.001843 -0.107140 
-0.003795 -0.111555 
-0.003468 -0.107977 
-0.010441 -0.100000 
-0.000459 -0.113620 
0.000585 -0.119169 
-0.010851 -0.163610 
-0.009389 -0.155590 
-0.019169 -0.163993 
0.003647 -0.134813 
0.000032 -0.144219 
0.003060 -0.144096 
-0.020525 -0.142183 
-0.007048 -0.143822 
-0.003957 -0.126519 
0.000318 -0.125415 
-0.000433 -0.123065 
0.000988 -0.123236 
0.000842 -0.125408 
0.002264 -0.131285 
0.001645 -0.127648 
0.003176 -0.130170 
0.000794 -0.120798 
0.002847 -0.126772 
0.001544 -0.121705 
-0.012079 -0.170274 
-0.004062 -0.161319 
0.000360 -0.152697 
-0.000317 -0.157555 
-0.002503 -0.160676 
0.001538 -0.151999 
0.003413 -0.143114 
-0.015016 -0.124513 
-0.009736 -0.132932 
-0.013022 -0.129456 
-0.004750 -0.131976 
-0.006973 -0.133429 
-0.008907 -0.124923 
-0.004136 -0.145907 
-0.005033 -0.140378 
-0.001450 -0.146952 
-0.001022 -0.124550 
-0.001317 -0.118215 
0.002423 -0.135979 
0.000481 -0.130183 
-0.004453 -0.121172 
-0.001855 -0.126833 
-0.003062 -0.129511 
0.000548 -0.144942 
-0.001016 -0.137262 
0.001865 -0.140917 
-0.024234 -0.111109 
-0.020318 -0.115011 
-0.029309 -0.091996 
-0.025242 -0.104240 
-0.033987 -0.089548 
-0.016558 -0.116346 
-0.013056 -0.115994 
-0.018449 -0.021936 
-0.028563 -0.043545 
-0.027009 -0.029510 
-0.021059 -0.076781 
-0.026047 -0.060545 
-0.020362 -0.059378 
-0.037926 -0.063404 
-0.032140 -0.062056 
-0.031903 -0.078043 
-0.004513 -0.111733 
-0.002214 -0.110795 
-0.009878 -0.114723 
-0.007041 -0.113150 
-0.010895 -0.089943 
-0.009287 -0.102732 
-0.015088 -0.091029 
-0.024441 -0.092536 
-0.019634 -0.092019 
-0.016783 -0.105064 
0.000000 0.000000 
-0.013293 -0.020279 
-0.007198 -0.019846 
-0.009839 -0.019925 
0.000000 0.000000 
-0.016778 -0.040137 
-0.015332 -0.058525 
-0.000000 -0.019741 
-0.001546 -0.019785 
0.000000 0.000000 
-0.003416 -0.057086 
-0.002716 -0.038958 
-0.000000 -0.056927 
0.000000 0.000000 
-0.003194 -0.019807 
-0.005039 -0.019824 
-0.002947 -0.100808 
-0.000000 -0.110498 
-0.011547 -0.074904 
-0.007046 -0.089007 
-0.000000 -0.088122 
-0.003457 -0.088374 
-0.003643 -0.073696 
-0.008768 -0.039322 
-0.007001 -0.057403 
-0.010921 -0.057882 
0.000000 0.000000 
0.001546 -0.019785 
0.005039 -0.019824 
0.003194 -0.019807 
0.000000 0.000000 
0.002716 -0.038958 
0.003416 -0.057086 
0.018449 -0.021936 
0.013293 -0.020279 
0.000000 0.000000 
0.015332 -0.058525 
0.016778 -0.040137 
0.020362 -0.059378 
0.000000 0.000000 
0.009839 -0.019925 
0.007198 -0.019846 
0.002947 -0.100808 
0.002214 -0.110795 
0.003643 -0.073696 
0.003457 -0.088374 
0.010895 -0.089943 
0.007046 -0.089007 
0.011547 -0.074904 
0.008768 -0.039322 
0.010921 -0.057882 
0.007001 -0.057403 
0.027009 -0.029510 
0.028563 -0.043545 
0.031903 -0.078043 
0.032140 -0.062056 
0.037926 -0.063404 
0.026047 -0.060545 
0.021059 -0.076781 
0.015016 -0.124513 
0.020318 -0.115011 
0.024234 -0.111109 
0.013056 -0.115994 
0.016558 -0.116346 
0.008907 -0.124923 
0.033987 -0.089548 
0.025242 -0.104240 
0.029309 -0.091996 
0.004513 -0.111733 
0.001317 -0.118215 
0.015088 -0.091029 
0.009287 -0.102732 
0.004453 -0.121172 
0.007041 -0.113150 
0.009878 -0.114723 
0.024441 -0.092536 
0.016783 -0.105064 
0.019634 -0.092019 
0.013022 -0.129456 
0.009736 -0.132932 
0.001450 -0.146952 
0.005033 -0.140378 
0.004136 -0.145907 
0.006973 -0.133429 
0.004750 -0.131976 
0.004062 -0.161319 
0.012079 -0.170274 
-0.003413 -0.143114 
-0.001538 -0.151999 
0.002503 -0.160676 
0.000317 -0.157555 
-0.000360 -0.152697 
0.001022 -0.124550 
0.003062 -0.129511 
0.001855 -0.126833 
-0.000481 -0.130183 
-0.002423 -0.135979 
-0.000548 -0.144942 
-0.001865 -0.140917 
0.001016 -0.137262 
0.019231 -0.167601 
0.015006 -0.164055 
0.015340 -0.167553 
0.014330 -0.155748 
0.014697 -0.160239 
0.019369 -0.160027 
0.006273 -0.159178 
0.010194 -0.159925 
0.005290 -0.155045 
0.009276 -0.123395 
0.011361 -0.134538 
0.020208 -0.132593 
0.001608 -0.137043 
0.005493 -0.135884 
0.000645 -0.129222 
0.020241 -0.149542 
0.012847 -0.143315 
0.013773 -0.150233 
-0.003861 -0.139791 
-0.003519 -0.139500 
-0.003919 -0.135790 
0.001048 -0.149631 
-0.001945 -0.144238 
-0.001079 -0.149051 
-0.002879 -0.133387 
-0.002597 -0.138909 
-0.000961 -0.138068 
0.008358 -0.150315 
0.002874 -0.144080 
0.004146 -0.150066 
-0.000000 -0.103627 
0.001172 -0.103620 
0.001254 -0.100000 
0.000605 -0.110204 
0.000930 -0.107001 
0.000000 -0.110131 
0.004006 -0.100000 
0.002373 -0.103672 
0.003626 -0.103783 
-0.000414 -0.120806 
-0.000264 -0.118597 
0.000000 -0.120583 
0.000509 -0.114355 
-0.000139 -0.116547 
-0.000374 -0.117451 
0.000000 -0.115877 
-0.000034 -0.116051 
0.000266 -0.113233 
0.014839 -0.100000 
0.007442 -0.105514 
0.007234 -0.110240 
0.004943 -0.103989 
0.006294 -0.104406 
0.007664 -0.100000 
0.001666 -0.113619 
0.003942 -0.109078 
0.001806 -0.111917 
0.001155 -0.110462 
0.001589 -0.110978 
0.002713 -0.107429 
0.000406 -0.120652 
0.000200 -0.122695 
-0.000000 -0.120594 
-0.000440 -0.126200 
0.000037 -0.124544 
0.000102 -0.125249 
-0.000000 -0.123973 
0.000007 -0.124117 
-0.000167 -0.124934 
-0.003571 -0.133063 
-0.002850 -0.131006 
-0.003137 -0.133562 
-0.001971 -0.126981 
-0.002444 -0.128796 
-0.002659 -0.127725 
-0.001345 -0.129246 
-0.001992 -0.129304 
-0.001150 -0.127751 
0.000000 -0.123754 
-0.000483 -0.123975 
-0.000484 -0.122616 
-0.000314 -0.125167 
-0.000423 -0.124837 
0.000000 -0.124977 
-0.001526 -0.124273 
-0.000973 -0.124578 
-0.001473 -0.125576 
-0.000900 -0.126560 
-0.001254 -0.126346 
-0.000617 -0.125696 
0.003138 -0.116804 
-0.000116 -0.117646 
0.001107 -0.116645 
0.000429 -0.121641 
-0.001441 -0.125362 
-0.000866 -0.121418 
-0.001965 -0.123999 
-0.001381 -0.122462 
-0.001005 -0.120174 
-0.000787 -0.118897 
-0.003675 -0.132029 
-0.002678 -0.128244 
-0.003398 -0.130439 
-0.003193 -0.128768 
-0.002590 -0.126087 
-0.001380 -0.121065 
-0.002183 -0.123873 
-0.002075 -0.124139 
-0.001254 -0.100000 
-0.001172 -0.103620 
-0.003626 -0.103783 
-0.002373 -0.103672 
-0.004006 -0.100000 
-0.000930 -0.107001 
-0.000605 -0.110204 
-0.007234 -0.110240 
-0.007442 -0.105514 
-0.014839 -0.100000 
-0.001806 -0.111917 
-0.003942 -0.109078 
-0.001666 -0.113619 
-0.007664 -0.100000 
-0.006294 -0.104406 
-0.004943 -0.103989 
0.000264 -0.118597 
0.000414 -0.120806 
-0.000266 -0.113233 
0.000034 -0.116051 
0.000374 -0.117451 
0.000139 -0.116547 
-0.000509 -0.114355 
-0.002713 -0.107429 
-0.001589 -0.110978 
-0.001155 -0.110462 
-0.015340 -0.167553 
-0.015006 -0.164055 
-0.019231 -0.167601 
-0.005290 -0.155045 
-0.010194 -0.159925 
-0.006273 -0.159178 
-0.019369 -0.160027 
-0.014697 -0.160239 
-0.014330 -0.155748 
0.003919 -0.135790 
0.003519 -0.139500 
0.003861 -0.139791 
0.000961 -0.138068 
0.002597 -0.138909 
0.002879 -0.133387 
0.001079 -0.149051 
0.001945 -0.144238 
-0.001048 -0.149631 
-0.020208 -0.132593 
-0.011361 -0.134538 
-0.009276 -0.123395 
-0.013773 -0.150233 
-0.012847 -0.143315 
-0.020241 -0.149542 
-0.000645 -0.129222 
-0.005493 -0.135884 
-0.001608 -0.137043 
-0.004146 -0.150066 
-0.002874 -0.144080 
-0.008358 -0.150315 
-0.000200 -0.122695 
-0.000406 -0.120652 
0.000167 -0.124934 
-0.000007 -0.124117 
-0.000102 -0.125249 
-0.000037 -0.124544 
0.000440 -0.126200 
0.000484 -0.122616 
0.000483 -0.123975 
0.001473 -0.125576 
0.000973 -0.124578 
0.001526 -0.124273 
0.000423 -0.124837 
0.000314 -0.125167 
0.003137 -0.133562 
0.002850 -0.131006 
0.003571 -0.133063 
0.001150 -0.127751 
0.001992 -0.129304 
0.001345 -0.129246 
0.002659 -0.127725 
0.002444 -0.128796 
0.001971 -0.126981 
0.000617 -0.125696 
0.001254 -0.126346 
0.000900 -0.126560 
-0.003138 -0.116804 
0.001441 -0.125362 
-0.000429 -0.121641 
-0.001107 -0.116645 
0.000116 -0.117646 
0.003675 -0.132029 
0.002590 -0.126087 
0.003193 -0.128768 
0.003398 -0.130439 
0.002678 -0.128244 
0.000866 -0.121418 
0.000787 -0.118897 
0.001005 -0.120174 
0.001381 -0.122462 
0.001965 -0.123999 
0.002075 -0.124139 
0.002183 -0.123873 
0.001380 -0.121065 
-0.015760 -0.171109 
-0.011446 -0.166951 
-0.004959 -0.164085 
-0.007903 -0.165780 
-0.008722 -0.168737 
-0.007122 -0.162678 
-0.003133 -0.158087 
-0.000764 -0.153550 
-0.000696 -0.156605 
-0.001934 -0.157235 
0.001334 -0.153223 
0.000376 -0.155246 
0.001340 -0.151135 
-0.003831 -0.163820 
-0.001340 -0.159421 
-0.002756 -0.161939 
0.003515 -0.143737 
0.003715 -0.139739 
0.000127 -0.153213 
0.002368 -0.148314 
0.002890 -0.146237 
0.002938 -0.147389 
0.002195 -0.150584 
-0.001785 -0.159594 
0.000635 -0.155084 
-0.000835 -0.156710 
-0.016781 -0.122944 
-0.014003 -0.127388 
-0.015782 -0.125059 
-0.010775 -0.129586 
-0.012333 -0.128851 
-0.013340 -0.125370 
-0.010408 -0.133719 
-0.011315 -0.131632 
-0.008772 -0.135691 
-0.005717 -0.127726 
-0.006801 -0.128679 
-0.007640 -0.124137 
-0.004744 -0.136788 
-0.005794 -0.132885 
-0.003699 -0.135994 
-0.010281 -0.125460 
-0.008006 -0.129380 
-0.009331 -0.129721 
-0.002833 -0.149798 
-0.002701 -0.146881 
-0.001462 -0.150300 
-0.006439 -0.139579 
-0.004389 -0.143307 
-0.005889 -0.141930 
-0.001907 -0.143464 
-0.003064 -0.143769 
-0.003788 -0.140411 
-0.008288 -0.133487 
-0.005938 -0.137090 
-0.007281 -0.136769 
-0.000861 -0.120959 
-0.000649 -0.117958 
-0.000213 -0.126214 
-0.000704 -0.123690 
-0.002017 -0.118704 
-0.001349 -0.121510 
-0.001881 -0.122276 
0.003251 -0.136380 
0.002420 -0.133538 
0.000316 -0.131916 
0.001465 -0.132991 
0.001331 -0.135103 
0.001460 -0.131012 
0.000541 -0.128617 
-0.005419 -0.122184 
-0.003895 -0.125450 
-0.004751 -0.126620 
-0.002473 -0.123219 
-0.003139 -0.124295 
-0.003572 -0.120221 
-0.001457 -0.131880 
-0.002404 -0.128155 
-0.000988 -0.130307 
-0.000385 -0.127409 
-0.000637 -0.128793 
-0.001400 -0.125612 
-0.000279 -0.149929 
-0.000915 -0.142528 
-0.000369 -0.146262 
0.000743 -0.148816 
0.001611 -0.147076 
-0.003841 -0.130816 
-0.000417 -0.135560 
-0.002059 -0.133423 
-0.002804 -0.134832 
-0.001778 -0.138723 
0.003155 -0.139313 
0.002316 -0.144823 
0.002838 -0.142185 
0.002242 -0.138488 
0.001033 -0.137243 
-0.000091 -0.141090 
0.000560 -0.139284 
0.001297 -0.143116 
-0.021439 -0.115912 
-0.019541 -0.118310 
-0.024900 -0.108301 
-0.022264 -0.113438 
-0.026948 -0.106084 
-0.017688 -0.119909 
-0.015898 -0.120830 
-0.033342 -0.084647 
-0.031687 -0.091076 
-0.035738 -0.083495 
-0.023087 -0.105033 
-0.027417 -0.098315 
-0.025129 -0.098961 
-0.031889 -0.095319 
-0.029678 -0.097143 
-0.027392 -0.102877 
-0.011009 -0.120701 
-0.009560 -0.120045 
-0.014183 -0.121195 
-0.012551 -0.121117 
-0.016884 -0.111079 
-0.014770 -0.116329 
-0.018831 -0.111077 
-0.022855 -0.109797 
-0.020826 -0.110685 
-0.018411 -0.115943 
-0.012746 -0.011873 
-0.022421 -0.024608 
-0.018877 -0.017717 
-0.025192 -0.042126 
-0.024574 -0.033145 
-0.021204 -0.031639 
-0.032157 -0.039269 
-0.028358 -0.035637 
-0.032050 -0.045505 
-0.018508 -0.076291 
-0.021024 -0.068340 
-0.018417 -0.067852 
-0.026599 -0.069388 
-0.023760 -0.068857 
-0.023707 -0.077248 
-0.021682 -0.050455 
-0.023129 -0.059915 
-0.024605 -0.051126 
-0.037826 -0.070453 
-0.035194 -0.070569 
-0.034549 -0.077825 
-0.034175 -0.054507 
-0.035133 -0.062822 
-0.037184 -0.055934 
-0.029176 -0.077948 
-0.032388 -0.070330 
-0.029496 -0.069901 
-0.027721 -0.052017 
-0.029075 -0.061269 
-0.030956 -0.053155 
-0.001785 -0.114829 
-0.000901 -0.114593 
-0.003660 -0.115872 
-0.002699 -0.115265 
-0.003932 -0.106479 
-0.003342 -0.111190 
-0.005302 -0.106969 
-0.008206 -0.119235 
-0.006945 -0.118351 
-0.009797 -0.108952 
-0.008418 -0.113942 
-0.011450 -0.109652 
-0.005772 -0.117459 
-0.004680 -0.116616 
-0.013512 -0.083179 
-0.012946 -0.090480 
-0.015764 -0.083689 
-0.007610 -0.102124 
-0.010190 -0.096629 
-0.008355 -0.096078 
-0.014107 -0.097806 
-0.012106 -0.097217 
-0.011041 -0.103376 
-0.005743 -0.112399 
-0.008225 -0.108241 
-0.006729 -0.107567 
-0.030837 -0.085251 
-0.025668 -0.085364 
-0.028264 -0.085451 
-0.026883 -0.092444 
-0.022839 -0.099195 
-0.018117 -0.084198 
-0.016190 -0.098355 
-0.017320 -0.091556 
-0.020565 -0.084676 
-0.023090 -0.085083 
-0.011424 -0.115431 
-0.018839 -0.105348 
-0.014999 -0.110787 
-0.013185 -0.110286 
-0.014792 -0.104596 
-0.022015 -0.092367 
-0.018349 -0.098812 
-0.020572 -0.099117 
0.000000 0.000000 
-0.010040 -0.010510 
-0.007076 -0.009912 
-0.008336 -0.010070 
0.000000 0.000000 
-0.015552 -0.020792 
-0.018340 -0.030808 
-0.003798 -0.009885 
-0.004462 -0.009867 
0.000000 0.000000 
-0.011816 -0.029908 
-0.008444 -0.019872 
-0.010096 -0.029796 
0.000000 0.000000 
-0.005207 -0.009855 
-0.006063 -0.009861 
-0.017764 -0.058921 
-0.015948 -0.067401 
-0.019295 -0.040551 
-0.018975 -0.049948 
-0.014171 -0.049241 
-0.016477 -0.049556 
-0.014502 -0.039847 
-0.011431 -0.020039 
-0.013728 -0.030075 
-0.015879 -0.030344 
-0.000000 -0.009927 
-0.000399 -0.009941 
0.000000 0.000000 
-0.001084 -0.029438 
-0.000765 -0.019767 
-0.000000 -0.029401 
0.000000 0.000000 
-0.000809 -0.009946 
-0.001234 -0.009945 
-0.001783 -0.065488 
-0.001698 -0.056987 
-0.000000 -0.065423 
-0.004123 -0.039026 
-0.003127 -0.048183 
-0.004742 -0.048285 
-0.000000 -0.048052 
-0.001553 -0.048106 
-0.001348 -0.038903 
0.000000 0.000000 
-0.002654 -0.009919 
-0.003200 -0.009903 
-0.001678 -0.009940 
-0.002149 -0.009931 
0.000000 0.000000 
-0.005758 -0.029596 
-0.004086 -0.019816 
-0.004507 -0.029550 
-0.002186 -0.029473 
-0.003322 -0.029510 
-0.002352 -0.019797 
-0.001108 -0.110564 
-0.000000 -0.114558 
-0.004453 -0.101140 
-0.002603 -0.106116 
-0.000000 -0.105819 
-0.001299 -0.105895 
-0.001468 -0.100600 
-0.013752 -0.075337 
-0.011361 -0.082692 
-0.007338 -0.081859 
-0.009307 -0.082247 
-0.009449 -0.074515 
-0.008931 -0.089445 
-0.006592 -0.095591 
-0.000000 -0.081067 
-0.001790 -0.081140 
-0.001812 -0.073556 
-0.001611 -0.094694 
-0.001721 -0.088198 
-0.000000 -0.094616 
-0.005514 -0.073905 
-0.003596 -0.081299 
-0.005440 -0.081541 
-0.004891 -0.095189 
-0.005226 -0.088647 
-0.003236 -0.094887 
-0.006071 -0.019833 
-0.007129 -0.039206 
-0.007092 -0.029650 
-0.008531 -0.029715 
-0.010526 -0.039461 
-0.003586 -0.065609 
-0.007337 -0.066011 
-0.005431 -0.065783 
-0.005177 -0.057224 
-0.006420 -0.048414 
-0.013616 -0.066988 
-0.012034 -0.048980 
-0.013056 -0.058181 
-0.011412 -0.066617 
-0.009325 -0.066290 
-0.008180 -0.048572 
-0.008909 -0.057623 
-0.010044 -0.048759 
0.000000 0.000000 
0.000399 -0.009941 
0.001234 -0.009945 
0.000809 -0.009946 
0.000000 0.000000 
0.000765 -0.019767 
0.001084 -0.029438 
0.003200 -0.009903 
0.002654 -0.009919 
0.000000 0.000000 
0.004507 -0.029550 
0.004086 -0.019816 
0.005758 -0.029596 
0.000000 0.000000 
0.002149 -0.009931 
0.001678 -0.009940 
0.001698 -0.056987 
0.001783 -0.065488 
0.001348 -0.038903 
0.001553 -0.048106 
0.004742 -0.048285 
0.003127 -0.048183 
0.004123 -0.039026 
0.002352 -0.019797 
0.003322 -0.029510 
0.002186 -0.029473 
0.012746 -0.011873 
0.010040 -0.010510 
0.000000 0.000000 
0.018340 -0.030808 
0.015552 -0.020792 
0.021204 -0.031639 
0.000000 0.000000 
0.008336 -0.010070 
0.007076 -0.009912 
0.015948 -0.067401 
0.017764 -0.058921 
0.018417 -0.067852 
0.014502 -0.039847 
0.016477 -0.049556 
0.014171 -0.049241 
0.021682 -0.050455 
0.018975 -0.049948 
0.019295 -0.040551 
0.000000 0.000000 
0.004462 -0.009867 
0.003798 -0.009885 
0.006063 -0.009861 
0.005207 -0.009855 
0.000000 0.000000 
0.010096 -0.029796 
0.008444 -0.019872 
0.011816 -0.029908 
0.015879 -0.030344 
0.013728 -0.030075 
0.011431 -0.020039 
0.001108 -0.110564 
0.000901 -0.114593 
0.001468 -0.100600 
0.001299 -0.105895 
0.003932 -0.106479 
0.002603 -0.106116 
0.004453 -0.101140 
0.001812 -0.073556 
0.001790 -0.081140 
0.005440 -0.081541 
0.003596 -0.081299 
0.005514 -0.073905 
0.001721 -0.088198 
0.001611 -0.094694 
0.013512 -0.083179 
0.011361 -0.082692 
0.013752 -0.075337 
0.006592 -0.095591 
0.008931 -0.089445 
0.008355 -0.096078 
0.009449 -0.074515 
0.009307 -0.082247 
0.007338 -0.081859 
0.003236 -0.094887 
0.005226 -0.088647 
0.004891 -0.095189 
0.006071 -0.019833 
0.010526 -0.039461 
0.008531 -0.029715 
0.007092 -0.029650 
0.007129 -0.039206 
0.013616 -0.066988 
0.009325 -0.066290 
0.011412 -0.066617 
0.013056 -0.058181 
0.012034 -0.048980 
0.003586 -0.065609 
0.006420 -0.048414 
0.005177 -0.057224 
0.005431 -0.065783 
0.007337 -0.066011 
0.010044 -0.048759 
0.008909 -0.057623 
0.008180 -0.048572 
0.018877 -0.017717 
0.022421 -0.024608 
0.032050 -0.045505 
0.028358 -0.035637 
0.032157 -0.039269 
0.024574 -0.033145 
0.025192 -0.042126 
0.034549 -0.077825 
0.035194 -0.070569 
0.037826 -0.070453 
0.029496 -0.069901 
0.032388 -0.070330 
0.029176 -0.077948 
0.037184 -0.055934 
0.035133 -0.062822 
0.034175 -0.054507 
0.021024 -0.068340 
0.018508 -0.076291 
0.024605 -0.051126 
0.023129 -0.059915 
0.023707 -0.077248 
0.023760 -0.068857 
0.026599 -0.069388 
0.030956 -0.053155 
0.029075 -0.061269 
0.027721 -0.052017 
0.016781 -0.122944 
0.019541 -0.118310 
0.021439 -0.115912 
0.015898 -0.120830 
0.017688 -0.119909 
0.013340 -0.125370 
0.026948 -0.106084 
0.022264 -0.113438 
0.024900 -0.108301 
0.009560 -0.120045 
0.011009 -0.120701 
0.007640 -0.124137 
0.018831 -0.111077 
0.014770 -0.116329 
0.016884 -0.111079 
0.010281 -0.125460 
0.012551 -0.121117 
0.014183 -0.121195 
0.035738 -0.083495 
0.031687 -0.091076 
0.033342 -0.084647 
0.027392 -0.102877 
0.029678 -0.097143 
0.031889 -0.095319 
0.025129 -0.098961 
0.027417 -0.098315 
0.023087 -0.105033 
0.018411 -0.115943 
0.020826 -0.110685 
0.022855 -0.109797 
0.001785 -0.114829 
0.000649 -0.117958 
0.005302 -0.106969 
0.003342 -0.111190 
0.002017 -0.118704 
0.002699 -0.115265 
0.003660 -0.115872 
0.015764 -0.083689 
0.012946 -0.090480 
0.011041 -0.103376 
0.012106 -0.097217 
0.014107 -0.097806 
0.010190 -0.096629 
0.007610 -0.102124 
0.005419 -0.122184 
0.006945 -0.118351 
0.008206 -0.119235 
0.004680 -0.116616 
0.005772 -0.117459 
0.003572 -0.120221 