# vtk DataFile Version 2.0
Unstructured Grid Example
ASCII
DATASET UNSTRUCTURED_GRID

POINTS 16 float
0.000000 0.000000 0.000000 
0.125000 0.000000 0.000000 
0.125000 4.784889 0.000000 
0.250000 -9.569778 0.000000 
0.250000 -4.648228 0.000000 
0.375000 -5.058211 0.000000 
0.375000 -6.753918 0.000000 
0.500000 -1.256814 0.000000 
0.500000 -1.256814 0.000000 
0.625000 -6.753918 0.000000 
0.625000 -5.058211 0.000000 
0.750000 -4.648228 0.000000 
0.750000 -9.569778 0.000000 
0.875000 4.784889 0.000000 
0.875000 0.000000 0.000000 
1.000000 0.000000 0.000000 

CELLS 8 24
2  0 1 
2  2 3 
2  4 5 
2  6 7 
2  8 9 
2  10 11 
2  12 13 
2  14 15 

CELL_TYPES 8
3
3
3
3
3
3
3
3

POINT_DATA 16

SCALARS lambda_h float 1
LOOKUP_TABLE default
0.000000 
0.000000 
4.784889 
-9.569778 
-4.648228 
-5.058211 
-6.753918 
-1.256814 
-1.256814 
-6.753918 
-5.058211 
-4.648228 
-9.569778 
4.784889 
0.000000 
0.000000 

