# vtk DataFile Version 2.0
Unstructured Grid Example
ASCII
DATASET UNSTRUCTURED_GRID

POINTS 32 float
0.000000 0.000000 0.000000 
0.062500 0.000000 0.000000 
0.062500 0.000000 0.000000 
0.125000 0.000000 0.000000 
0.125000 0.606045 0.000000 
0.187500 -1.212090 0.000000 
0.187500 3.214012 0.000000 
0.250000 -8.246159 0.000000 
0.375000 -10.571938 0.000000 
0.437500 -1.916656 0.000000 
0.437500 -7.895368 0.000000 
0.500000 1.385485 0.000000 
0.250000 -3.043301 0.000000 
0.312500 -7.191704 0.000000 
0.312500 -3.930962 0.000000 
0.375000 -9.564785 0.000000 
0.500000 1.385485 0.000000 
0.562500 -7.895368 0.000000 
0.562500 -1.916656 0.000000 
0.625000 -10.571938 0.000000 
0.625000 -9.564785 0.000000 
0.687500 -3.930962 0.000000 
0.687500 -7.191704 0.000000 
0.750000 -3.043301 0.000000 
0.875000 0.000000 0.000000 
0.937500 0.000000 0.000000 
0.937500 0.000000 0.000000 
1.000000 0.000000 0.000000 
0.750000 -8.246159 0.000000 
0.812500 3.214012 0.000000 
0.812500 -1.212090 0.000000 
0.875000 0.606045 0.000000 

CELLS 16 48
2  0 1 
2  2 3 
2  4 5 
2  6 7 
2  8 9 
2  10 11 
2  12 13 
2  14 15 
2  16 17 
2  18 19 
2  20 21 
2  22 23 
2  24 25 
2  26 27 
2  28 29 
2  30 31 

CELL_TYPES 16
3
3
3
3
3
3
3
3
3
3
3
3
3
3
3
3

POINT_DATA 32

SCALARS lambda_h float 1
LOOKUP_TABLE default
0.000000 
0.000000 
0.000000 
0.000000 
0.606045 
-1.212090 
3.214012 
-8.246159 
-10.571938 
-1.916656 
-7.895368 
1.385485 
-3.043301 
-7.191704 
-3.930962 
-9.564785 
1.385485 
-7.895368 
-1.916656 
-10.571938 
-9.564785 
-3.930962 
-7.191704 
-3.043301 
0.000000 
0.000000 
0.000000 
0.000000 
-8.246159 
3.214012 
-1.212090 
0.606045 

