# vtk DataFile Version 2.0
Unstructured Grid Example
ASCII
DATASET UNSTRUCTURED_GRID

POINTS 64 float
0.000000 0.000000 0.000000 
0.031250 0.001162 0.000000 
0.031250 -0.001162 0.000000 
0.062500 0.004649 0.000000 
0.062500 -0.004649 0.000000 
0.093750 0.017433 0.000000 
0.093750 -0.017433 0.000000 
0.125000 0.065084 0.000000 
0.187500 3.491680 0.000000 
0.218750 -6.947011 0.000000 
0.218750 -2.420150 0.000000 
0.250000 -5.562042 0.000000 
0.125000 0.046715 0.000000 
0.156250 0.019305 0.000000 
0.156250 0.044767 0.000000 
0.187500 -0.004209 0.000000 
0.437500 -6.794023 0.000000 
0.468750 -4.061713 0.000000 
0.468750 -6.725539 0.000000 
0.500000 -1.466370 0.000000 
0.375000 3.970817 0.000000 
0.406250 -8.101347 0.000000 
0.406250 -2.271332 0.000000 
0.437500 -7.689213 0.000000 
0.250000 -2.841326 0.000000 
0.281250 -7.861583 0.000000 
0.281250 -3.371414 0.000000 
0.312500 -11.821663 0.000000 
0.312500 -13.547668 0.000000 
0.343750 0.080597 0.000000 
0.343750 -8.871078 0.000000 
0.375000 4.355682 0.000000 
0.500000 -1.466370 0.000000 
0.531250 -6.725539 0.000000 
0.531250 -4.061713 0.000000 
0.562500 -6.794023 0.000000 
0.562500 -7.689213 0.000000 
0.593750 -2.271332 0.000000 
0.593750 -8.101347 0.000000 
0.625000 3.970817 0.000000 
0.687500 -11.821663 0.000000 
0.718750 -3.371414 0.000000 
0.718750 -7.861583 0.000000 
0.750000 -2.841326 0.000000 
0.625000 4.355682 0.000000 
0.656250 -8.871078 0.000000 
0.656250 0.080597 0.000000 
0.687500 -13.547668 0.000000 
0.937500 0.004649 0.000000 
0.968750 -0.001162 0.000000 
0.968750 0.001162 0.000000 
1.000000 0.000000 0.000000 
0.875000 0.065084 0.000000 
0.906250 -0.017433 0.000000 
0.906250 0.017433 0.000000 
0.937500 -0.004649 0.000000 
0.750000 -5.562042 0.000000 
0.781250 -2.420150 0.000000 
0.781250 -6.947011 0.000000 
0.812500 3.491680 0.000000 
0.812500 -0.004209 0.000000 
0.843750 0.044767 0.000000 
0.843750 0.019305 0.000000 
0.875000 0.046715 0.000000 

CELLS 32 96
2  0 1 
2  2 3 
2  4 5 
2  6 7 
2  8 9 
2  10 11 
2  12 13 
2  14 15 
2  16 17 
2  18 19 
2  20 21 
2  22 23 
2  24 25 
2  26 27 
2  28 29 
2  30 31 
2  32 33 
2  34 35 
2  36 37 
2  38 39 
2  40 41 
2  42 43 
2  44 45 
2  46 47 
2  48 49 
2  50 51 
2  52 53 
2  54 55 
2  56 57 
2  58 59 
2  60 61 
2  62 63 

CELL_TYPES 32
3
3
3
3
3
3
3
3
3
3
3
3
3
3
3
3
3
3
3
3
3
3
3
3
3
3
3
3
3
3
3
3

POINT_DATA 64

SCALARS lambda_h float 1
LOOKUP_TABLE default
0.000000 
0.001162 
-0.001162 
0.004649 
-0.004649 
0.017433 
-0.017433 
0.065084 
3.491680 
-6.947011 
-2.420150 
-5.562042 
0.046715 
0.019305 
0.044767 
-0.004209 
-6.794023 
-4.061713 
-6.725539 
-1.466370 
3.970817 
-8.101347 
-2.271332 
-7.689213 
-2.841326 
-7.861583 
-3.371414 
-11.821663 
-13.547668 
0.080597 
-8.871078 
4.355682 
-1.466370 
-6.725539 
-4.061713 
-6.794023 
-7.689213 
-2.271332 
-8.101347 
3.970817 
-11.821663 
-3.371414 
-7.861583 
-2.841326 
4.355682 
-8.871078 
0.080597 
-13.547668 
0.004649 
-0.001162 
0.001162 
0.000000 
0.065084 
-0.017433 
0.017433 
-0.004649 
-5.562042 
-2.420150 
-6.947011 
3.491680 
-0.004209 
0.044767 
0.019305 
0.046715 

