# vtk DataFile Version 2.0
Unstructured Grid Example
ASCII
DATASET UNSTRUCTURED_GRID

POINTS 4 float
0.000000 7.553389 0.000000 
0.500000 -15.106779 0.000000 
0.500000 -15.106779 0.000000 
1.000000 7.553389 0.000000 

CELLS 2 6
2  0 1 
2  2 3 

CELL_TYPES 2
3
3

POINT_DATA 4

SCALARS lambda_h float 1
LOOKUP_TABLE default
7.553389 
-15.106779 
-15.106779 
7.553389 

