# vtk DataFile Version 2.0
Unstructured Grid Example
ASCII
DATASET UNSTRUCTURED_GRID

POINTS 81 float
-0.011320 -0.215729 0.000000 
1.011320 -0.215729 0.000000 
1.000000 1.000000 0.000000 
0.000000 1.000000 0.000000 
0.500000 -0.096433 0.000000 
0.961568 0.345776 0.000000 
0.500000 1.000000 0.000000 
0.038432 0.345776 0.000000 
0.500000 0.338010 0.000000 
0.222220 -0.173974 0.000000 
0.500000 0.051631 0.000000 
0.249895 0.052049 0.000000 
0.777780 -0.173974 0.000000 
0.750105 0.052049 0.000000 
0.988602 0.053983 0.000000 
0.733189 0.339862 0.000000 
0.952710 0.656139 0.000000 
0.732814 0.660994 0.000000 
0.750000 1.000000 0.000000 
0.500000 0.660923 0.000000 
0.250000 1.000000 0.000000 
0.267186 0.660994 0.000000 
0.047290 0.656139 0.000000 
0.266811 0.339862 0.000000 
0.011398 0.053983 0.000000 
0.110922 -0.215059 0.000000 
0.238318 -0.072947 0.000000 
0.116697 -0.087095 0.000000 
0.500000 -0.072306 0.000000 
0.366152 -0.070604 0.000000 
0.351889 -0.118220 0.000000 
0.379192 0.191133 0.000000 
0.374319 0.053245 0.000000 
0.500000 0.189816 0.000000 
0.648111 -0.118220 0.000000 
0.633848 -0.070604 0.000000 
0.883303 -0.087095 0.000000 
0.761682 -0.072947 0.000000 
0.889078 -0.215059 0.000000 
0.625681 0.053245 0.000000 
0.620808 0.191133 0.000000 
1.003733 -0.083862 0.000000 
0.870534 0.047595 0.000000 
0.847196 0.339751 0.000000 
0.857689 0.189993 0.000000 
0.973310 0.197115 0.000000 
0.740478 0.190831 0.000000 
0.617150 0.339905 0.000000 
0.953150 0.497463 0.000000 
0.842233 0.496308 0.000000 
0.857237 0.829287 0.000000 
0.844770 0.659748 0.000000 
0.963961 0.822618 0.000000 
0.730238 0.497135 0.000000 
0.615579 0.497263 0.000000 
0.875000 1.000000 0.000000 
0.740056 0.829209 0.000000 
0.500000 0.828911 0.000000 
0.620426 0.828892 0.000000 
0.625000 1.000000 0.000000 
0.617007 0.660911 0.000000 
0.500000 0.496899 0.000000 
0.375000 1.000000 0.000000 
0.379574 0.828892 0.000000 
0.142763 0.829287 0.000000 
0.259944 0.829209 0.000000 
0.125000 1.000000 0.000000 
0.382993 0.660911 0.000000 
0.384421 0.497263 0.000000 
0.036039 0.822618 0.000000 
0.155230 0.659748 0.000000 
0.152804 0.339751 0.000000 
0.157767 0.496308 0.000000 
0.046850 0.497463 0.000000 
0.269762 0.497135 0.000000 
0.382850 0.339905 0.000000 
0.026690 0.197115 0.000000 
0.142311 0.189993 0.000000 
0.129466 0.047595 0.000000 
-0.003733 -0.083862 0.000000 
0.259522 0.190831 0.000000 

CELLS 128 512
3  0 25 27 
3  9 26 25 
3  11 27 26 
3  25 26 27 
3  4 28 30 
3  10 29 28 
3  9 30 29 
3  28 29 30 
3  8 31 33 
3  11 32 31 
3  10 33 32 
3  31 32 33 
3  9 29 26 
3  10 32 29 
3  11 26 32 
3  29 32 26 
3  4 34 28 
3  12 35 34 
3  10 28 35 
3  34 35 28 
3  1 36 38 
3  13 37 36 
3  12 38 37 
3  36 37 38 
3  8 33 40 
3  10 39 33 
3  13 40 39 
3  33 39 40 
3  12 37 35 
3  13 39 37 
3  10 35 39 
3  37 39 35 
3  1 41 36 
3  14 42 41 
3  13 36 42 
3  41 42 36 
3  5 43 45 
3  15 44 43 
3  14 45 44 
3  43 44 45 
3  8 40 47 
3  13 46 40 
3  15 47 46 
3  40 46 47 
3  14 44 42 
3  15 46 44 
3  13 42 46 
3  44 46 42 
3  5 48 43 
3  16 49 48 
3  15 43 49 
3  48 49 43 
3  2 50 52 
3  17 51 50 
3  16 52 51 
3  50 51 52 
3  8 47 54 
3  15 53 47 
3  17 54 53 
3  47 53 54 
3  16 51 49 
3  17 53 51 
3  15 49 53 
3  51 53 49 
3  2 55 50 
3  18 56 55 
3  17 50 56 
3  55 56 50 
3  6 57 59 
3  19 58 57 
3  18 59 58 
3  57 58 59 
3  8 54 61 
3  17 60 54 
3  19 61 60 
3  54 60 61 
3  18 58 56 
3  19 60 58 
3  17 56 60 
3  58 60 56 
3  6 62 57 
3  20 63 62 
3  19 57 63 
3  62 63 57 
3  3 64 66 
3  21 65 64 
3  20 66 65 
3  64 65 66 
3  8 61 68 
3  19 67 61 
3  21 68 67 
3  61 67 68 
3  20 65 63 
3  21 67 65 
3  19 63 67 
3  65 67 63 
3  3 69 64 
3  22 70 69 
3  21 64 70 
3  69 70 64 
3  7 71 73 
3  23 72 71 
3  22 73 72 
3  71 72 73 
3  8 68 75 
3  21 74 68 
3  23 75 74 
3  68 74 75 
3  22 72 70 
3  23 74 72 
3  21 70 74 
3  72 74 70 
3  7 76 71 
3  24 77 76 
3  23 71 77 
3  76 77 71 
3  0 27 79 
3  11 78 27 
3  24 79 78 
3  27 78 79 
3  8 75 31 
3  23 80 75 
3  11 31 80 
3  75 80 31 
3  24 78 77 
3  11 80 78 
3  23 77 80 
3  78 80 77 

CELL_TYPES 128
5
5
5
5
5
5
5
5
5
5
5
5
5
5
5
5
5
5
5
5
5
5
5
5
5
5
5
5
5
5
5
5
5
5
5
5
5
5
5
5
5
5
5
5
5
5
5
5
5
5
5
5
5
5
5
5
5
5
5
5
5
5
5
5
5
5
5
5
5
5
5
5
5
5
5
5
5
5
5
5
5
5
5
5
5
5
5
5
5
5
5
5
5
5
5
5
5
5
5
5
5
5
5
5
5
5
5
5
5
5
5
5
5
5
5
5
5
5
5
5
5
5
5
5
5
5
5
5

POINT_DATA 81

SCALARS u_h float 2
LOOKUP_TABLE default
-0.011320 -0.215729 
0.011320 -0.215729 
0.000000 0.000000 
0.000000 0.000000 
0.000000 -0.096433 
-0.038432 -0.154224 
0.000000 0.000000 
0.038432 -0.154224 
0.000000 -0.161990 
-0.027780 -0.173974 
0.000000 -0.198369 
-0.000105 -0.197951 
0.027780 -0.173974 
0.000105 -0.197951 
-0.011398 -0.196017 
-0.016811 -0.160138 
-0.047290 -0.093861 
-0.017186 -0.089006 
0.000000 0.000000 
0.000000 -0.089077 
0.000000 0.000000 
0.017186 -0.089006 
0.047290 -0.093861 
0.016811 -0.160138 
0.011398 -0.196017 
-0.014078 -0.215059 
-0.011682 -0.197947 
-0.008303 -0.212095 
0.000000 -0.197306 
-0.008848 -0.195604 
-0.023111 -0.118220 
0.004192 -0.183867 
-0.000681 -0.196755 
0.000000 -0.185184 
0.023111 -0.118220 
0.008848 -0.195604 
0.008303 -0.212095 
0.011682 -0.197947 
0.014078 -0.215059 
0.000681 -0.196755 
-0.004192 -0.183867 
0.003733 -0.208862 
-0.004466 -0.202405 
-0.027804 -0.160249 
-0.017311 -0.185007 
-0.026690 -0.177885 
-0.009522 -0.184169 
-0.007850 -0.160095 
-0.046850 -0.127537 
-0.032767 -0.128692 
-0.017763 -0.045713 
-0.030230 -0.090252 
-0.036039 -0.052382 
-0.019762 -0.127865 
-0.009421 -0.127737 
0.000000 0.000000 
-0.009944 -0.045791 
0.000000 -0.046089 
-0.004574 -0.046108 
0.000000 0.000000 
-0.007993 -0.089089 
0.000000 -0.128101 
0.000000 0.000000 
0.004574 -0.046108 
0.017763 -0.045713 
0.009944 -0.045791 
0.000000 0.000000 
0.007993 -0.089089 
0.009421 -0.127737 
0.036039 -0.052382 
0.030230 -0.090252 
0.027804 -0.160249 
0.032767 -0.128692 
0.046850 -0.127537 
0.019762 -0.127865 
0.007850 -0.160095 
0.026690 -0.177885 
0.017311 -0.185007 
0.004466 -0.202405 
-0.003733 -0.208862 
0.009522 -0.184169 

CELL_DATA 128

SCALARS epsilon float 4
LOOKUP_TABLE default
-0.021488 0.023203 0.000000 0.026222
-0.156541 -0.147374 0.000000 0.260899
-0.033588 -0.003953 0.000000 0.104096
-0.031569 0.024699 0.000000 0.078951
0.168210 4.849355 0.000000 0.440506
0.068287 -0.008463 0.000000 -0.006835
-0.045904 0.852684 0.000000 0.410896
0.110902 -0.310200 0.000000 -0.103507
-0.034098 0.168801 0.000000 -0.004437
-0.004324 0.097534 0.000000 0.023750
0.005430 0.100040 0.000000 -0.005842
-0.033046 0.098263 0.000000 0.015221
0.031705 -0.211637 0.000000 0.070899
0.008424 -0.008317 0.000000 0.025971
-0.001169 -0.000880 0.000000 0.051309
0.023295 -0.010285 0.000000 0.041395
0.168210 4.849355 0.000000 -0.440506
-0.045904 0.852684 0.000000 -0.410896
0.068287 -0.008463 0.000000 0.006835
0.110902 -0.310200 0.000000 0.103507
-0.021488 0.023203 0.000000 -0.026222
-0.033588 -0.003953 0.000000 -0.104096
-0.156541 -0.147374 0.000000 -0.260899
-0.031569 0.024699 0.000000 -0.078951
-0.034098 0.168801 0.000000 0.004437
0.005430 0.100040 0.000000 0.005842
-0.004324 0.097534 0.000000 -0.023750
-0.033046 0.098263 0.000000 -0.015221
0.031705 -0.211637 0.000000 -0.070899
-0.001169 -0.000880 0.000000 -0.051309
0.008424 -0.008317 0.000000 -0.025971
0.023295 -0.010285 0.000000 -0.041395
-0.033908 0.055291 0.000000 -0.019167
-0.044416 0.104581 0.000000 -0.040350
-0.035864 0.071625 0.000000 -0.069269
-0.029872 0.077363 0.000000 -0.040735
-0.080792 0.176840 0.000000 -0.029871
-0.088892 0.178923 0.000000 -0.045126
-0.064717 0.142587 0.000000 -0.040222
-0.070696 0.184486 0.000000 -0.020438
-0.064024 0.173034 0.000000 -0.008873
-0.041093 0.104072 0.000000 -0.040911
-0.072872 0.174225 0.000000 -0.030738
-0.043276 0.172496 0.000000 -0.015905
-0.047623 0.135552 0.000000 -0.031165
-0.063239 0.173920 0.000000 -0.033091
-0.037192 0.102256 0.000000 -0.055612
-0.060261 0.129025 0.000000 -0.056920
-0.083882 0.195173 0.000000 -0.015930
-0.118877 0.234813 0.000000 0.001684
-0.091203 0.221853 0.000000 -0.021229
-0.117948 0.222233 0.000000 -0.017830
-0.116693 0.351336 0.000000 0.134884
-0.105547 0.298011 0.000000 0.048188
-0.140315 0.282628 0.000000 0.038261
-0.148448 0.302531 0.000000 0.035141
-0.064547 0.227012 0.000000 -0.000426
-0.074045 0.226255 0.000000 -0.012317
-0.085959 0.265286 0.000000 0.010214
-0.086075 0.226764 0.000000 -0.006962
-0.144899 0.263669 0.000000 0.000331
-0.109392 0.265470 0.000000 0.007106
-0.109294 0.226146 0.000000 -0.015214
-0.109113 0.262977 0.000000 0.008203
0.005414 0.303627 0.000000 0.065959
0.001695 0.304052 0.000000 0.036916
-0.063479 0.289877 0.000000 0.029094
-0.058413 0.303563 0.000000 0.070591
0.000000 0.305671 0.000000 -0.000000
-0.037261 0.288642 0.000000 -0.000056
0.000357 0.305774 0.000000 0.016968
-0.036872 0.305778 0.000000 0.017557
-0.078187 0.236036 0.000000 0.001136
-0.076196 0.264047 0.000000 0.006074
-0.065976 0.266215 0.000000 -0.000036
-0.078169 0.264030 0.000000 0.006936
-0.042182 0.303911 0.000000 0.039502
-0.065738 0.288605 0.000000 0.013617
-0.075185 0.289875 0.000000 0.029451
-0.043707 0.288554 0.000000 0.014295
0.000000 0.305671 0.000000 -0.000000
0.000357 0.305774 0.000000 -0.016968
-0.037261 0.288642 0.000000 0.000056
-0.036872 0.305778 0.000000 -0.017557
0.005414 0.303627 0.000000 -0.065959
-0.063479 0.289877 0.000000 -0.029094
0.001695 0.304052 0.000000 -0.036916
-0.058413 0.303563 0.000000 -0.070591
-0.078187 0.236036 0.000000 -0.001136
-0.065976 0.266215 0.000000 0.000036
-0.076196 0.264047 0.000000 -0.006074
-0.078169 0.264030 0.000000 -0.006936
-0.042182 0.303911 0.000000 -0.039502
-0.075185 0.289875 0.000000 -0.029451
-0.065738 0.288605 0.000000 -0.013617
-0.043707 0.288554 0.000000 -0.014295
-0.116693 0.351336 0.000000 -0.134884
-0.140315 0.282628 0.000000 -0.038261
-0.105547 0.298011 0.000000 -0.048188
-0.148448 0.302531 0.000000 -0.035141
-0.083882 0.195173 0.000000 0.015930
-0.091203 0.221853 0.000000 0.021229
-0.118877 0.234813 0.000000 -0.001684
-0.117948 0.222233 0.000000 0.017830
-0.064547 0.227012 0.000000 0.000426
-0.085959 0.265286 0.000000 -0.010214
-0.074045 0.226255 0.000000 0.012317
-0.086075 0.226764 0.000000 0.006962
-0.144899 0.263669 0.000000 -0.000331
-0.109294 0.226146 0.000000 0.015214
-0.109392 0.265470 0.000000 -0.007106
-0.109113 0.262977 0.000000 -0.008203
-0.080792 0.176840 0.000000 0.029871
-0.064717 0.142587 0.000000 0.040222
-0.088892 0.178923 0.000000 0.045126
-0.070696 0.184486 0.000000 0.020438
-0.033908 0.055291 0.000000 0.019167
-0.035864 0.071625 0.000000 0.069269
-0.044416 0.104581 0.000000 0.040350
-0.029872 0.077363 0.000000 0.040735
-0.064024 0.173034 0.000000 0.008873
-0.072872 0.174225 0.000000 0.030738
-0.041093 0.104072 0.000000 0.040911
-0.043276 0.172496 0.000000 0.015905
-0.047623 0.135552 0.000000 0.031165
-0.037192 0.102256 0.000000 0.055612
-0.063239 0.173920 0.000000 0.033091
-0.060261 0.129025 0.000000 0.056920

SCALARS sigma float 4
LOOKUP_TABLE default
-0.325297 0.426641 0.017151 0.422354
-2.446293 -2.925952 -3.039153 0.803900
-0.689389 -0.271141 -0.375408 1.588868
-0.419055 0.402787 -0.068703 1.290227
66.699579 -412.574660 50.175651 107.199515
1.833164 0.455507 0.598243 -0.125400
15.266699 -20.111015 8.067792 34.591854
-0.129866 3.882841 -1.992973 -1.580333
0.761154 4.759476 1.347032 -0.108069
0.860310 2.781324 0.932099 0.409640
1.151051 2.952551 1.054699 -0.127655
0.103980 2.485176 0.652174 0.218702
-1.277613 -3.818807 -1.799319 1.065339
0.134567 -0.106278 0.001067 0.430339
-0.031336 0.043481 -0.020488 0.836490
0.535452 0.005649 0.130095 0.692413
66.699579 -412.574660 50.175651 -107.199515
15.266699 -20.111015 8.067792 -34.591854
1.833164 0.455507 0.598243 0.125400
-0.129866 3.882841 -1.992973 1.580333
-0.325297 0.426641 0.017151 -0.422354
-0.689389 -0.271141 -0.375408 -1.588868
-2.446293 -2.925952 -3.039153 -0.803900
-0.419055 0.402787 -0.068703 -1.290227
0.761154 4.759476 1.347032 0.108069
1.151051 2.952551 1.054699 0.127655
0.860310 2.781324 0.932099 -0.409640
0.103980 2.485176 0.652174 -0.218702
-1.277613 -3.818807 -1.799319 -1.065339
-0.031336 0.043481 -0.020488 -0.836490
0.134567 -0.106278 0.001067 -0.430339
0.535452 0.005649 0.130095 -0.692413
-0.337810 1.199326 0.213827 -0.274444
-0.152409 2.621507 0.601644 -0.514026
-0.181842 1.749653 0.357607 -1.141520
-0.031057 1.938779 0.474912 -0.601135
-0.353892 4.530690 0.960485 -0.276295
-0.503130 4.525230 0.900305 -0.671748
-0.296985 3.605501 0.778699 -0.444197
-0.037027 4.891997 1.137900 -0.096397
0.035456 4.560616 1.090100 -0.082477
-0.040625 2.616881 0.629796 -0.646237
-0.167386 4.521460 1.013529 -0.466384
0.557056 4.786144 1.292206 -0.257940
0.068852 3.543188 0.879291 -0.337100
0.068291 4.624623 1.106808 -0.530200
0.069497 2.619251 0.650642 -0.952726
-0.274581 3.234471 0.687641 -0.888429
-0.250489 5.098838 1.112908 -0.051104
-0.689682 6.073672 1.159364 0.065197
-0.170698 5.953605 1.306505 -0.318389
-0.781062 5.643998 1.042852 -0.216445
0.268745 11.094199 2.346431 1.513200
0.164788 8.670502 1.924630 0.643088
-0.757280 7.626929 1.423124 0.378164
-0.771906 8.281881 1.540826 0.182503
0.528161 6.448045 1.624650 0.062166
0.284063 6.310516 1.522103 -0.187960
0.348803 7.603934 1.793263 0.147183
-0.004222 6.181050 1.406887 -0.108419
-1.001621 6.810527 1.187703 -0.136323
-0.207115 7.319933 1.560777 0.052774
-0.549887 5.882864 1.168523 -0.249132
-0.222488 7.230524 1.538635 0.085874
3.179190 10.343362 3.090406 1.081725
3.085269 10.235844 3.057473 0.605425
1.141524 8.842659 2.263980 0.448771
1.394323 9.547606 2.451499 1.083980
3.056709 10.243582 3.056709 -0.000000
1.830463 9.102185 2.513811 -0.001737
3.067169 10.259652 3.061309 0.278270
2.005168 9.787747 2.689058 0.276111
0.272133 6.611780 1.578492 0.030599
0.579027 7.676110 1.878511 0.095113
0.857510 7.883429 2.002390 -0.001046
0.529882 7.651185 1.858602 0.119347
1.840019 9.678011 2.617288 0.633407
1.071961 8.747958 2.228670 0.207536
0.841549 8.695980 2.146899 0.448315
1.654319 9.022798 2.448476 0.238075
3.056709 10.243582 3.056709 -0.000000
3.067169 10.259652 3.061309 -0.278270
1.830463 9.102185 2.513811 0.001737
2.005168 9.787747 2.689058 -0.276111
3.179190 10.343362 3.090406 -1.081725
1.141524 8.842659 2.263980 -0.448771
3.085269 10.235844 3.057473 -0.605425
1.394323 9.547606 2.451499 -1.083980
0.272133 6.611780 1.578492 -0.030599
0.857510 7.883429 2.002390 0.001046
0.579027 7.676110 1.878511 -0.095113
0.529882 7.651185 1.858602 -0.119347
1.840019 9.678011 2.617288 -0.633407
0.841549 8.695980 2.146899 -0.448315
1.071961 8.747958 2.228670 -0.207536
1.654319 9.022798 2.448476 -0.238075
0.268745 11.094199 2.346431 -1.513200
-0.757280 7.626929 1.423124 -0.378164
0.164788 8.670502 1.924630 -0.643088
-0.771906 8.281881 1.540826 -0.182503
-0.250489 5.098838 1.112908 0.051104
-0.170698 5.953605 1.306505 0.318389
-0.689682 6.073672 1.159364 -0.065197
-0.781062 5.643998 1.042852 0.216445
0.528161 6.448045 1.624650 -0.062166
0.348803 7.603934 1.793263 -0.147183
0.284063 6.310516 1.522103 0.187960
-0.004222 6.181050 1.406887 0.108419
-1.001621 6.810527 1.187703 0.136323
-0.549887 5.882864 1.168523 0.249132
-0.207115 7.319933 1.560777 -0.052774
-0.222488 7.230524 1.538635 -0.085874
-0.353892 4.530690 0.960485 0.276295
-0.296985 3.605501 0.778699 0.444197
-0.503130 4.525230 0.900305 0.671748
-0.037027 4.891997 1.137900 0.096397
-0.337810 1.199326 0.213827 0.274444
-0.181842 1.749653 0.357607 1.141520
-0.152409 2.621507 0.601644 0.514026
-0.031057 1.938779 0.474912 0.601135
0.035456 4.560616 1.090100 0.082477
-0.167386 4.521460 1.013529 0.466384
-0.040625 2.616881 0.629796 0.646237
0.557056 4.786144 1.292206 0.257940
0.068852 3.543188 0.879291 0.337100
0.069497 2.619251 0.650642 0.952726
0.068291 4.624623 1.106808 0.530200
-0.274581 3.234471 0.687641 0.888429

