# vtk DataFile Version 2.0
Unstructured Grid Example
ASCII
DATASET UNSTRUCTURED_GRID

POINTS 25 float
-0.007710 -0.206988 0.000000 
1.007710 -0.206988 0.000000 
1.000000 1.000000 0.000000 
0.000000 1.000000 0.000000 
0.500000 -0.088121 0.000000 
0.968744 0.354536 0.000000 
0.500000 1.000000 0.000000 
0.031256 0.354536 0.000000 
0.500000 0.348659 0.000000 
0.232455 -0.160534 0.000000 
0.500000 0.079349 0.000000 
0.246704 0.069140 0.000000 
0.767545 -0.160534 0.000000 
0.753296 0.069140 0.000000 
0.992225 0.061428 0.000000 
0.737861 0.351142 0.000000 
0.960716 0.661710 0.000000 
0.736071 0.666228 0.000000 
0.750000 1.000000 0.000000 
0.500000 0.666142 0.000000 
0.250000 1.000000 0.000000 
0.263929 0.666228 0.000000 
0.039284 0.661710 0.000000 
0.262139 0.351142 0.000000 
0.007775 0.061428 0.000000 

CELLS 32 128
3  0 9 11 
3  4 10 9 
3  8 11 10 
3  9 10 11 
3  4 12 10 
3  1 13 12 
3  8 10 13 
3  12 13 10 
3  1 14 13 
3  5 15 14 
3  8 13 15 
3  14 15 13 
3  5 16 15 
3  2 17 16 
3  8 15 17 
3  16 17 15 
3  2 18 17 
3  6 19 18 
3  8 17 19 
3  18 19 17 
3  6 20 19 
3  3 21 20 
3  8 19 21 
3  20 21 19 
3  3 22 21 
3  7 23 22 
3  8 21 23 
3  22 23 21 
3  7 24 23 
3  0 11 24 
3  8 23 11 
3  24 11 23 

CELL_TYPES 32
5
5
5
5
5
5
5
5
5
5
5
5
5
5
5
5
5
5
5
5
5
5
5
5
5
5
5
5
5
5
5
5

POINT_DATA 25

SCALARS u_h float 2
LOOKUP_TABLE default
-0.007710 -0.206988 
0.007710 -0.206988 
0.000000 0.000000 
0.000000 0.000000 
-0.000000 -0.088121 
-0.031256 -0.145464 
0.000000 0.000000 
0.031256 -0.145464 
-0.000000 -0.151341 
-0.017545 -0.160534 
-0.000000 -0.170651 
-0.003296 -0.180860 
0.017545 -0.160534 
0.003296 -0.180860 
-0.007775 -0.188572 
-0.012139 -0.148858 
-0.039284 -0.088290 
-0.013929 -0.083772 
0.000000 0.000000 
-0.000000 -0.083858 
0.000000 0.000000 
0.013929 -0.083772 
0.039284 -0.088290 
0.012139 -0.148858 
0.007775 -0.188572 

CELL_DATA 32

SCALARS epsilon float 4
LOOKUP_TABLE default
-0.050022 -0.073841 0.000000 0.130197
0.067727 -0.289751 0.000000 0.215268
0.013096 0.074973 0.000000 0.018951
0.012477 -0.086099 0.000000 0.050117
0.067727 -0.289751 0.000000 -0.215268
-0.050022 -0.073841 0.000000 -0.130197
0.013096 0.074973 0.000000 -0.018951
0.012477 -0.086099 0.000000 -0.050117
-0.045291 0.069562 0.000000 -0.046590
-0.074447 0.159117 0.000000 -0.043984
-0.047510 0.120528 0.000000 -0.027633
-0.045378 0.118587 0.000000 -0.045536
-0.078588 0.203893 0.000000 -0.011294
-0.095884 0.297328 0.000000 0.074806
-0.049656 0.227991 0.000000 0.000328
-0.106592 0.227918 0.000000 -0.010890
0.000871 0.282484 0.000000 0.026103
0.000000 0.282723 0.000000 0.000000
-0.057262 0.235147 0.000000 0.000134
-0.056300 0.282470 0.000000 0.027770
0.000000 0.282723 0.000000 0.000000
0.000871 0.282484 0.000000 -0.026103
-0.057262 0.235147 0.000000 -0.000134
-0.056300 0.282470 0.000000 -0.027770
-0.095884 0.297328 0.000000 -0.074806
-0.078588 0.203893 0.000000 0.011294
-0.049656 0.227991 0.000000 -0.000328
-0.106592 0.227918 0.000000 0.010890
-0.074447 0.159117 0.000000 0.043984
-0.045291 0.069562 0.000000 0.046590
-0.047510 0.120528 0.000000 0.027633
-0.045378 0.118587 0.000000 0.045536

SCALARS sigma float 4
LOOKUP_TABLE default
-1.493617 -2.060868 -1.238623 1.498783
0.244143 -3.536265 -2.220240 0.944872
1.121348 2.261567 0.880692 0.393805
-0.501057 -1.901812 -0.736223 0.736087
0.244143 -3.536265 -2.220240 -0.944872
-1.493617 -2.060868 -1.238623 -1.498783
1.121348 2.261567 0.880692 -0.393805
-0.501057 -1.901812 -0.736223 -0.736087
-0.452900 1.522265 0.242714 -0.768852
-0.352760 4.030501 0.846700 -0.619236
-0.050712 3.041436 0.730176 -0.405296
0.009865 3.019327 0.732082 -0.787538
-0.035059 5.459192 1.253051 -0.114977
0.375028 8.859048 2.014447 0.989364
0.919648 6.663362 1.783350 0.050839
-0.471555 5.974520 1.213262 -0.237422
2.847824 9.358073 2.833544 0.428082
2.827228 9.338644 2.827228 0.000000
0.790217 6.833070 1.778852 0.003666
1.259511 8.644596 2.261696 0.430415
2.827228 9.338644 2.827228 0.000000
2.847824 9.358073 2.833544 -0.428082
0.790217 6.833070 1.778852 -0.003666
1.259511 8.644596 2.261696 -0.430415
0.375028 8.859048 2.014447 -0.989364
-0.035059 5.459192 1.253051 0.114977
0.919648 6.663362 1.783350 -0.050839
-0.471555 5.974520 1.213262 0.237422
-0.352760 4.030501 0.846700 0.619236
-0.452900 1.522265 0.242714 0.768852
-0.050712 3.041436 0.730176 0.405296
0.009865 3.019327 0.732082 0.787538

