# vtk DataFile Version 2.0
Unstructured Grid Example
ASCII
DATASET UNSTRUCTURED_GRID

POINTS 1089 float
-0.005505 -0.219523 0.000000 
1.005505 -0.219523 0.000000 
1.000000 1.000000 0.000000 
0.000000 1.000000 0.000000 
0.500000 -0.099677 0.000000 
0.958923 0.343385 0.000000 
0.500000 1.000000 0.000000 
0.041077 0.343385 0.000000 
0.500000 0.339647 0.000000 
0.234407 -0.170035 0.000000 
0.500000 0.050588 0.000000 
0.252259 0.049269 0.000000 
0.765593 -0.170035 0.000000 
0.747741 0.049269 0.000000 
0.986800 0.052447 0.000000 
0.732106 0.338361 0.000000 
0.950191 0.654624 0.000000 
0.732023 0.660290 0.000000 
0.750000 1.000000 0.000000 
0.500000 0.660787 0.000000 
0.250000 1.000000 0.000000 
0.267977 0.660290 0.000000 
0.049809 0.654624 0.000000 
0.267894 0.338361 0.000000 
0.013200 0.052447 0.000000 
0.120040 -0.217359 0.000000 
0.242842 -0.076529 0.000000 
0.119509 -0.088497 0.000000 
0.500000 -0.081083 0.000000 
0.367331 -0.064778 0.000000 
0.364294 -0.117873 0.000000 
0.380326 0.190593 0.000000 
0.375889 0.052940 0.000000 
0.500000 0.190536 0.000000 
0.635706 -0.117873 0.000000 
0.632669 -0.064778 0.000000 
0.880491 -0.088497 0.000000 
0.757158 -0.076529 0.000000 
0.879960 -0.217359 0.000000 
0.624111 0.052940 0.000000 
0.619674 0.190593 0.000000 
1.000586 -0.086668 0.000000 
0.868605 0.045937 0.000000 
0.845701 0.337889 0.000000 
0.855856 0.188098 0.000000 
0.971496 0.195439 0.000000 
0.738748 0.188786 0.000000 
0.616607 0.339613 0.000000 
0.950800 0.496040 0.000000 
0.840667 0.494900 0.000000 
0.855427 0.828468 0.000000 
0.843059 0.658783 0.000000 
0.961143 0.820023 0.000000 
0.729493 0.496100 0.000000 
0.615524 0.497015 0.000000 
0.875000 1.000000 0.000000 
0.739600 0.828909 0.000000 
0.500000 0.828726 0.000000 
0.620368 0.828759 0.000000 
0.625000 1.000000 0.000000 
0.616898 0.660667 0.000000 
0.500000 0.497283 0.000000 
0.375000 1.000000 0.000000 
0.379632 0.828759 0.000000 
0.144573 0.828468 0.000000 
0.260400 0.828909 0.000000 
0.125000 1.000000 0.000000 
0.383102 0.660667 0.000000 
0.384476 0.497015 0.000000 
0.038857 0.820023 0.000000 
0.156941 0.658783 0.000000 
0.154299 0.337889 0.000000 
0.159333 0.494900 0.000000 
0.049200 0.496040 0.000000 
0.270507 0.496100 0.000000 
0.383393 0.339613 0.000000 
0.028504 0.195439 0.000000 
0.144144 0.188098 0.000000 
0.131395 0.045937 0.000000 
-0.000586 -0.086668 0.000000 
0.261252 0.188786 0.000000 
0.056941 -0.220183 0.000000 
0.116425 -0.153627 0.000000 
0.056393 -0.155999 0.000000 
0.228759 -0.124281 0.000000 
0.174138 -0.144278 0.000000 
0.182159 -0.204977 0.000000 
0.185613 -0.019452 0.000000 
0.179990 -0.083077 0.000000 
0.247471 -0.015833 0.000000 
0.500000 -0.041785 0.000000 
0.429695 -0.070375 0.000000 
0.436628 -0.103645 0.000000 
0.437480 -0.013163 0.000000 
0.432487 -0.076644 0.000000 
0.500000 -0.016187 0.000000 
0.292806 -0.142196 0.000000 
0.365322 -0.104040 0.000000 
0.295356 -0.110032 0.000000 
0.441009 0.264096 0.000000 
0.440232 0.190664 0.000000 
0.500000 0.264023 0.000000 
0.313778 0.051360 0.000000 
0.378272 0.120072 0.000000 
0.317361 0.119096 0.000000 
0.500000 0.119383 0.000000 
0.439364 0.119792 0.000000 
0.438479 0.051781 0.000000 
0.307030 -0.073661 0.000000 
0.372896 -0.009683 0.000000 
0.310037 -0.013053 0.000000 
0.563372 -0.103645 0.000000 
0.570305 -0.070375 0.000000 
0.704644 -0.110032 0.000000 
0.634678 -0.104040 0.000000 
0.707194 -0.142196 0.000000 
0.567513 -0.076644 0.000000 
0.562520 -0.013163 0.000000 
0.943607 -0.155999 0.000000 
0.883575 -0.153627 0.000000 
0.943059 -0.220183 0.000000 
0.752529 -0.015833 0.000000 
0.820010 -0.083077 0.000000 
0.814387 -0.019452 0.000000 
0.817841 -0.204977 0.000000 
0.825862 -0.144278 0.000000 
0.771241 -0.124281 0.000000 
0.559768 0.190664 0.000000 
0.558991 0.264096 0.000000 
0.561521 0.051781 0.000000 
0.560636 0.119792 0.000000 
0.682639 0.119096 0.000000 
0.621728 0.120072 0.000000 
0.686222 0.051360 0.000000 
0.692970 -0.073661 0.000000 
0.689963 -0.013053 0.000000 
0.627104 -0.009683 0.000000 
1.004481 -0.154448 0.000000 
0.940578 -0.089683 0.000000 
0.927965 0.047300 0.000000 
0.934897 -0.021908 0.000000 
0.994295 -0.017558 0.000000 
0.874994 -0.022181 0.000000 
0.808591 0.047087 0.000000 
0.902169 0.339386 0.000000 
0.907514 0.264038 0.000000 
0.964670 0.268734 0.000000 
0.792889 0.261826 0.000000 
0.850320 0.262071 0.000000 
0.789109 0.337796 0.000000 
0.979005 0.123393 0.000000 
0.913783 0.190241 0.000000 
0.920728 0.118002 0.000000 
0.617940 0.263906 0.000000 
0.558343 0.339835 0.000000 
0.743055 0.117624 0.000000 
0.679420 0.189855 0.000000 
0.674586 0.339072 0.000000 
0.676689 0.263285 0.000000 
0.735033 0.262446 0.000000 
0.862064 0.116032 0.000000 
0.797556 0.187941 0.000000 
0.802878 0.116296 0.000000 
0.954039 0.418963 0.000000 
0.898085 0.416289 0.000000 
0.894967 0.575051 0.000000 
0.895574 0.494832 0.000000 
0.949387 0.574578 0.000000 
0.842420 0.415510 0.000000 
0.786569 0.415719 0.000000 
0.923007 0.913521 0.000000 
0.909914 0.826406 0.000000 
0.974154 0.906777 0.000000 
0.788199 0.659788 0.000000 
0.847898 0.743053 0.000000 
0.792365 0.743920 0.000000 
0.953794 0.736318 0.000000 
0.901404 0.740783 0.000000 
0.896705 0.657009 0.000000 
0.615757 0.417409 0.000000 
0.557924 0.417631 0.000000 
0.730210 0.416316 0.000000 
0.673247 0.416944 0.000000 
0.673339 0.577922 0.000000 
0.672814 0.496642 0.000000 
0.730078 0.577504 0.000000 
0.840764 0.576015 0.000000 
0.785908 0.576878 0.000000 
0.785426 0.495459 0.000000 
0.937500 1.000000 0.000000 
0.864981 0.914302 0.000000 
0.744656 0.914221 0.000000 
0.805177 0.914325 0.000000 
0.812500 1.000000 0.000000 
0.798206 0.828896 0.000000 
0.735269 0.744187 0.000000 
0.500000 0.913992 0.000000 
0.561340 0.913995 0.000000 
0.562500 1.000000 0.000000 
0.559297 0.744256 0.000000 
0.560248 0.828719 0.000000 
0.500000 0.744283 0.000000 
0.687500 1.000000 0.000000 
0.622612 0.914038 0.000000 
0.683750 0.914115 0.000000 
0.557840 0.497213 0.000000 
0.500000 0.417644 0.000000 
0.674815 0.660539 0.000000 
0.615913 0.578181 0.000000 
0.500000 0.578394 0.000000 
0.558054 0.578323 0.000000 
0.558550 0.660736 0.000000 
0.680216 0.828832 0.000000 
0.618418 0.744255 0.000000 
0.677162 0.744250 0.000000 
0.437500 1.000000 0.000000 
0.438660 0.913995 0.000000 
0.316250 0.914115 0.000000 
0.377388 0.914038 0.000000 
0.312500 1.000000 0.000000 
0.439752 0.828719 0.000000 
0.440703 0.744256 0.000000 
0.076993 0.913521 0.000000 
0.135019 0.914302 0.000000 
0.062500 1.000000 0.000000 
0.264731 0.744187 0.000000 
0.201794 0.828896 0.000000 
0.207635 0.743920 0.000000 
0.187500 1.000000 0.000000 
0.194823 0.914325 0.000000 
0.255344 0.914221 0.000000 
0.442160 0.497213 0.000000 
0.442076 0.417631 0.000000 
0.441450 0.660736 0.000000 
0.441946 0.578323 0.000000 
0.326661 0.577922 0.000000 
0.384087 0.578181 0.000000 
0.325185 0.660539 0.000000 
0.319784 0.828832 0.000000 
0.322838 0.744250 0.000000 
0.381582 0.744255 0.000000 
0.025846 0.906777 0.000000 
0.090086 0.826406 0.000000 
0.103295 0.657009 0.000000 
0.098596 0.740783 0.000000 
0.046206 0.736318 0.000000 
0.152102 0.743053 0.000000 
0.211801 0.659788 0.000000 
0.097831 0.339386 0.000000 
0.101915 0.416289 0.000000 
0.045961 0.418963 0.000000 
0.213431 0.415719 0.000000 
0.157580 0.415510 0.000000 
0.210891 0.337796 0.000000 
0.050613 0.574578 0.000000 
0.104426 0.494832 0.000000 
0.105033 0.575051 0.000000 
0.384243 0.417409 0.000000 
0.441657 0.339835 0.000000 
0.269922 0.577504 0.000000 
0.327186 0.496642 0.000000 
0.325414 0.339072 0.000000 
0.326753 0.416944 0.000000 
0.269790 0.416316 0.000000 
0.159236 0.576015 0.000000 
0.214574 0.495459 0.000000 
0.214092 0.576878 0.000000 
0.035330 0.268734 0.000000 
0.092486 0.264038 0.000000 
0.079272 0.118002 0.000000 
0.086217 0.190241 0.000000 
0.020995 0.123393 0.000000 
0.149680 0.262071 0.000000 
0.207111 0.261826 0.000000 
0.059422 -0.089683 0.000000 
-0.004481 -0.154448 0.000000 
0.191409 0.047087 0.000000 
0.125006 -0.022181 0.000000 
0.005705 -0.017558 0.000000 
0.065103 -0.021908 0.000000 
0.072035 0.047300 0.000000 
0.382060 0.263906 0.000000 
0.264967 0.262446 0.000000 
0.323311 0.263285 0.000000 
0.320580 0.189855 0.000000 
0.256945 0.117624 0.000000 
0.137936 0.116032 0.000000 
0.197122 0.116296 0.000000 
0.202444 0.187941 0.000000 
0.025632 -0.219915 0.000000 
0.056459 -0.188355 0.000000 
0.025553 -0.188042 0.000000 
0.117513 -0.185774 0.000000 
0.086958 -0.187632 0.000000 
0.088455 -0.219296 0.000000 
0.087667 -0.122557 0.000000 
0.086559 -0.155292 0.000000 
0.117648 -0.121103 0.000000 
0.233799 -0.147420 0.000000 
0.203687 -0.162315 0.000000 
0.207008 -0.185666 0.000000 
0.208154 -0.108543 0.000000 
0.201504 -0.134788 0.000000 
0.240315 -0.103654 0.000000 
0.151436 -0.212838 0.000000 
0.176258 -0.175033 0.000000 
0.147013 -0.181665 0.000000 
0.219078 0.014849 0.000000 
0.216436 -0.017505 0.000000 
0.249847 0.016396 0.000000 
0.149609 -0.086087 0.000000 
0.182816 -0.051563 0.000000 
0.152387 -0.053894 0.000000 
0.245154 -0.046754 0.000000 
0.213825 -0.049158 0.000000 
0.211030 -0.079279 0.000000 
0.145613 -0.149784 0.000000 
0.177352 -0.113775 0.000000 
0.147481 -0.118143 0.000000 
0.500000 -0.071734 0.000000 
0.468815 -0.075148 0.000000 
0.468779 -0.100952 0.000000 
0.468597 -0.085042 0.000000 
0.464611 -0.055667 0.000000 
0.500000 -0.065561 0.000000 
0.401630 -0.109664 0.000000 
0.434899 -0.087386 0.000000 
0.401597 -0.107776 0.000000 
0.468901 0.018375 0.000000 
0.468723 -0.014444 0.000000 
0.500000 0.017030 0.000000 
0.401103 -0.065998 0.000000 
0.435846 -0.044744 0.000000 
0.403214 -0.038760 0.000000 
0.500000 -0.048607 0.000000 
0.467083 -0.045691 0.000000 
0.467159 -0.075652 0.000000 
0.264104 -0.155363 0.000000 
0.294654 -0.117383 0.000000 
0.262152 -0.133142 0.000000 
0.366813 -0.132789 0.000000 
0.330352 -0.123729 0.000000 
0.327502 -0.129502 0.000000 
0.341013 -0.108383 0.000000 
0.330798 -0.092369 0.000000 
0.367810 -0.083246 0.000000 
0.435333 -0.069309 0.000000 
0.400721 -0.082457 0.000000 
[...]
POINT_DATA 1089

SCALARS u_h float 2
LOOKUP_TABLE default
-0.005505 -0.219523 
0.005505 -0.219523 
0.000000 0.000000 
0.000000 0.000000 
0.000000 -0.099677 
-0.041077 -0.156615 
0.000000 0.000000 
0.041077 -0.156615 
0.000000 -0.160353 
-0.015593 -0.170035 
0.000000 -0.199412 
0.002259 -0.200731 
0.015593 -0.170035 
-0.002259 -0.200731 
-0.013200 -0.197553 
-0.017894 -0.161639 
-0.049809 -0.095376 
-0.017977 -0.089710 
0.000000 0.000000 
0.000000 -0.089213 
0.000000 0.000000 
0.017977 -0.089710 
0.049809 -0.095376 
0.017894 -0.161639 
0.013200 -0.197553 
-0.004960 -0.217359 
-0.007158 -0.201529 
-0.005491 -0.213497 
0.000000 -0.206083 
-0.007669 -0.189778 
-0.010706 -0.117873 
0.005326 -0.184407 
0.000889 -0.197060 
0.000000 -0.184464 
0.010706 -0.117873 
0.007669 -0.189778 
0.005491 -0.213497 
0.007158 -0.201529 
0.004960 -0.217359 
-0.000889 -0.197060 
-0.005326 -0.184407 
0.000586 -0.211668 
-0.006395 -0.204063 
-0.029299 -0.162111 
-0.019144 -0.186902 
-0.028504 -0.179561 
-0.011252 -0.186214 
-0.008393 -0.160387 
-0.049200 -0.128960 
-0.034333 -0.130100 
-0.019573 -0.046532 
-0.031941 -0.091217 
-0.038857 -0.054977 
-0.020507 -0.128900 
-0.009476 -0.127985 
0.000000 0.000000 
-0.010400 -0.046091 
0.000000 -0.046274 
-0.004632 -0.046241 
0.000000 0.000000 
-0.008102 -0.089333 
0.000000 -0.127717 
0.000000 0.000000 
0.004632 -0.046241 
0.019573 -0.046532 
0.010400 -0.046091 
0.000000 0.000000 
0.008102 -0.089333 
0.009476 -0.127985 
0.038857 -0.054977 
0.031941 -0.091217 
0.029299 -0.162111 
0.034333 -0.130100 
0.049200 -0.128960 
0.020507 -0.128900 
0.008393 -0.160387 
0.028504 -0.179561 
0.019144 -0.186902 
0.006395 -0.204063 
-0.000586 -0.211668 
0.011252 -0.186214 
-0.005559 -0.220183 
-0.008575 -0.216127 
-0.006107 -0.218499 
-0.021241 -0.186781 
-0.013362 -0.206778 
-0.005341 -0.204977 
-0.001887 -0.206952 
-0.007510 -0.208077 
-0.002529 -0.203333 
0.000000 -0.104285 
-0.007805 -0.132875 
-0.000872 -0.103645 
-0.000020 -0.200663 
-0.005013 -0.201644 
0.000000 -0.203687 
-0.019694 -0.142196 
-0.009678 -0.166540 
-0.017144 -0.172532 
0.003509 -0.173404 
0.002732 -0.184336 
0.000000 -0.173477 
0.001278 -0.198640 
0.003272 -0.192428 
0.004861 -0.193404 
0.000000 -0.193117 
0.001864 -0.192708 
0.000979 -0.198219 
-0.005470 -0.198661 
-0.002104 -0.197183 
-0.002463 -0.200553 
0.000872 -0.103645 
0.007805 -0.132875 
0.017144 -0.172532 
0.009678 -0.166540 
0.019694 -0.142196 
0.005013 -0.201644 
0.000020 -0.200663 
0.006107 -0.218499 
0.008575 -0.216127 
0.005559 -0.220183 
0.002529 -0.203333 
0.007510 -0.208077 
0.001887 -0.206952 
0.005341 -0.204977 
0.013362 -0.206778 
0.021241 -0.186781 
-0.002732 -0.184336 
-0.003509 -0.173404 
-0.000979 -0.198219 
-0.001864 -0.192708 
-0.004861 -0.193404 
-0.003272 -0.192428 
-0.001278 -0.198640 
0.005470 -0.198661 
0.002463 -0.200553 
0.002104 -0.197183 
0.004481 -0.216948 
0.003078 -0.214683 
-0.009535 -0.202700 
-0.002603 -0.209408 
-0.005705 -0.205058 
-0.000006 -0.209681 
-0.003909 -0.202913 
-0.035331 -0.160614 
-0.029986 -0.173462 
-0.035330 -0.168766 
-0.019611 -0.175674 
-0.024680 -0.175429 
-0.023391 -0.162204 
-0.020995 -0.189107 
-0.023717 -0.184759 
-0.016772 -0.194498 
-0.007060 -0.173594 
-0.004157 -0.160165 
-0.006945 -0.194876 
-0.008080 -0.185145 
-0.012914 -0.160928 
-0.010811 -0.174215 
-0.014967 -0.175054 
-0.012936 -0.196468 
-0.014944 -0.187059 
-0.009622 -0.196204 
-0.045961 -0.143537 
-0.039415 -0.146211 
-0.042533 -0.112449 
-0.041926 -0.130168 
-0.050613 -0.112922 
-0.032580 -0.146990 
-0.025931 -0.146781 
-0.014493 -0.023979 
-0.027586 -0.048594 
-0.025846 -0.030723 
-0.024301 -0.090212 
-0.027102 -0.069447 
-0.020135 -0.068580 
-0.046206 -0.076182 
-0.036096 -0.071717 
-0.040795 -0.092991 
-0.009243 -0.145091 
-0.004576 -0.144869 
-0.019790 -0.146184 
-0.014253 -0.145556 
-0.014161 -0.109578 
-0.014686 -0.128358 
-0.019922 -0.109996 
-0.034236 -0.111485 
-0.026592 -0.110622 
-0.027074 -0.129541 
0.000000 0.000000 
-0.010019 -0.023198 
-0.005344 -0.023279 
-0.007323 -0.023175 
0.000000 0.000000 
-0.014294 -0.046104 
-0.014731 -0.068313 
0.000000 -0.023508 
-0.001160 -0.023505 
0.000000 0.000000 
-0.003203 -0.068244 
-0.002252 -0.046281 
0.000000 -0.068217 
0.000000 0.000000 
-0.002388 -0.023462 
-0.003750 -0.023385 
-0.004660 -0.127787 
0.000000 -0.144856 
-0.012685 -0.089461 
-0.009087 -0.109319 
0.000000 -0.109106 
-0.004446 -0.109177 
-0.003950 -0.089264 
-0.007284 -0.046168 
-0.006582 -0.068245 
-0.010338 -0.068250 
0.000000 0.000000 
0.001160 -0.023505 
0.003750 -0.023385 
0.002388 -0.023462 
0.000000 0.000000 
0.002252 -0.046281 
0.003203 -0.068244 
0.014493 -0.023979 
0.010019 -0.023198 
0.000000 0.000000 
0.014731 -0.068313 
0.014294 -0.046104 
0.020135 -0.068580 
0.000000 0.000000 
0.007323 -0.023175 
0.005344 -0.023279 
0.004660 -0.127787 
0.004576 -0.144869 
0.003950 -0.089264 
0.004446 -0.109177 
0.014161 -0.109578 
0.009087 -0.109319 
0.012685 -0.089461 
0.007284 -0.046168 
0.010338 -0.068250 
0.006582 -0.068245 
0.025846 -0.030723 
0.027586 -0.048594 
0.040795 -0.092991 
0.036096 -0.071717 
0.046206 -0.076182 
0.027102 -0.069447 
0.024301 -0.090212 
0.035331 -0.160614 
0.039415 -0.146211 
0.045961 -0.143537 
0.025931 -0.146781 
0.032580 -0.146990 
0.023391 -0.162204 
0.050613 -0.112922 
0.041926 -0.130168 
0.042533 -0.112449 
0.009243 -0.145091 
0.004157 -0.160165 
0.019922 -0.109996 
0.014686 -0.128358 
0.012914 -0.160928 
0.014253 -0.145556 
0.019790 -0.146184 
0.034236 -0.111485 
0.027074 -0.129541 
0.026592 -0.110622 
0.035330 -0.168766 
0.029986 -0.173462 
0.016772 -0.194498 
0.023717 -0.184759 
0.020995 -0.189107 
0.024680 -0.175429 
0.019611 -0.175674 
-0.003078 -0.214683 
-0.004481 -0.216948 
0.003909 -0.202913 
0.000006 -0.209681 
0.005705 -0.205058 
0.002603 -0.209408 
0.009535 -0.202700 
0.007060 -0.173594 
0.014967 -0.175054 
0.010811 -0.174215 
0.008080 -0.185145 
0.006945 -0.194876 
0.012936 -0.196468 
0.009622 -0.196204 
0.014944 -0.187059 
-0.005618 -0.219915 
-0.006041 -0.219605 
-0.005697 -0.219292 
-0.007487 -0.217024 
-0.006792 -0.218882 
-0.005295 -0.219296 
-0.006083 -0.216307 
-0.007191 -0.217792 
-0.007352 -0.214853 
-0.016201 -0.178670 
-0.015063 -0.193565 
-0.011742 -0.185666 
-0.010596 -0.202293 
-0.017246 -0.197288 
-0.009685 -0.197404 
-0.004814 -0.212838 
-0.011242 -0.206283 
-0.009237 -0.212915 
0.000328 -0.203901 
-0.002314 -0.205005 
-0.000153 -0.202354 
-0.006641 -0.211087 
-0.004684 -0.207813 
-0.003863 -0.210144 
-0.004846 -0.203004 
-0.004925 -0.205408 
-0.007720 -0.204279 
-0.010637 -0.212284 
-0.010148 -0.207525 
-0.008769 -0.211893 
0.000000 -0.102984 
0.000065 -0.106398 
0.000029 -0.100952 
-0.000153 -0.178792 
-0.004139 -0.118167 
0.000000 -0.159311 
-0.004620 -0.109664 
-0.002601 -0.118636 
-0.004653 -0.139026 
0.000151 -0.200375 
-0.000027 -0.201944 
0.000000 -0.201720 
-0.005147 -0.190998 
-0.001654 -0.200994 
-0.003036 -0.195010 
0.000000 -0.204857 
-0.001667 -0.201941 
-0.001591 -0.200652 
-0.017146 -0.155363 
-0.017846 -0.148633 
-0.019098 -0.164392 
-0.008187 -0.164039 
-0.013398 -0.154979 
-0.016248 -0.129502 
-0.002737 -0.202133 
-0.012952 -0.154869 
-0.007190 -0.176996 
-0.002167 -0.163059 
-0.005529 -0.176207 
-0.004641 -0.166215 
0.001851 -0.167007 
0.001747 -0.173414 
0.000000 -0.167088 
0.004026 -0.184324 
0.003133 -0.179078 
0.004576 -0.179080 
0.000000 -0.179169 
0.001496 -0.179086 
0.001370 -0.184378 
0.001759 -0.199705 
0.003082 -0.196280 
0.003735 -0.197275 
0.002103 -0.195055 
0.002421 -0.195685 
0.001035 -0.197878 
0.005267 -0.189069 
0.004034 -0.192881 
0.004322 -0.188668 
0.000000 -0.196474 
0.000650 -0.195971 
0.000534 -0.198793 
0.001084 -0.188815 
0.000952 -0.192898 
0.000000 -0.189005 
0.000966 -0.197400 
0.001417 -0.195719 
0.001615 -0.195114 
0.003194 -0.188586 
0.002579 -0.192479 
0.002303 -0.188753 
-0.022035 -0.166241 
-0.004737 -0.200014 
-0.003965 -0.193621 
-0.007120 -0.200080 
-0.005924 -0.201000 
0.000492 -0.199688 
-0.000561 -0.197576 
-0.000222 -0.197889 
-0.000968 -0.198009 
-0.004479 -0.194556 
-0.000437 -0.201304 
-0.004354 -0.201995 
-0.002419 -0.202029 
-0.000630 -0.199865 
-0.000764 -0.199025 
-0.004005 -0.199564 
-0.002275 -0.199541 
-0.004241 -0.200032 
-0.000029 -0.100952 
-0.000065 -0.106398 
0.004653 -0.139026 
0.002601 -0.118636 
0.004620 -0.109664 
0.004139 -0.118167 
0.000153 -0.178792 
0.019098 -0.164392 
0.017846 -0.148633 
0.017146 -0.155363 
0.007190 -0.176995 
0.012952 -0.154869 
0.002737 -0.202133 
0.016248 -0.129502 
0.013398 -0.154979 
0.008187 -0.164039 
0.000027 -0.201944 
-0.000151 -0.200375 
0.001591 -0.200652 
0.001667 -0.201941 
0.003036 -0.195010 
0.001654 -0.200994 
0.005147 -0.190998 
0.004641 -0.166215 
0.005529 -0.176207 
0.002167 -0.163059 
0.005697 -0.219292 
0.006041 -0.219605 
0.005618 -0.219915 
0.007352 -0.214853 
0.007191 -0.217792 
0.006083 -0.216307 
0.005295 -0.219296 
0.006792 -0.218882 
0.007487 -0.217024 
0.000153 -0.202354 
0.002314 -0.205005 
-0.000328 -0.203901 
0.007720 -0.204279 
0.004925 -0.205408 
0.004846 -0.203004 
0.003863 -0.210144 
0.004684 -0.207813 
0.006641 -0.211087 
0.011742 -0.185666 
0.015063 -0.193565 
0.016201 -0.178670 
0.009237 -0.212915 
0.011242 -0.206283 
0.004814 -0.212838 
0.009685 -0.197404 
0.017246 -0.197288 
0.010596 -0.202293 
0.008769 -0.211893 
0.010148 -0.207525 
0.010637 -0.212284 
-0.001747 -0.173414 
-0.001851 -0.167007 
-0.001370 -0.184378 
-0.001496 -0.179086 
-0.004576 -0.179080 
-0.003133 -0.179078 
-0.004026 -0.184324 
-0.000534 -0.198793 
-0.000650 -0.195971 
-0.001615 -0.195114 
-0.001417 -0.195719 
-0.000966 -0.197400 
-0.000952 -0.192898 
-0.001084 -0.188815 
-0.003735 -0.197275 
-0.003082 -0.196280 
-0.001759 -0.199705 
-0.004322 -0.188668 
-0.004034 -0.192881 
-0.005267 -0.189069 
-0.001035 -0.197878 
-0.002421 -0.195685 
-0.002103 -0.195055 
-0.002303 -0.188753 
-0.002579 -0.192479 
-0.003194 -0.188586 
0.022035 -0.166241 
0.005924 -0.201000 
0.007120 -0.200080 
0.003965 -0.193621 
0.004737 -0.200014 
0.000437 -0.201304 
0.000764 -0.199025 
0.000630 -0.199865 
0.002419 -0.202029 
0.004354 -0.201995 
-0.000492 -0.199688 
0.004479 -0.194556 
0.000968 -0.198009 
0.000222 -0.197889 
0.000561 -0.197576 
0.004241 -0.200032 
0.002275 -0.199541 
0.004005 -0.199564 
0.005152 -0.218559 
0.005279 -0.217939 
0.001867 -0.213529 
0.003913 -0.216015 
0.002780 -0.214469 
0.004886 -0.216722 
0.004285 -0.214466 
-0.011322 -0.200502 
-0.007612 -0.204235 
-0.009398 -0.201381 
-0.004506 -0.206976 
-0.006015 -0.206182 
-0.007918 -0.203643 
-0.002412 -0.208446 
-0.004099 -0.207625 
-0.000911 -0.210793 
-0.001010 -0.205193 
-0.003029 -0.201823 
0.002845 -0.211730 
0.001041 -0.208474 
-0.005086 -0.203623 
-0.001986 -0.206389 
-0.003168 -0.207047 
0.000391 -0.212166 
-0.001259 -0.209846 
0.001669 -0.212382 
-0.038243 -0.158885 
-0.035524 -0.165209 
-0.038313 -0.162813 
-0.029860 -0.168189 
-0.032745 -0.167173 
-0.032320 -0.161517 
-0.031989 -0.174277 
-0.032663 -0.171384 
-0.029415 -0.177015 
-0.018938 -0.168871 
-0.021587 -0.169112 
-0.020603 -0.161953 
-0.021982 -0.181329 
-0.022119 -0.175656 
-0.019569 -0.181572 
-0.026321 -0.162239 
-0.024244 -0.169109 
-0.027080 -0.168928 
-0.017103 -0.193419 
-0.018856 -0.192143 
-0.015055 -0.196459 
-0.026101 -0.182462 
-0.022483 -0.187413 
-0.024794 -0.184437 
-0.018107 -0.191052 
-0.020290 -0.189765 
-0.021409 -0.186040 
-0.027325 -0.174629 
-0.024385 -0.180478 
-0.026923 -0.179247 
-0.003848 -0.166969 
-0.002074 -0.160207 
-0.006223 -0.179215 
-0.005273 -0.173464 
-0.006256 -0.160248 
-0.005728 -0.167029 
-0.007765 -0.167178 
-0.004616 -0.198060 
-0.005874 -0.194148 
-0.009633 -0.185686 
-0.007693 -0.190198 
-0.009136 -0.190769 
-0.006502 -0.189509 
-0.006677 -0.184746 
-0.015363 -0.161284 
-0.014101 -0.168160 
-0.016506 -0.168528 
-0.009741 -0.167450 
-0.011921 -0.167758 
-0.010621 -0.160638 
-0.013167 -0.180835 
-0.012853 -0.174640 
-0.011208 -0.180396 
-0.007735 -0.179531 
-0.009491 -0.179889 
-0.008908 -0.173882 
-0.013160 -0.198732 
-0.016086 -0.191855 
-0.014818 -0.195717 
-0.011330 -0.199887 
-0.009679 -0.200442 
-0.017253 -0.175409 
-0.013061 -0.186687 
-0.015144 -0.181274 
-0.017344 -0.181553 
-0.017010 -0.187101 
-0.005592 -0.199059 
-0.008128 -0.200330 
-0.006786 -0.199785 
-0.008241 -0.195582 
-0.010618 -0.191413 
-0.014106 -0.192018 
-0.012328 -0.191835 
-0.011233 -0.196465 
-0.043659 -0.150208 
-0.040680 -0.152228 
-0.044377 -0.137655 
-0.042733 -0.145082 
-0.047722 -0.136372 
-0.037491 -0.153553 
-0.034343 -0.154321 
-0.046295 -0.103770 
-0.046640 -0.112779 
-0.050421 -0.104279 
-0.038127 -0.130202 
-0.042408 -0.121455 
-0.038474 -0.121304 
-0.050076 -0.121066 
-0.046367 -0.121522 
-0.045621 -0.129723 
-0.024768 -0.154654 
-0.021860 -0.154388 
-0.031055 -0.154705 
-0.027944 -0.154767 
-0.030125 -0.138565 
-0.029224 -0.146938 
-0.033599 -0.138695 
-0.040816 -0.138332 
-0.037269 -0.138672 
-0.036002 -0.146717 
-0.008559 -0.012408 
-0.019344 -0.026283 
-0.014918 -0.016336 
-0.023272 -0.047325 
-0.021434 -0.036365 
-0.017537 -0.035280 
-0.032966 -0.043203 
-0.026818 -0.039004 
-0.033066 -0.051246 
-0.021035 -0.089930 
-0.022376 -0.079486 
-0.019238 -0.079241 
-0.029753 -0.080450 
-0.025869 -0.079887 
-0.028001 -0.090657 
-0.020145 -0.057616 
-0.023456 -0.068934 
-0.023562 -0.058063 
-0.048279 -0.085925 
-0.043644 -0.084278 
-0.045367 -0.094172 
-0.037615 -0.062822 
-0.041175 -0.073751 
-0.042909 -0.065773 
-0.036291 -0.092030 
-0.038733 -0.082514 
-0.034133 -0.081401 
-0.027571 -0.058963 
-0.031426 -0.070414 
-0.032214 -0.060311 
-0.004392 -0.152680 
-0.002243 -0.152720 
-0.008865 -0.152903 
-0.006650 -0.152776 
-0.007021 -0.136562 
-0.006886 -0.144959 
-0.009410 -0.136681 
-0.018933 -0.154075 
-0.016297 -0.153731 
-0.017374 -0.137381 
-0.016972 -0.145864 
-0.020253 -0.137689 
-0.013653 -0.153406 
-0.011270 -0.153136 
-0.016177 -0.099764 
-0.016972 -0.109772 
-0.019065 -0.099960 
-0.012036 -0.128157 
-0.014505 -0.119092 
-0.011866 -0.118914 
-0.020329 -0.119577 
-0.017351 -0.119312 
-0.017537 -0.128618 
-0.011709 -0.145307 
-0.014547 -0.137102 
-0.011959 -0.136872 
-0.041887 -0.102873 
-0.033292 -0.101489 
-0.037584 -0.102211 
-0.038359 -0.111973 
-0.034456 -0.120938 
-0.022216 -0.100212 
-0.023591 -0.119884 
-0.023173 -0.110289 
-0.025606 -0.100535 
-0.029353 -0.100984 
-0.022812 -0.146498 
-0.030656 -0.129838 
-0.026631 -0.138311 
-0.023423 -0.138008 
-0.023727 -0.129217 
-0.030337 -0.111033 
-0.026980 -0.120218 
-0.030688 -0.120600 
0.000000 0.000000 
-0.007101 -0.011870 
-0.004967 -0.011581 
-0.005589 -0.011625 
0.000000 0.000000 
-0.011986 -0.023440 
-0.014921 -0.034868 
-0.002677 -0.011677 
-0.002996 -0.011651 
0.000000 0.000000 
-0.009183 -0.034680 
-0.006289 -0.023224 
-0.007916 -0.034727 
0.000000 0.000000 
-0.003655 -0.011606 
-0.004070 -0.011587 
-0.017324 -0.068417 
-0.016460 -0.079094 
-0.016768 -0.046252 
-0.017343 -0.057396 
-0.012646 -0.057261 
-0.014777 -0.057287 
-0.012258 -0.046081 
-0.008581 -0.023162 
-0.010875 -0.034664 
-0.012567 -0.034693 
0.000000 -0.011815 
-0.000200 -0.011815 
0.000000 0.000000 
-0.000769 -0.034960 
-0.000577 -0.023510 
0.000000 -0.034957 
0.000000 0.000000 
-0.000583 -0.011812 
-0.000792 -0.011805 
-0.001733 -0.078819 
-0.001593 -0.068231 
0.000000 -0.078802 
-0.003425 -0.046264 
-0.002742 -0.057337 
-0.004094 -0.057325 
0.000000 -0.057321 
-0.001292 -0.057329 
-0.001120 -0.046281 
0.000000 0.000000 
-0.001882 -0.011741 
-0.002146 -0.011720 
-0.001199 -0.011787 
-0.001429 -0.011773 
0.000000 0.000000 
-0.004416 -0.034875 
-0.003053 -0.023426 
-0.003529 -0.034913 
-0.001715 -0.034958 
-0.002521 -0.034939 
-0.001765 -0.023487 
-0.002287 -0.144844 
0.000000 -0.152753 
-0.007042 -0.127870 
-0.004643 -0.136469 
0.000000 -0.136423 
-0.002327 -0.136442 
-0.002323 -0.127739 
-0.015256 -0.089570 
-0.013502 -0.099623 
-0.008643 -0.099429 
-0.010988 -0.099508 
-0.010344 -0.089389 
-0.011575 -0.109437 
-0.009333 -0.118774 
0.000000 -0.099262 
-0.002065 -0.099287 
-0.001966 -0.089235 
-0.002266 -0.118560 
-0.002214 -0.109134 
0.000000 -0.118531 
-0.005998 -0.089294 
-0.004221 -0.099323 
-0.006369 -0.099366 
-0.006919 -0.118676 
-0.006738 -0.109238 
-0.004578 -0.118603 
-0.004521 -0.023334 
-0.005926 -0.046206 
-0.005547 -0.034830 
-0.006576 -0.034778 
-0.008790 -0.046127 
-0.003597 -0.078841 
-0.007384 -0.078875 
-0.005406 -0.078852 
-0.004868 -0.068244 
-0.005639 -0.057314 
-0.013879 -0.078991 
-0.010596 -0.057253 
-0.012465 -0.068272 
-0.011581 -0.078939 
-0.009374 -0.078894 
-0.007129 -0.057290 
-0.008417 -0.068245 
-0.008863 -0.057275 
0.000000 0.000000 
0.000200 -0.011815 
0.000792 -0.011805 
0.000583 -0.011812 
0.000000 0.000000 
0.000577 -0.023510 
0.000769 -0.034960 
0.002146 -0.011720 
0.001882 -0.011741 
0.000000 0.000000 
0.003529 -0.034913 
0.003053 -0.023426 
0.004416 -0.034875 
0.000000 0.000000 
0.001429 -0.011773 
0.001199 -0.011787 
0.001593 -0.068231 
0.001733 -0.078819 
0.001120 -0.046281 
0.001292 -0.057329 
0.004094 -0.057325 
0.002742 -0.057337 
0.003425 -0.046264 
0.001765 -0.023487 
0.002521 -0.034939 
0.001715 -0.034958 
0.008559 -0.012408 
0.007101 -0.011870 
0.000000 0.000000 
0.014921 -0.034868 
0.011986 -0.023440 
0.017537 -0.035280 
0.000000 0.000000 
0.005589 -0.011625 
0.004967 -0.011581 
0.016460 -0.079094 
0.017324 -0.068417 
0.019238 -0.079241 
0.012258 -0.046081 
0.014777 -0.057287 
0.012646 -0.057261 
0.020145 -0.057616 
0.017343 -0.057396 
0.016768 -0.046252 
0.000000 0.000000 
0.002996 -0.011651 
0.002677 -0.011677 
0.004070 -0.011587 
0.003655 -0.011606 
0.000000 0.000000 
0.007916 -0.034727 
0.006289 -0.023224 
0.009183 -0.034680 
0.012567 -0.034693 
0.010875 -0.034664 
0.008581 -0.023162 
0.002287 -0.144844 
0.002243 -0.152720 
0.002323 -0.127739 
0.002327 -0.136442 
0.007021 -0.136562 
0.004643 -0.136469 
0.007042 -0.127870 
0.001966 -0.089235 
0.002065 -0.099287 
0.006369 -0.099366 
0.004221 -0.099323 
0.005998 -0.089294 
0.002214 -0.109134 
0.002266 -0.118560 
0.016177 -0.099764 
0.013502 -0.099623 
0.015256 -0.089570 
0.009333 -0.118774 
0.011575 -0.109437 
0.011866 -0.118914 
0.010344 -0.089389 
0.010988 -0.099508 
0.008643 -0.099429 
0.004578 -0.118603 
0.006738 -0.109238 
0.006919 -0.118676 
0.004521 -0.023334 
0.008790 -0.046127 
0.006576 -0.034778 
0.005547 -0.034830 
0.005926 -0.046206 
0.013879 -0.078991 
0.009374 -0.078894 
0.011581 -0.078939 
0.012465 -0.068272 
0.010596 -0.057253 
0.003597 -0.078841 
0.005639 -0.057314 
0.004868 -0.068244 
0.005406 -0.078852 
0.007384 -0.078875 
0.008863 -0.057275 
0.008417 -0.068245 
0.007129 -0.057290 
0.014918 -0.016336 
0.019344 -0.026283 
0.033066 -0.051246 
0.026818 -0.039004 
0.032966 -0.043203 
0.021434 -0.036365 
0.023272 -0.047325 
0.045367 -0.094172 
0.043644 -0.084278 
0.048279 -0.085925 
0.034133 -0.081401 
0.038733 -0.082514 
0.036291 -0.092030 
0.042909 -0.065773 
0.041175 -0.073751 
0.037615 -0.062822 
0.022376 -0.079486 
0.021035 -0.089930 
0.023562 -0.058063 
0.023456 -0.068934 
0.028001 -0.090657 
0.025869 -0.079887 
0.029753 -0.080450 
0.032214 -0.060311 
0.031426 -0.070414 
0.027571 -0.058963 
0.038243 -0.158885 
0.040680 -0.152228 
0.043659 -0.150208 
0.034343 -0.154321 
0.037491 -0.153553 
0.032320 -0.161517 
0.047722 -0.136372 
0.042733 -0.145082 
0.044377 -0.137655 
0.021860 -0.154388 
0.024768 -0.154654 
0.020603 -0.161953 
0.033599 -0.138695 
0.029224 -0.146938 
0.030125 -0.138565 
0.026321 -0.162239 
0.027944 -0.154767 
0.031055 -0.154705 
0.050421 -0.104279 
0.046640 -0.112779 
0.046295 -0.103770 
0.045621 -0.129723 
0.046367 -0.121522 
0.050076 -0.121066 
0.038474 -0.121304 
0.042408 -0.121455 
0.038127 -0.130202 
0.036002 -0.146717 
0.037269 -0.138672 
0.040816 -0.138332 
0.004392 -0.152680 
0.002074 -0.160207 
0.009410 -0.136681 
0.006886 -0.144959 
0.006256 -0.160248 
0.006650 -0.152776 
0.008865 -0.152903 
0.019065 -0.099960 
0.016972 -0.109772 
0.017537 -0.128618 
0.017351 -0.119312 
0.020329 -0.119577 
0.014505 -0.119092 
0.012036 -0.128157 
0.015363 -0.161284 
0.016297 -0.153731 
0.018933 -0.154075 
0.011270 -0.153136 
0.013653 -0.153406 
0.010621 -0.160638 