# vtk DataFile Version 2.0
Unstructured Grid Example
ASCII
DATASET UNSTRUCTURED_GRID

POINTS 9 float
0.041843 -0.243476 0.000000 
0.958157 -0.243476 0.000000 
1.000000 1.000000 0.000000 
0.000000 1.000000 0.000000 
0.500000 -0.065307 0.000000 
0.955923 0.342227 0.000000 
0.500000 1.000000 0.000000 
0.044077 0.342227 0.000000 
0.500000 0.360516 0.000000 

CELLS 8 32
3  0 4 8 
3  4 1 8 
3  1 5 8 
3  5 2 8 
3  2 6 8 
3  6 3 8 
3  3 7 8 
3  7 0 8 

CELL_TYPES 8
5
5
5
5
5
5
5
5

POINT_DATA 9

SCALARS u_h float 2
LOOKUP_TABLE default
0.041843 -0.243476 
-0.041843 -0.243476 
0.000000 0.000000 
0.000000 0.000000 
0.000000 -0.065307 
-0.044077 -0.157773 
0.000000 0.000000 
0.044077 -0.157773 
0.000000 -0.139484 

CELL_DATA 8

SCALARS epsilon float 4
LOOKUP_TABLE default
-0.087159 -0.054772 0.000000 0.207460
-0.087159 -0.054772 0.000000 -0.207460
-0.092146 0.157467 0.000000 -0.017864
-0.086657 0.271616 0.000000 0.031730
0.000000 0.241907 0.000000 -0.000000
0.000000 0.241907 0.000000 -0.000000
-0.086657 0.271616 0.000000 -0.031730
-0.092146 0.157467 0.000000 0.017864

SCALARS sigma float 4
LOOKUP_TABLE default
-1.034952 -1.913848 -1.419302 2.033358
-1.034952 -1.913848 -1.419302 -2.033358
-0.764845 3.709950 0.653219 -0.375411
0.372434 7.867168 1.849590 0.279877
2.419072 7.779336 2.419072 -0.000000
2.419072 7.779336 2.419072 -0.000000
0.372434 7.867168 1.849590 -0.279877
-0.764845 3.709950 0.653219 0.375411

