# vtk DataFile Version 2.0
Unstructured Grid Example
ASCII
DATASET UNSTRUCTURED_GRID

POINTS 64 float
0.000000 0.000000 0.000000 
0.031250 0.000000 0.000000 
0.031250 0.000000 0.000000 
0.062500 0.000000 0.000000 
0.062500 0.000000 0.000000 
0.093750 0.000000 0.000000 
0.093750 0.000000 0.000000 
0.125000 0.000000 0.000000 
0.187500 15.925911 0.000000 
0.218750 -31.846030 0.000000 
0.218750 -10.091752 0.000000 
0.250000 -27.582646 0.000000 
0.125000 0.000000 0.000000 
0.156250 0.000000 0.000000 
0.156250 -0.001931 0.000000 
0.187500 0.003861 0.000000 
0.437500 -10.079901 0.000000 
0.468750 -9.780397 0.000000 
0.468750 -9.960335 0.000000 
0.500000 -9.720025 0.000000 
0.375000 -10.849768 0.000000 
0.406250 -9.848076 0.000000 
0.406250 -10.383880 0.000000 
0.437500 -9.778160 0.000000 
0.250000 -29.830126 0.000000 
0.281250 -5.596793 0.000000 
0.281250 -15.439882 0.000000 
0.312500 -10.143948 0.000000 
0.312500 -12.735318 0.000000 
0.343750 -10.257143 0.000000 
0.343750 -11.650533 0.000000 
0.375000 -9.948539 0.000000 
0.500000 -9.720025 0.000000 
0.531250 -9.960335 0.000000 
0.531250 -9.780397 0.000000 
0.562500 -10.079901 0.000000 
0.562500 -9.778160 0.000000 
0.593750 -10.383880 0.000000 
0.593750 -9.848076 0.000000 
0.625000 -10.849768 0.000000 
0.687500 -10.143948 0.000000 
0.718750 -15.439882 0.000000 
0.718750 -5.596793 0.000000 
0.750000 -29.830126 0.000000 
0.625000 -9.948539 0.000000 
0.656250 -11.650533 0.000000 
0.656250 -10.257143 0.000000 
0.687500 -12.735318 0.000000 
0.937500 0.000000 0.000000 
0.968750 0.000000 0.000000 
0.968750 0.000000 0.000000 
1.000000 0.000000 0.000000 
0.875000 0.000000 0.000000 
0.906250 0.000000 0.000000 
0.906250 0.000000 0.000000 
0.937500 0.000000 0.000000 
0.750000 -27.582646 0.000000 
0.781250 -10.091752 0.000000 
0.781250 -31.846030 0.000000 
0.812500 15.925911 0.000000 
0.812500 0.003861 0.000000 
0.843750 -0.001931 0.000000 
0.843750 0.000000 0.000000 
0.875000 0.000000 0.000000 

CELLS 32 96
2  0 1 
2  2 3 
2  4 5 
2  6 7 
2  8 9 
2  10 11 
2  12 13 
2  14 15 
2  16 17 
2  18 19 
2  20 21 
2  22 23 
2  24 25 
2  26 27 
2  28 29 
2  30 31 
2  32 33 
2  34 35 
2  36 37 
2  38 39 
2  40 41 
2  42 43 
2  44 45 
2  46 47 
2  48 49 
2  50 51 
2  52 53 
2  54 55 
2  56 57 
2  58 59 
2  60 61 
2  62 63 

CELL_TYPES 32
3
3
3
3
3
3
3
3
3
3
3
3
3
3
3
3
3
3
3
3
3
3
3
3
3
3
3
3
3
3
3
3

POINT_DATA 64

SCALARS lambda_h float 1
LOOKUP_TABLE default
0.000000 
0.000000 
0.000000 
0.000000 
0.000000 
0.000000 
0.000000 
0.000000 
15.925911 
-31.846030 
-10.091752 
-27.582646 
0.000000 
0.000000 
-0.001931 
0.003861 
-10.079901 
-9.780397 
-9.960335 
-9.720025 
-10.849768 
-9.848076 
-10.383880 
-9.778160 
-29.830126 
-5.596793 
-15.439882 
-10.143948 
-12.735318 
-10.257143 
-11.650533 
-9.948539 
-9.720025 
-9.960335 
-9.780397 
-10.079901 
-9.778160 
-10.383880 
-9.848076 
-10.849768 
-10.143948 
-15.439882 
-5.596793 
-29.830126 
-9.948539 
-11.650533 
-10.257143 
-12.735318 
0.000000 
0.000000 
0.000000 
0.000000 
0.000000 
0.000000 
0.000000 
0.000000 
-27.582646 
-10.091752 
-31.846030 
15.925911 
0.003861 
-0.001931 
0.000000 
0.000000 

