# vtk DataFile Version 2.0
Unstructured Grid Example
ASCII
DATASET UNSTRUCTURED_GRID

POINTS 32 float
0.000000 0.000000 0.000000 
0.062500 0.000000 0.000000 
0.062500 0.000000 0.000000 
0.125000 0.000000 0.000000 
0.125000 0.000000 0.000000 
0.187500 0.000000 0.000000 
0.187500 43.584768 0.000000 
0.250000 -87.169536 0.000000 
0.375000 -6.287434 0.000000 
0.437500 -9.926639 0.000000 
0.437500 -8.853759 0.000000 
0.500000 -8.433194 0.000000 
0.250000 -87.169536 0.000000 
0.312500 43.584768 0.000000 
0.312500 7.500502 0.000000 
0.375000 -15.001004 0.000000 
0.500000 -8.433194 0.000000 
0.562500 -8.853759 0.000000 
0.562500 -9.926639 0.000000 
0.625000 -6.287434 0.000000 
0.625000 -15.001004 0.000000 
0.687500 7.500502 0.000000 
0.687500 43.584768 0.000000 
0.750000 -87.169536 0.000000 
0.875000 0.000000 0.000000 
0.937500 0.000000 0.000000 
0.937500 0.000000 0.000000 
1.000000 0.000000 0.000000 
0.750000 -87.169536 0.000000 
0.812500 43.584768 0.000000 
0.812500 0.000000 0.000000 
0.875000 0.000000 0.000000 

CELLS 16 48
2  0 1 
2  2 3 
2  4 5 
2  6 7 
2  8 9 
2  10 11 
2  12 13 
2  14 15 
2  16 17 
2  18 19 
2  20 21 
2  22 23 
2  24 25 
2  26 27 
2  28 29 
2  30 31 

CELL_TYPES 16
3
3
3
3
3
3
3
3
3
3
3
3
3
3
3
3

POINT_DATA 32

SCALARS lambda_h float 1
LOOKUP_TABLE default
0.000000 
0.000000 
0.000000 
0.000000 
0.000000 
0.000000 
43.584768 
-87.169536 
-6.287434 
-9.926639 
-8.853759 
-8.433194 
-87.169536 
43.584768 
7.500502 
-15.001004 
-8.433194 
-8.853759 
-9.926639 
-6.287434 
-15.001004 
7.500502 
43.584768 
-87.169536 
0.000000 
0.000000 
0.000000 
0.000000 
-87.169536 
43.584768 
0.000000 
0.000000 

