# vtk DataFile Version 2.0
Unstructured Grid Example
ASCII
DATASET UNSTRUCTURED_GRID

POINTS 16 float
0.000000 18.567457 0.000000 
0.125000 -37.134915 0.000000 
0.125000 -16.837137 0.000000 
0.250000 -22.028097 0.000000 
0.250000 -39.241585 0.000000 
0.375000 17.589839 0.000000 
0.375000 -1.315178 0.000000 
0.500000 -1.431551 0.000000 
0.500000 -1.431551 0.000000 
0.625000 -1.315178 0.000000 
0.625000 17.589839 0.000000 
0.750000 -39.241585 0.000000 
0.750000 -22.028097 0.000000 
0.875000 -16.837137 0.000000 
0.875000 -37.134915 0.000000 
1.000000 18.567457 0.000000 

CELLS 8 24
2  0 1 
2  2 3 
2  4 5 
2  6 7 
2  8 9 
2  10 11 
2  12 13 
2  14 15 

CELL_TYPES 8
3
3
3
3
3
3
3
3

POINT_DATA 16

SCALARS lambda_h float 1
LOOKUP_TABLE default
18.567457 
-37.134915 
-16.837137 
-22.028097 
-39.241585 
17.589839 
-1.315178 
-1.431551 
-1.431551 
-1.315178 
17.589839 
-39.241585 
-22.028097 
-16.837137 
-37.134915 
18.567457 

