# vtk DataFile Version 2.0
Unstructured Grid Example
ASCII
DATASET UNSTRUCTURED_GRID

POINTS 8 float
0.000000 0.746259 0.000000 
0.250000 -1.492518 0.000000 
0.250000 20.613536 0.000000 
0.500000 -43.465849 0.000000 
0.500000 -43.465849 0.000000 
0.750000 20.613536 0.000000 
0.750000 -1.492518 0.000000 
1.000000 0.746259 0.000000 

CELLS 4 12
2  0 1 
2  2 3 
2  4 5 
2  6 7 

CELL_TYPES 4
3
3
3
3

POINT_DATA 8

SCALARS lambda_h float 1
LOOKUP_TABLE default
0.746259 
-1.492518 
20.613536 
-43.465849 
-43.465849 
20.613536 
-1.492518 
0.746259 

