# vtk DataFile Version 2.0
Unstructured Grid Example
ASCII
DATASET UNSTRUCTURED_GRID

POINTS 128 float
0.000000 5.615105 0.000000 
0.015625 0.802859 0.000000 
0.015625 4.162038 0.000000 
0.031250 -1.103253 0.000000 
0.031250 1.464924 0.000000 
0.046875 -0.974317 0.000000 
0.046875 5.251504 0.000000 
0.062500 -10.986717 0.000000 
0.093750 21.447878 0.000000 
0.109375 -30.763547 0.000000 
0.109375 -46.160973 0.000000 
0.125000 52.242730 0.000000 
0.062500 32.387287 0.000000 
0.078125 -81.496505 0.000000 
0.078125 -91.114551 0.000000 
0.093750 51.623381 0.000000 
0.218750 141.832783 0.000000 
0.234375 -190.401482 0.000000 
0.234375 -138.387182 0.000000 
0.250000 37.804184 0.000000 
0.187500 -72.727049 0.000000 
0.203125 145.454774 0.000000 
0.203125 114.366972 0.000000 
0.218750 -10.551444 0.000000 
0.125000 35.977091 0.000000 
0.140625 -13.629694 0.000000 
0.140625 -2.872806 0.000000 
0.156250 14.463315 0.000000 
0.156250 -8.952739 0.000000 
0.171875 43.959300 0.000000 
0.171875 52.643683 0.000000 
0.187500 -26.321503 0.000000 
0.468750 -11.375485 0.000000 
0.484375 -11.168268 0.000000 
0.484375 -11.283789 0.000000 
0.500000 -11.144444 0.000000 
0.437500 -11.831951 0.000000 
0.453125 -11.240325 0.000000 
0.453125 -11.568655 0.000000 
0.468750 -11.175292 0.000000 
0.375000 -14.102964 0.000000 
0.390625 -12.107197 0.000000 
0.390625 -13.266247 0.000000 
0.406250 -11.784865 0.000000 
0.406250 -12.648297 0.000000 
0.421875 -11.539382 0.000000 
0.421875 -12.183298 0.000000 
0.437500 -11.360465 0.000000 
0.250000 -26.225047 0.000000 
0.265625 -10.328722 0.000000 
0.265625 -16.628898 0.000000 
0.281250 -13.624695 0.000000 
0.281250 -15.661102 0.000000 
0.296875 -12.556084 0.000000 
0.296875 4.685450 0.000000 
0.312500 -50.144170 0.000000 
0.343750 -17.124379 0.000000 
0.359375 -12.978421 0.000000 
0.359375 -15.283105 0.000000 
0.375000 -12.515010 0.000000 
0.312500 -45.388393 0.000000 
0.328125 -4.826104 0.000000 
0.328125 -20.951341 0.000000 
0.343750 -13.137919 0.000000 
0.500000 -11.144425 0.000000 
0.515625 -11.283827 0.000000 
0.515625 -11.168267 0.000000 
0.531250 -11.375544 0.000000 
0.531250 -11.175310 0.000000 
0.546875 -11.568734 0.000000 
0.546875 -11.240363 0.000000 
0.562500 -11.832052 0.000000 
0.593750 -11.784965 0.000000 
0.609375 -13.266418 0.000000 
0.609375 -12.107320 0.000000 
0.625000 -14.103161 0.000000 
0.562500 -11.360523 0.000000 
0.578125 -12.183421 0.000000 
0.578125 -11.539461 0.000000 
0.593750 -12.648443 0.000000 
0.718750 -13.625292 0.000000 
0.734375 -16.627866 0.000000 
0.734375 -10.329556 0.000000 
0.750000 -26.221911 0.000000 
0.687500 -50.144793 0.000000 
0.703125 4.685512 0.000000 
0.703125 -12.556363 0.000000 
0.718750 -15.661043 0.000000 
0.625000 -12.515156 0.000000 
0.640625 -15.283330 0.000000 
0.640625 -12.978591 0.000000 
0.656250 -17.124634 0.000000 
0.656250 -13.138105 0.000000 
0.671875 -20.951649 0.000000 
0.671875 -4.826244 0.000000 
0.687500 -45.388915 0.000000 
0.968750 -1.106761 0.000000 
0.984375 4.157269 0.000000 
0.984375 0.800280 0.000000 
1.000000 5.607217 0.000000 
0.937500 -10.995931 0.000000 
0.953125 5.249677 0.000000 
0.953125 -0.978968 0.000000 
0.968750 1.461358 0.000000 
0.875000 52.242020 0.000000 
0.890625 -46.158519 0.000000 
0.890625 -30.760749 0.000000 
0.906250 21.446479 0.000000 
0.906250 51.568709 0.000000 
0.921875 -91.005208 0.000000 
0.921875 -81.380409 0.000000 
0.937500 32.319112 0.000000 
0.750000 37.804623 0.000000 
0.765625 -138.382624 0.000000 
0.765625 -190.395112 0.000000 
0.781250 141.829598 0.000000 
0.781250 -10.551444 0.000000 
0.796875 114.366972 0.000000 
0.796875 145.454774 0.000000 
0.812500 -72.727049 0.000000 
0.843750 14.463315 0.000000 
0.859375 -2.872806 0.000000 
0.859375 -13.630038 0.000000 
0.875000 35.977779 0.000000 
0.812500 -26.284544 0.000000 
0.828125 52.569765 0.000000 
0.828125 43.885383 0.000000 
0.843750 -8.915780 0.000000 

CELLS 64 192
2  0 1 
2  2 3 
2  4 5 
2  6 7 
2  8 9 
2  10 11 
2  12 13 
2  14 15 
2  16 17 
2  18 19 
2  20 21 
2  22 23 
2  24 25 
2  26 27 
2  28 29 
2  30 31 
2  32 33 
2  34 35 
2  36 37 
2  38 39 
2  40 41 
2  42 43 
2  44 45 
2  46 47 
2  48 49 
2  50 51 
2  52 53 
2  54 55 
2  56 57 
2  58 59 
2  60 61 
2  62 63 
2  64 65 
2  66 67 
2  68 69 
2  70 71 
2  72 73 
2  74 75 
2  76 77 
2  78 79 
2  80 81 
2  82 83 
2  84 85 
2  86 87 
2  88 89 
2  90 91 
2  92 93 
2  94 95 
2  96 97 
2  98 99 
2  100 101 
2  102 103 
2  104 105 
2  106 107 
2  108 109 
2  110 111 
2  112 113 
2  114 115 
2  116 117 
2  118 119 
2  120 121 
2  122 123 
2  124 125 
2  126 127 

CELL_TYPES 64
3
3
3
3
3
3
3
3
3
3
3
3
3
3
3
3
3
3
3
3
3
3
3
3
3
3
3
3
3
3
3
3
3
3
3
3
3
3
3
3
3
3
3
3
3
3
3
3
3
3
3
3
3
3
3
3
3
3
3
3
3
3
3
3

POINT_DATA 128

SCALARS lambda_h float 1
LOOKUP_TABLE default
5.615105 
0.802859 
4.162038 
-1.103253 
1.464924 
-0.974317 
5.251504 
-10.986717 
21.447878 
-30.763547 
-46.160973 
52.242730 
32.387287 
-81.496505 
-91.114551 
51.623381 
141.832783 
-190.401482 
-138.387182 
37.804184 
-72.727049 
145.454774 
114.366972 
-10.551444 
35.977091 
-13.629694 
-2.872806 
14.463315 
-8.952739 
43.959300 
52.643683 
-26.321503 
-11.375485 
-11.168268 
-11.283789 
-11.144444 
-11.831951 
-11.240325 
-11.568655 
-11.175292 
-14.102964 
-12.107197 
-13.266247 
-11.784865 
-12.648297 
-11.539382 
-12.183298 
-11.360465 
-26.225047 
-10.328722 
-16.628898 
-13.624695 
-15.661102 
-12.556084 
4.685450 
-50.144170 
-17.124379 
-12.978421 
-15.283105 
-12.515010 
-45.388393 
-4.826104 
-20.951341 
-13.137919 
-11.144425 
-11.283827 
-11.168267 
-11.375544 
-11.175310 
-11.568734 
-11.240363 
-11.832052 
-11.784965 
-13.266418 
-12.107320 
-14.103161 
-11.360523 
-12.183421 
-11.539461 
-12.648443 
-13.625292 
-16.627866 
-10.329556 
-26.221911 
-50.144793 
4.685512 
-12.556363 
-15.661043 
-12.515156 
-15.283330 
-12.978591 
-17.124634 
-13.138105 
-20.951649 
-4.826244 
-45.388915 
-1.106761 
4.157269 
0.800280 
5.607217 
-10.995931 
5.249677 
-0.978968 
1.461358 
52.242020 
-46.158519 
-30.760749 
21.446479 
51.568709 
-91.005208 
-81.380409 
32.319112 
37.804623 
-138.382624 
-190.395112 
141.829598 
-10.551444 
114.366972 
145.454774 
-72.727049 
14.463315 
-2.872806 
-13.630038 
35.977779 
-26.284544 
52.569765 
43.885383 
-8.915780 

