# vtk DataFile Version 2.0
Unstructured Grid Example
ASCII
DATASET UNSTRUCTURED_GRID

POINTS 1089 float
0.090051 -0.269813 0.000000 
0.909949 -0.269813 0.000000 
1.000000 1.000000 0.000000 
0.000000 1.000000 0.000000 
0.500000 -0.100000 0.000000 
0.987876 0.304942 0.000000 
0.500000 1.000000 0.000000 
0.012124 0.304942 0.000000 
0.500000 0.317272 0.000000 
0.275136 -0.100001 0.000000 
0.500000 0.088736 0.000000 
0.234626 0.062970 0.000000 
0.724864 -0.100001 0.000000 
0.765374 0.062970 0.000000 
1.011535 -0.000911 0.000000 
0.751545 0.304294 0.000000 
0.942533 0.620269 0.000000 
0.725576 0.617369 0.000000 
0.750000 1.000000 0.000000 
0.500000 0.622821 0.000000 
0.250000 1.000000 0.000000 
0.274424 0.617369 0.000000 
0.057467 0.620269 0.000000 
0.248455 0.304294 0.000000 
-0.011535 -0.000911 0.000000 
0.195726 -0.194680 0.000000 
0.246425 -0.031489 0.000000 
0.129378 -0.092860 0.000000 
0.500000 -0.008712 0.000000 
0.375754 -0.011437 0.000000 
0.382702 -0.100000 0.000000 
0.368169 0.190558 0.000000 
0.368364 0.083412 0.000000 
0.500000 0.195726 0.000000 
0.617298 -0.100000 0.000000 
0.624246 -0.011437 0.000000 
0.870622 -0.092860 0.000000 
0.753575 -0.031489 0.000000 
0.804274 -0.194680 0.000000 
0.631636 0.083412 0.000000 
0.631831 0.190558 0.000000 
0.978245 -0.149816 0.000000 
0.893469 0.026477 0.000000 
0.872745 0.296134 0.000000 
0.889983 0.156312 0.000000 
1.008451 0.152749 0.000000 
0.763107 0.175433 0.000000 
0.626529 0.313934 0.000000 
0.963289 0.458997 0.000000 
0.851450 0.447669 0.000000 
0.834405 0.801011 0.000000 
0.834423 0.614535 0.000000 
0.937272 0.792662 0.000000 
0.736691 0.450866 0.000000 
0.619145 0.456785 0.000000 
0.875000 1.000000 0.000000 
0.726981 0.803628 0.000000 
0.500000 0.805731 0.000000 
0.614710 0.804981 0.000000 
0.625000 1.000000 0.000000 
0.613825 0.621110 0.000000 
0.500000 0.459341 0.000000 
0.375000 1.000000 0.000000 
0.385290 0.804981 0.000000 
0.165595 0.801011 0.000000 
0.273019 0.803628 0.000000 
0.125000 1.000000 0.000000 
0.386175 0.621110 0.000000 
0.380855 0.456785 0.000000 
0.062728 0.792662 0.000000 
0.165577 0.614535 0.000000 
0.127255 0.296134 0.000000 
0.148550 0.447669 0.000000 
0.036711 0.458997 0.000000 
0.263309 0.450866 0.000000 
0.373471 0.313934 0.000000 
-0.008451 0.152749 0.000000 
0.110017 0.156312 0.000000 
0.106531 0.026477 0.000000 
0.021755 -0.149816 0.000000 
0.236893 0.175433 0.000000 
0.142435 -0.234874 0.000000 
0.155855 -0.147339 0.000000 
0.105423 -0.181880 0.000000 
0.258502 -0.069290 0.000000 
0.203586 -0.105836 0.000000 
0.240007 -0.140444 0.000000 
0.174163 -0.009068 0.000000 
0.184860 -0.059892 0.000000 
0.238571 0.013164 0.000000 
0.500000 -0.055148 0.000000 
0.440198 -0.055328 0.000000 
0.441034 -0.100000 0.000000 
0.435991 0.038150 0.000000 
0.438161 -0.009271 0.000000 
0.500000 0.039136 0.000000 
0.326031 -0.100015 0.000000 
0.380495 -0.056184 0.000000 
0.320581 -0.058761 0.000000 
0.435090 0.253346 0.000000 
0.434098 0.194413 0.000000 
0.500000 0.254430 0.000000 
0.301547 0.075615 0.000000 
0.367396 0.135175 0.000000 
0.300701 0.127850 0.000000 
0.500000 0.140705 0.000000 
0.433830 0.139321 0.000000 
0.434451 0.087453 0.000000 
0.311910 -0.017154 0.000000 
0.371250 0.034772 0.000000 
0.305248 0.027333 0.000000 
0.558966 -0.100000 0.000000 
0.559802 -0.055328 0.000000 
0.679419 -0.058761 0.000000 
0.619505 -0.056184 0.000000 
0.673969 -0.100015 0.000000 
0.561839 -0.009271 0.000000 
0.564009 0.038150 0.000000 
0.894577 -0.181880 0.000000 
0.844145 -0.147339 0.000000 
0.857565 -0.234874 0.000000 
0.761429 0.013164 0.000000 
0.815140 -0.059892 0.000000 
0.825837 -0.009068 0.000000 
0.759993 -0.140444 0.000000 
0.796414 -0.105836 0.000000 
0.741498 -0.069290 0.000000 
0.565902 0.194413 0.000000 
0.564910 0.253346 0.000000 
0.565549 0.087453 0.000000 
0.566170 0.139321 0.000000 
0.699299 0.127850 0.000000 
0.632604 0.135175 0.000000 
0.698453 0.075615 0.000000 
0.688090 -0.017154 0.000000 
0.694752 0.027333 0.000000 
0.628750 0.034772 0.000000 
0.946042 -0.214406 0.000000 
0.924691 -0.122614 0.000000 
0.953632 0.009747 0.000000 
0.944216 -0.058145 0.000000 
1.000505 -0.077270 0.000000 
0.886254 -0.034641 0.000000 
0.830781 0.045603 0.000000 
0.931150 0.297114 0.000000 
0.941953 0.223281 0.000000 
0.999420 0.228825 0.000000 
0.821024 0.230582 0.000000 
0.882424 0.224901 0.000000 
0.812788 0.299265 0.000000 
1.013272 0.076171 0.000000 
0.950393 0.150874 0.000000 
0.954939 0.079656 0.000000 
0.629669 0.250004 0.000000 
0.563351 0.316714 0.000000 
0.765754 0.117156 0.000000 
0.697696 0.184128 0.000000 
0.689349 0.309560 0.000000 
0.694179 0.244616 0.000000 
0.758117 0.237768 0.000000 
0.894155 0.090178 0.000000 
0.827418 0.165483 0.000000 
0.830996 0.103827 0.000000 
0.975694 0.381295 0.000000 
0.919462 0.372699 0.000000 
0.896911 0.531286 0.000000 
0.907705 0.450558 0.000000 
0.951842 0.538504 0.000000 
0.862093 0.370250 0.000000 
0.803593 0.371730 0.000000 
0.900974 0.898268 0.000000 
0.885804 0.797752 0.000000 
0.948368 0.886035 0.000000 
0.780311 0.615530 0.000000 
0.831041 0.705122 0.000000 
0.778022 0.706718 0.000000 
0.936886 0.704758 0.000000 
0.883630 0.703974 0.000000 
0.888311 0.615505 0.000000 
0.622814 0.382746 0.000000 
0.561471 0.385027 0.000000 
0.744086 0.375225 0.000000 
0.683757 0.379249 0.000000 
0.673398 0.534014 0.000000 
0.678216 0.453989 0.000000 
0.730191 0.531516 0.000000 
0.841812 0.528909 0.000000 
0.786303 0.529469 0.000000 
0.794452 0.448330 0.000000 
0.937500 1.000000 0.000000 
0.848299 0.901002 0.000000 
0.735516 0.901676 0.000000 
0.792659 0.901536 0.000000 
0.812500 1.000000 0.000000 
0.781456 0.802641 0.000000 
0.724053 0.708313 0.000000 
0.500000 0.902127 0.000000 
0.559439 0.901960 0.000000 
0.562500 1.000000 0.000000 
0.556768 0.711799 0.000000 
0.557511 0.805423 0.000000 
0.500000 0.712219 0.000000 
0.687500 1.000000 0.000000 
0.618642 0.901858 0.000000 
0.677410 0.901765 0.000000 
0.559664 0.458669 0.000000 
0.500000 0.385739 0.000000 
0.670063 0.619372 0.000000 
0.615981 0.536254 0.000000 
0.500000 0.538385 0.000000 
0.558104 0.537790 0.000000 
0.557049 0.622308 0.000000 
0.671298 0.804381 0.000000 
0.613226 0.710965 0.000000 
0.669071 0.709769 0.000000 
0.437500 1.000000 0.000000 
0.440561 0.901960 0.000000 
0.322590 0.901765 0.000000 
0.381358 0.901858 0.000000 
0.312500 1.000000 0.000000 
0.442489 0.805423 0.000000 
0.443232 0.711799 0.000000 
0.099026 0.898268 0.000000 
0.151701 0.901002 0.000000 
0.062500 1.000000 0.000000 
0.275947 0.708313 0.000000 
0.218544 0.802641 0.000000 
0.221978 0.706718 0.000000 
0.187500 1.000000 0.000000 
0.207341 0.901536 0.000000 
0.264484 0.901676 0.000000 
0.440336 0.458669 0.000000 
0.438529 0.385027 0.000000 
0.442951 0.622308 0.000000 
0.441896 0.537790 0.000000 
0.326602 0.534014 0.000000 
0.384019 0.536254 0.000000 
0.329937 0.619372 0.000000 
0.328702 0.804381 0.000000 
0.330929 0.709769 0.000000 
0.386774 0.710965 0.000000 
0.051632 0.886035 0.000000 
0.114196 0.797752 0.000000 
0.111689 0.615505 0.000000 
0.116370 0.703974 0.000000 
0.063114 0.704758 0.000000 
0.168959 0.705122 0.000000 
0.219689 0.615530 0.000000 
0.068850 0.297114 0.000000 
0.080538 0.372699 0.000000 
0.024306 0.381295 0.000000 
0.196407 0.371730 0.000000 
0.137907 0.370250 0.000000 
0.187212 0.299265 0.000000 
0.048158 0.538504 0.000000 
0.092295 0.450558 0.000000 
0.103089 0.531286 0.000000 
0.377186 0.382746 0.000000 
0.436649 0.316714 0.000000 
0.269809 0.531516 0.000000 
0.321784 0.453989 0.000000 
0.310651 0.309560 0.000000 
0.316243 0.379249 0.000000 
0.255914 0.375225 0.000000 
0.158188 0.528909 0.000000 
0.205548 0.448330 0.000000 
0.213697 0.529469 0.000000 
0.000580 0.228825 0.000000 
0.058047 0.223281 0.000000 
0.045061 0.079656 0.000000 
0.049607 0.150874 0.000000 
-0.013272 0.076171 0.000000 
0.117576 0.224901 0.000000 
0.178976 0.230582 0.000000 
0.075309 -0.122614 0.000000 
0.053958 -0.214406 0.000000 
0.169219 0.045603 0.000000 
0.113746 -0.034641 0.000000 
-0.000505 -0.077270 0.000000 
0.055784 -0.058145 0.000000 
0.046368 0.009747 0.000000 
0.370331 0.250004 0.000000 
0.241883 0.237768 0.000000 
0.305821 0.244616 0.000000 
0.302304 0.184128 0.000000 
0.234246 0.117156 0.000000 
0.105845 0.090178 0.000000 
0.169004 0.103827 0.000000 
0.172582 0.165483 0.000000 
0.115824 -0.252230 0.000000 
0.123591 -0.209127 0.000000 
0.097602 -0.225843 0.000000 
0.174091 -0.172321 0.000000 
0.149314 -0.191645 0.000000 
0.169384 -0.216059 0.000000 
0.115261 -0.137401 0.000000 
0.130994 -0.165313 0.000000 
0.141074 -0.120676 0.000000 
0.266246 -0.085036 0.000000 
0.238699 -0.100369 0.000000 
0.252193 -0.108566 0.000000 
0.220915 -0.065492 0.000000 
0.228720 -0.084685 0.000000 
0.251906 -0.051398 0.000000 
0.220028 -0.169784 0.000000 
0.218268 -0.125560 0.000000 
0.197208 -0.150373 0.000000 
0.203203 0.028292 0.000000 
0.205861 0.002904 0.000000 
0.236127 0.037486 0.000000 
0.156694 -0.076566 0.000000 
0.178709 -0.034992 0.000000 
0.149091 -0.049621 0.000000 
0.241994 -0.009885 0.000000 
0.209652 -0.021308 0.000000 
0.214636 -0.044193 0.000000 
0.179886 -0.127434 0.000000 
0.192933 -0.083626 0.000000 
0.166738 -0.102594 0.000000 
0.500000 -0.077805 0.000000 
0.470383 -0.077800 0.000000 
0.470472 -0.100000 0.000000 
0.469645 -0.032172 0.000000 
0.470090 -0.055169 0.000000 
0.500000 -0.032103 0.000000 
0.411744 -0.100000 0.000000 
0.440827 -0.077867 0.000000 
0.411383 -0.078005 0.000000 
0.467603 0.063380 0.000000 
0.468044 0.038884 0.000000 
0.500000 0.063682 0.000000 
0.407073 -0.010084 0.000000 
0.437033 0.014244 0.000000 
0.405329 0.013165 0.000000 
0.500000 0.015024 0.000000 
0.468561 0.014832 0.000000 
0.469114 -0.008840 0.000000 
0.299291 -0.100000 0.000000 
0.324325 -0.079314 0.000000 
0.295786 -0.080673 0.000000 
0.382111 -0.078237 0.000000 
0.353071 -0.078621 0.000000 
0.354059 -0.100000 0.000000 
0.347421 -0.035492 0.000000 
0.350627 -0.057100 0.000000 
0.378242 -0.033931 0.000000 
0.439262 -0.032454 0.000000 
0.408816 -0.033001 0.000000 
0.410335 -0.055643 0.000000 
[...]
POINT_DATA 1089

SCALARS u_h float 2
LOOKUP_TABLE default
0.090051 -0.269813 
-0.090051 -0.269813 
0.000000 0.000000 
0.000000 0.000000 
0.000000 -0.100000 
-0.012124 -0.195058 
0.000000 0.000000 
0.012124 -0.195058 
0.000000 -0.182728 
0.025136 -0.100001 
0.000000 -0.161264 
-0.015374 -0.187030 
-0.025136 -0.100001 
0.015374 -0.187030 
0.011535 -0.250911 
0.001545 -0.195706 
-0.057467 -0.129731 
-0.024424 -0.132631 
0.000000 0.000000 
0.000000 -0.127179 
0.000000 0.000000 
0.024424 -0.132631 
0.057467 -0.129731 
-0.001545 -0.195706 
-0.011535 -0.250911 
0.070726 -0.194680 
-0.003575 -0.156489 
0.004378 -0.217860 
0.000000 -0.133712 
0.000754 -0.136437 
0.007702 -0.100000 
-0.006831 -0.184442 
-0.006636 -0.166588 
0.000000 -0.179274 
-0.007702 -0.100000 
-0.000754 -0.136437 
-0.004378 -0.217860 
0.003575 -0.156489 
-0.070726 -0.194680 
0.006636 -0.166588 
0.006831 -0.184442 
-0.021755 -0.274816 
0.018469 -0.223523 
-0.002255 -0.203866 
0.014983 -0.218688 
0.008451 -0.222251 
0.013107 -0.199567 
0.001529 -0.186066 
-0.036711 -0.166003 
-0.023550 -0.177331 
-0.040595 -0.073989 
-0.040577 -0.135465 
-0.062728 -0.082338 
-0.013309 -0.174134 
-0.005855 -0.168215 
0.000000 0.000000 
-0.023019 -0.071372 
0.000000 -0.069269 
-0.010290 -0.070019 
0.000000 0.000000 
-0.011175 -0.128890 
0.000000 -0.165659 
0.000000 0.000000 
0.010290 -0.070019 
0.040595 -0.073989 
0.023019 -0.071372 
0.000000 0.000000 
0.011175 -0.128890 
0.005855 -0.168215 
0.062728 -0.082338 
0.040577 -0.135465 
0.002255 -0.203866 
0.023550 -0.177331 
0.036711 -0.166003 
0.013309 -0.174134 
-0.001529 -0.186066 
-0.008451 -0.222251 
-0.014983 -0.218688 
-0.018469 -0.223523 
0.021755 -0.274816 
-0.013107 -0.199567 
0.079935 -0.234874 
0.030855 -0.209839 
0.042923 -0.244380 
0.008502 -0.131790 
0.016086 -0.168336 
0.052507 -0.140444 
-0.013337 -0.196568 
-0.002640 -0.184892 
-0.011429 -0.174336 
0.000000 -0.117648 
0.002698 -0.117828 
0.003534 -0.100000 
-0.001509 -0.149350 
0.000661 -0.134271 
0.000000 -0.148364 
0.013531 -0.100015 
0.005495 -0.118684 
0.008081 -0.121261 
-0.002410 -0.184154 
-0.003402 -0.180587 
0.000000 -0.183070 
-0.010953 -0.174385 
-0.007604 -0.177325 
-0.011799 -0.184650 
0.000000 -0.171795 
-0.003670 -0.173179 
-0.003049 -0.162547 
-0.000590 -0.142154 
-0.003750 -0.152728 
-0.007252 -0.160167 
-0.003534 -0.100000 
-0.002698 -0.117828 
-0.008081 -0.121261 
-0.005495 -0.118684 
-0.013531 -0.100015 
-0.000661 -0.134271 
0.001509 -0.149350 
-0.042923 -0.244380 
-0.030855 -0.209839 
-0.079935 -0.234874 
0.011429 -0.174336 
0.002640 -0.184892 
0.013337 -0.196568 
-0.052507 -0.140444 
-0.016086 -0.168336 
-0.008502 -0.131790 
0.003402 -0.180587 
0.002410 -0.184154 
0.003049 -0.162547 
0.003670 -0.173179 
0.011799 -0.184650 
0.007604 -0.177325 
0.010953 -0.174385 
0.000590 -0.142154 
0.007252 -0.160167 
0.003750 -0.152728 
-0.053958 -0.276906 
-0.012809 -0.247614 
0.016132 -0.240253 
0.006716 -0.245645 
0.000505 -0.264770 
0.011254 -0.222141 
0.018281 -0.204397 
-0.006350 -0.202886 
0.004453 -0.214219 
-0.000580 -0.208675 
0.008524 -0.206918 
0.007424 -0.212599 
0.000288 -0.200735 
0.013272 -0.236329 
0.012893 -0.224126 
0.017439 -0.232844 
0.004669 -0.187496 
0.000851 -0.183286 
0.015754 -0.195344 
0.010196 -0.190872 
0.001849 -0.190440 
0.006679 -0.192884 
0.008117 -0.199732 
0.019155 -0.222322 
0.014918 -0.209517 
0.018496 -0.208673 
-0.024306 -0.181205 
-0.018038 -0.189801 
-0.040589 -0.156214 
-0.029795 -0.174442 
-0.048158 -0.148996 
-0.012907 -0.192250 
-0.008907 -0.190770 
-0.036526 -0.039232 
-0.051696 -0.077248 
-0.051632 -0.051465 
-0.032189 -0.134470 
-0.043959 -0.107378 
-0.034478 -0.105782 
-0.063114 -0.107742 
-0.053870 -0.108526 
-0.049189 -0.134495 
-0.002186 -0.179754 
-0.001029 -0.177473 
-0.005914 -0.187275 
-0.003743 -0.183251 
-0.014102 -0.153486 
-0.009284 -0.171011 
-0.019809 -0.155984 
-0.033188 -0.158591 
-0.026197 -0.158031 
-0.018048 -0.176670 
0.000000 0.000000 
-0.026701 -0.036498 
-0.014484 -0.035824 
-0.019841 -0.035964 
0.000000 0.000000 
-0.031044 -0.072359 
-0.025947 -0.104187 
0.000000 -0.035373 
-0.003061 -0.035540 
0.000000 0.000000 
-0.005732 -0.100701 
-0.004989 -0.069577 
0.000000 -0.100281 
0.000000 0.000000 
-0.006358 -0.035642 
-0.010090 -0.035735 
-0.002836 -0.166331 
0.000000 -0.176761 
-0.017437 -0.130628 
-0.009019 -0.151246 
0.000000 -0.149115 
-0.004396 -0.149710 
-0.005451 -0.127692 
-0.016202 -0.070619 
-0.011774 -0.101535 
-0.018429 -0.102731 
0.000000 0.000000 
0.003061 -0.035540 
0.010090 -0.035735 
0.006358 -0.035642 
0.000000 0.000000 
0.004989 -0.069577 
0.005732 -0.100701 
0.036526 -0.039232 
0.026701 -0.036498 
0.000000 0.000000 
0.025947 -0.104187 
0.031044 -0.072359 
0.034478 -0.105782 
0.000000 0.000000 
0.019841 -0.035964 
0.014484 -0.035824 
0.002836 -0.166331 
0.001029 -0.177473 
0.005451 -0.127692 
0.004396 -0.149710 
0.014102 -0.153486 
0.009019 -0.151246 
0.017437 -0.130628 
0.016202 -0.070619 
0.018429 -0.102731 
0.011774 -0.101535 
0.051632 -0.051465 
0.051696 -0.077248 
0.049189 -0.134495 
0.053870 -0.108526 
0.063114 -0.107742 
0.043959 -0.107378 
0.032189 -0.134470 
0.006350 -0.202886 
0.018038 -0.189801 
0.024306 -0.181205 
0.008907 -0.190770 
0.012907 -0.192250 
-0.000288 -0.200735 
0.048158 -0.148996 
0.029795 -0.174442 
0.040589 -0.156214 
0.002186 -0.179754 
-0.000851 -0.183286 
0.019809 -0.155984 
0.009284 -0.171011 
-0.001849 -0.190440 
0.003743 -0.183251 
0.005914 -0.187275 
0.033188 -0.158591 
0.018048 -0.176670 
0.026197 -0.158031 
0.000580 -0.208675 
-0.004453 -0.214219 
-0.017439 -0.232844 
-0.012893 -0.224126 
-0.013272 -0.236329 
-0.007424 -0.212599 
-0.008524 -0.206918 
0.012809 -0.247614 
0.053958 -0.276906 
-0.018281 -0.204397 
-0.011254 -0.222141 
-0.000505 -0.264770 
-0.006716 -0.245645 
-0.016132 -0.240253 
-0.004669 -0.187496 
-0.008117 -0.199732 
-0.006679 -0.192884 
-0.010196 -0.190872 
-0.015754 -0.195344 
-0.019155 -0.222322 
-0.018496 -0.208673 
-0.014918 -0.209517 
0.084574 -0.252230 
0.061091 -0.240377 
0.066352 -0.257093 
0.049091 -0.203571 
0.055564 -0.222895 
0.075634 -0.216059 
0.021511 -0.231151 
0.037244 -0.227813 
0.016074 -0.214426 
0.016246 -0.116286 
0.019949 -0.131619 
0.033443 -0.108566 
0.002165 -0.159242 
0.009970 -0.147185 
0.001906 -0.145148 
0.063778 -0.169784 
0.030768 -0.156810 
0.040958 -0.181623 
-0.015547 -0.190458 
-0.012889 -0.184596 
-0.013873 -0.181264 
0.000444 -0.201566 
-0.008791 -0.191242 
-0.007159 -0.205871 
-0.008006 -0.166135 
-0.009098 -0.177558 
-0.004114 -0.169193 
0.023636 -0.189934 
0.005433 -0.177376 
0.010488 -0.196344 
0.000000 -0.109055 
0.001633 -0.109050 
0.001722 -0.100000 
0.000895 -0.125922 
0.001340 -0.117669 
0.000000 -0.125853 
0.005494 -0.100000 
0.003327 -0.109117 
0.005133 -0.109255 
-0.001147 -0.155370 
-0.000706 -0.148616 
0.000000 -0.155068 
0.000823 -0.135084 
-0.000467 -0.142006 
-0.000921 -0.143085 
0.000000 -0.141226 
-0.000189 -0.141418 
0.000364 -0.133840 
0.018041 -0.100000 
0.011825 -0.110564 
0.014536 -0.111923 
0.007111 -0.109487 
0.009321 -0.109871 
0.010309 -0.100000 
0.003671 -0.129242 
0.006877 -0.119600 
0.003242 -0.127681 
0.001762 -0.126204 
0.002566 -0.126751 
0.004085 -0.118143 
-0.000889 -0.183590 
-0.001228 -0.183330 
0.000000 -0.183431 
-0.005113 -0.182191 
-0.002984 -0.182888 
-0.004452 -0.184397 
0.000000 -0.181667 
-0.001502 -0.181981 
-0.001700 -0.179620 
-0.013234 -0.180060 
-0.011712 -0.180016 
-0.013924 -0.185347 
-0.007355 -0.172380 
-0.009491 -0.175716 
-0.008717 -0.169940 
-0.009351 -0.184454 
-0.009687 -0.180566 
-0.007415 -0.181364 
0.000000 -0.166868 
-0.001710 -0.167229 
-0.001486 -0.161602 
-0.001809 -0.176321 
-0.001816 -0.172163 
0.000000 -0.175958 
-0.004751 -0.164171 
-0.003478 -0.168226 
-0.005350 -0.169916 
-0.005506 -0.178997 
-0.005595 -0.174882 
-0.003639 -0.177326 
0.008717 -0.124596 
0.000327 -0.138625 
0.003655 -0.131941 
0.002998 -0.136734 
-0.002009 -0.147790 
-0.002386 -0.156226 
-0.005431 -0.160011 
-0.003792 -0.157726 
-0.002496 -0.150665 
-0.001648 -0.144830 
-0.011735 -0.173705 
-0.006144 -0.157622 
-0.009382 -0.166243 
-0.009476 -0.167766 
-0.007335 -0.163280 
-0.002748 -0.147529 
-0.005335 -0.155785 
-0.004275 -0.151610 
-0.001722 -0.100000 
-0.001633 -0.109050 
-0.005133 -0.109255 
-0.003327 -0.109117 
-0.005494 -0.100000 
-0.001340 -0.117669 
-0.000895 -0.125922 
-0.014536 -0.111923 
-0.011825 -0.110564 
-0.018041 -0.100000 
-0.003242 -0.127681 
-0.006877 -0.119600 
-0.003671 -0.129242 
-0.010309 -0.100000 
-0.009321 -0.109871 
-0.007111 -0.109487 
0.000706 -0.148616 
0.001147 -0.155370 
-0.000364 -0.133840 
0.000189 -0.141418 
0.000921 -0.143085 
0.000467 -0.142006 
-0.000823 -0.135084 
-0.004085 -0.118143 
-0.002566 -0.126751 
-0.001762 -0.126204 
-0.066352 -0.257093 
-0.061091 -0.240377 
-0.084574 -0.252230 
-0.016074 -0.214426 
-0.037244 -0.227813 
-0.021511 -0.231151 
-0.075634 -0.216059 
-0.055564 -0.222895 
-0.049091 -0.203571 
0.013873 -0.181264 
0.012889 -0.184596 
0.015547 -0.190458 
0.004114 -0.169193 
0.009098 -0.177558 
0.008006 -0.166135 
0.007159 -0.205871 
0.008791 -0.191242 
-0.000444 -0.201566 
-0.033443 -0.108566 
-0.019949 -0.131619 
-0.016246 -0.116286 
-0.040958 -0.181623 
-0.030768 -0.156810 
-0.063778 -0.169784 
-0.001906 -0.145148 
-0.009970 -0.147185 
-0.002165 -0.159242 
-0.010488 -0.196344 
-0.005433 -0.177376 
-0.023636 -0.189934 
0.001228 -0.183330 
0.000889 -0.183590 
0.001700 -0.179620 
0.001502 -0.181981 
0.004452 -0.184397 
0.002984 -0.182888 
0.005113 -0.182191 
0.001486 -0.161602 
0.001710 -0.167229 
0.005350 -0.169916 
0.003478 -0.168226 
0.004751 -0.164171 
0.001816 -0.172163 
0.001809 -0.176321 
0.013924 -0.185347 
0.011712 -0.180016 
0.013234 -0.180060 
0.007415 -0.181364 
0.009687 -0.180566 
0.009351 -0.184454 
0.008717 -0.169940 
0.009491 -0.175716 
0.007355 -0.172380 
0.003639 -0.177326 
0.005595 -0.174882 
0.005506 -0.178997 
-0.008717 -0.124596 
0.002009 -0.147790 
-0.002998 -0.136734 
-0.003655 -0.131941 
-0.000327 -0.138625 
0.011735 -0.173705 
0.007335 -0.163280 
0.009476 -0.167766 
0.009382 -0.166243 
0.006144 -0.157622 
0.002386 -0.156226 
0.001648 -0.144830 
0.002496 -0.150665 
0.003792 -0.157726 
0.005431 -0.160011 
0.004275 -0.151610 
0.005335 -0.155785 
0.002748 -0.147529 
-0.072010 -0.274325 
-0.048298 -0.260394 
-0.017095 -0.261346 
-0.031605 -0.261807 
-0.036891 -0.277068 
-0.026628 -0.246753 
-0.008585 -0.233214 
0.014129 -0.246577 
0.010237 -0.251520 
0.007345 -0.258078 
0.014440 -0.233710 
0.012579 -0.243274 
0.017584 -0.232423 
-0.009192 -0.270533 
0.003859 -0.255848 
-0.005225 -0.259244 
0.016457 -0.200940 
0.017130 -0.195239 
0.004623 -0.220393 
0.012723 -0.209359 
0.018724 -0.214010 
0.016510 -0.212066 
0.015789 -0.223170 
-0.001696 -0.247168 
0.009193 -0.234346 
0.001593 -0.234224 
-0.009027 -0.200027 
-0.003188 -0.206409 
-0.006118 -0.201915 
0.001250 -0.209353 
-0.000734 -0.208755 
-0.004096 -0.204048 
0.004340 -0.215428 
0.002199 -0.212552 
0.006981 -0.218515 
0.004929 -0.201364 
0.004577 -0.204288 
0.001057 -0.198341 
0.011544 -0.215958 
0.008189 -0.210091 
0.012010 -0.212609 
-0.000803 -0.202664 
0.003874 -0.206787 
0.002777 -0.208581 
0.013393 -0.243595 
0.015670 -0.235736 
0.015833 -0.241263 
0.010972 -0.224349 
0.013954 -0.230087 
0.011520 -0.229208 
0.016969 -0.225374 
0.015766 -0.228630 
0.014224 -0.222084 
0.006189 -0.214100 
0.010569 -0.218333 
0.009055 -0.219330 
0.001695 -0.184307 
0.000438 -0.182660 
0.005899 -0.186504 
0.003558 -0.185548 
0.001221 -0.184443 
0.002469 -0.185582 
0.003194 -0.187366 
0.015981 -0.191708 
0.013860 -0.189590 
0.011744 -0.194978 
0.013109 -0.192801 
0.014769 -0.197960 
0.011272 -0.188274 
0.008538 -0.187343 
0.001794 -0.193020 
0.004783 -0.195160 
0.004980 -0.198255 
0.003845 -0.189607 
0.004389 -0.192236 
0.001748 -0.188090 
0.010858 -0.200162 
0.007496 -0.196180 
0.009845 -0.196111 
0.007307 -0.189192 
0.008640 -0.192418 
0.005721 -0.189961 
0.017655 -0.236740 
0.017580 -0.220806 
0.018598 -0.228207 
0.018884 -0.230569 
0.019519 -0.223232 
0.008481 -0.203380 
0.014194 -0.204487 
0.011605 -0.204414 
0.012012 -0.208653 
0.015201 -0.214367 
0.017703 -0.199002 
0.019537 -0.215204 
0.018922 -0.206969 
0.017343 -0.201784 
0.016141 -0.203610 
0.017619 -0.215381 
0.017120 -0.209521 
0.019116 -0.215660 
-0.018094 -0.188269 
-0.014949 -0.193394 
-0.027156 -0.178989 
-0.021036 -0.186412 
-0.030560 -0.173800 
-0.012126 -0.196589 
-0.009651 -0.198166 
-0.049242 -0.143442 
-0.044366 -0.153346 
-0.053163 -0.139674 
-0.026583 -0.176449 
-0.035382 -0.165724 
-0.031911 -0.167622 
-0.042624 -0.157754 
-0.038959 -0.162525 
-0.033175 -0.171050 
-0.004262 -0.196246 
-0.003075 -0.194291 
-0.007525 -0.198441 
-0.005736 -0.197710 
-0.015799 -0.185098 
-0.010771 -0.191872 
-0.018288 -0.185235 
-0.023970 -0.182443 
-0.021012 -0.184435 
-0.015327 -0.191651 
-0.026612 -0.020953 
-0.043761 -0.043759 
-0.038794 -0.031477 
-0.045996 -0.075350 
-0.046369 -0.059169 
-0.040413 -0.056839 
-0.059002 -0.067864 
-0.052785 -0.062847 
-0.057418 -0.079666 
-0.028213 -0.133606 
-0.033913 -0.120764 
-0.029676 -0.119913 
-0.042910 -0.122075 
-0.038340 -0.121513 
-0.036324 -0.135130 
-0.038331 -0.090399 
-0.039118 -0.106594 
-0.043344 -0.091338 
-0.060868 -0.119110 
-0.056637 -0.121135 
-0.053405 -0.132734 
-0.059099 -0.094782 
-0.058660 -0.108534 
-0.063882 -0.095535 
-0.044888 -0.135320 
-0.052161 -0.122098 
-0.047549 -0.122329 
-0.048583 -0.092431 
-0.048917 -0.108066 
-0.053907 -0.093635 
-0.000091 -0.181026 
-0.000065 -0.180449 
-0.000306 -0.183543 
-0.000162 -0.182076 
-0.002966 -0.173459 
-0.001572 -0.178430 
-0.004054 -0.174655 
-0.002144 -0.192059 
-0.001435 -0.189732 
-0.008028 -0.179549 
-0.004738 -0.185254 
-0.009669 -0.181313 
-0.000913 -0.187459 
-0.000547 -0.185363 
-0.019125 -0.143836 
-0.016871 -0.154740 
-0.022422 -0.144961 
-0.007505 -0.169528 
-0.011829 -0.162918 
-0.009613 -0.161592 
-0.016729 -0.165702 
-0.014196 -0.164319 
-0.011214 -0.172581 
-0.002901 -0.181386 
-0.006561 -0.177780 
-0.005244 -0.176119 
-0.045254 -0.145833 
-0.037257 -0.147613 
-0.041243 -0.147139 
-0.036852 -0.157878 
-0.028564 -0.168473 
-0.025900 -0.146010 
-0.019434 -0.166955 
-0.022920 -0.157120 
-0.029548 -0.146886 
-0.033344 -0.147469 
-0.007295 -0.189171 
-0.020704 -0.177331 
-0.013539 -0.184261 
-0.011500 -0.182938 
-0.015585 -0.175547 
-0.029627 -0.158577 
-0.022313 -0.167944 
-0.025359 -0.168511 
0.000000 0.000000 
-0.021127 -0.018526 
-0.014978 -0.017659 
-0.017620 -0.017847 
0.000000 0.000000 
-0.031066 -0.037317 
-0.035191 -0.055538 
-0.007962 -0.017774 
-0.009386 -0.017725 
0.000000 0.000000 
-0.022835 -0.054040 
-0.017017 -0.035878 
-0.019501 -0.053799 
0.000000 0.000000 
-0.010990 -0.017673 
-0.012824 -0.017637 
-0.030083 -0.104974 
-0.025656 -0.119019 
-0.035611 -0.073044 
-0.033616 -0.089594 
-0.025123 -0.088247 
-0.029216 -0.088886 
-0.026861 -0.071822 
-0.023029 -0.036133 
-0.026511 -0.054351 
-0.030598 -0.054802 
0.000000 -0.017789 
-0.000812 -0.017847 
0.000000 0.000000 
-0.002070 -0.052720 
-0.001513 -0.035474 
0.000000 -0.052594 
0.000000 0.000000 
-0.001654 -0.017871 
-0.002532 -0.017879 
-0.002836 -0.114470 
-0.002848 -0.100439 
0.000000 -0.114307 
-0.007581 -0.069778 
-0.005502 -0.085587 
-0.008352 -0.085871 
0.000000 -0.085220 
-0.002732 -0.085372 
-0.002475 -0.069411 
0.000000 0.000000 
-0.005516 -0.017845 
-0.006680 -0.017815 
-0.003459 -0.017876 
-0.004448 -0.017866 
0.000000 0.000000 
-0.011062 -0.053243 
-0.008156 -0.035690 
-0.008641 -0.053092 
-0.004177 -0.052836 
-0.006357 -0.052957 
-0.004668 -0.035593 
-0.000519 -0.176914 
0.000000 -0.180351 
-0.004308 -0.167134 
-0.001949 -0.172582 
0.000000 -0.171880 
-0.000971 -0.172051 
-0.001410 -0.165834 
-0.020832 -0.131619 
-0.016006 -0.142715 
-0.010257 -0.140727 
-0.013056 -0.141662 
-0.014224 -0.129705 
-0.011491 -0.152301 
-0.007530 -0.160413 
0.000000 -0.138803 
-0.002488 -0.138973 
-0.002710 -0.127345 
-0.001821 -0.158247 
-0.002185 -0.149287 
0.000000 -0.158072 
-0.008261 -0.128212 
-0.005003 -0.139358 
-0.007582 -0.139949 
-0.005556 -0.159438 
-0.006663 -0.150371 
-0.003662 -0.158707 
-0.012188 -0.035779 
-0.013151 -0.070300 
-0.013655 -0.053410 
-0.016455 -0.053594 
-0.019479 -0.070975 
-0.005705 -0.114776 
-0.011704 -0.115796 
-0.008648 -0.115221 
-0.008694 -0.101068 
-0.011321 -0.086225 
-0.021860 -0.118126 
-0.021316 -0.087661 
-0.022068 -0.103434 
-0.018282 -0.117272 
-0.014905 -0.116487 
-0.014448 -0.086645 
-0.015008 -0.102093 
-0.017769 -0.087126 
0.000000 0.000000 
0.000812 -0.017847 
0.002532 -0.017879 
0.001654 -0.017871 
0.000000 0.000000 
0.001513 -0.035474 
0.002070 -0.052720 
0.006680 -0.017815 
0.005516 -0.017845 
0.000000 0.000000 
0.008641 -0.053092 
0.008156 -0.035690 
0.011062 -0.053243 
0.000000 0.000000 
0.004448 -0.017866 
0.003459 -0.017876 
0.002848 -0.100439 
0.002836 -0.114470 
0.002475 -0.069411 
0.002732 -0.085372 
0.008352 -0.085871 
0.005502 -0.085587 
0.007581 -0.069778 
0.004668 -0.035593 
0.006357 -0.052957 
0.004177 -0.052836 
0.026612 -0.020953 
0.021127 -0.018526 
0.000000 0.000000 
0.035191 -0.055538 
0.031066 -0.037317 
0.040413 -0.056839 
0.000000 0.000000 
0.017620 -0.017847 
0.014978 -0.017659 
0.025656 -0.119019 
0.030083 -0.104974 
0.029676 -0.119913 
0.026861 -0.071822 
0.029216 -0.088886 
0.025123 -0.088247 
0.038331 -0.090399 
0.033616 -0.089594 
0.035611 -0.073044 
0.000000 0.000000 
0.009386 -0.017725 
0.007962 -0.017774 
0.012824 -0.017637 
0.010990 -0.017673 
0.000000 0.000000 
0.019501 -0.053799 
0.017017 -0.035878 
0.022835 -0.054040 
0.030598 -0.054802 
0.026511 -0.054351 
0.023029 -0.036133 
0.000519 -0.176914 
0.000065 -0.180449 
0.001410 -0.165834 
0.000971 -0.172051 
0.002966 -0.173459 
0.001949 -0.172582 
0.004308 -0.167134 
0.002710 -0.127345 
0.002488 -0.138973 
0.007582 -0.139949 
0.005003 -0.139358 
0.008261 -0.128212 
0.002185 -0.149287 
0.001821 -0.158247 
0.019125 -0.143836 
0.016006 -0.142715 
0.020832 -0.131619 
0.007530 -0.160413 
0.011491 -0.152301 
0.009613 -0.161592 
0.014224 -0.129705 
0.013056 -0.141662 
0.010257 -0.140727 
0.003662 -0.158707 
0.006663 -0.150371 
0.005556 -0.159438 
0.012188 -0.035779 
0.019479 -0.070975 
0.016455 -0.053594 
0.013655 -0.053410 
0.013151 -0.070300 
0.021860 -0.118126 
0.014905 -0.116487 
0.018282 -0.117272 
0.022068 -0.103434 
0.021316 -0.087661 
0.005705 -0.114776 
0.011321 -0.086225 
0.008694 -0.101068 
0.008648 -0.115221 
0.011704 -0.115796 
0.017769 -0.087126 
0.015008 -0.102093 
0.014448 -0.086645 
0.038794 -0.031477 
0.043761 -0.043759 
0.057418 -0.079666 
0.052785 -0.062847 
0.059002 -0.067864 
0.046369 -0.059169 
0.045996 -0.075350 
0.053405 -0.132734 
0.056637 -0.121135 
0.060868 -0.119110 
0.047549 -0.122329 
0.052161 -0.122098 
0.044888 -0.135320 
0.063882 -0.095535 
0.058660 -0.108534 
0.059099 -0.094782 
0.033913 -0.120764 
0.028213 -0.133606 
0.043344 -0.091338 
0.039118 -0.106594 
0.036324 -0.135130 
0.038340 -0.121513 
0.042910 -0.122075 
0.053907 -0.093635 
0.048917 -0.108066 
0.048583 -0.092431 
0.009027 -0.200027 
0.014949 -0.193394 
0.018094 -0.188269 
0.009651 -0.198166 
0.012126 -0.196589 
0.004096 -0.204048 
0.030560 -0.173800 
0.021036 -0.186412 
0.027156 -0.178989 
0.003075 -0.194291 
0.004262 -0.196246 
-0.001057 -0.198341 
0.018288 -0.185235 
0.010771 -0.191872 
0.015799 -0.185098 
0.000803 -0.202664 
0.005736 -0.197710 
0.007525 -0.198441 
0.053163 -0.139674 
0.044366 -0.153346 
0.049242 -0.143442 
0.033175 -0.171050 
0.038959 -0.162525 
0.042624 -0.157754 
0.031911 -0.167622 
0.035382 -0.165724 
0.026583 -0.176449 
0.015327 -0.191651 
0.021012 -0.184435 
0.023970 -0.182443 
0.000091 -0.181026 
-0.000438 -0.182660 
0.004054 -0.174655 
0.001572 -0.178430 
-0.001221 -0.184443 
0.000162 -0.182076 
0.000306 -0.183543 
0.022422 -0.144961 
0.016871 -0.154740 
0.011214 -0.172581 
0.014196 -0.164319 
0.016729 -0.165702 
0.011829 -0.162918 
0.007505 -0.169528 
-0.001794 -0.193020 
0.001435 -0.189732 
0.002144 -0.192059 
0.000547 -0.185363 
0.000913 -0.187459 
-0.001748 -0.188090 
0.009669 -0.181313 
0.004738 -0.185254 
0.008028 -0.179549 
0.005244 -0.176119 