# vtk DataFile Version 2.0
Unstructured Grid Example
ASCII
DATASET UNSTRUCTURED_GRID

POINTS 4225 float
0.105726 -0.337214 0.000000 
0.894164 -0.337214 0.000000 
1.000000 1.000000 0.000000 
0.000000 1.000000 0.000000 
0.499989 -0.100000 0.000000 
0.985760 0.275095 0.000000 
0.500000 1.000000 0.000000 
0.014231 0.275112 0.000000 
0.499996 0.306073 0.000000 
0.281241 -0.137803 0.000000 
0.499991 0.080821 0.000000 
0.237166 0.035703 0.000000 
0.718737 -0.137803 0.000000 
0.762815 0.035699 0.000000 
0.997550 -0.056618 0.000000 
0.753306 0.284529 0.000000 
0.937584 0.607152 0.000000 
0.724512 0.606259 0.000000 
0.750000 1.000000 0.000000 
0.499999 0.614396 0.000000 
0.250000 1.000000 0.000000 
0.275486 0.606263 0.000000 
0.062412 0.607160 0.000000 
0.246685 0.284536 0.000000 
0.002422 -0.056584 0.000000 
0.349885 -0.195049 0.000000 
0.254882 -0.063981 0.000000 
0.163621 -0.150631 0.000000 
0.499989 -0.012485 0.000000 
0.377103 -0.020378 0.000000 
0.389243 -0.100000 0.000000 
0.366726 0.176500 0.000000 
0.367781 0.070453 0.000000 
0.499993 0.185198 0.000000 
0.610734 -0.100000 0.000000 
0.622875 -0.020378 0.000000 
0.836347 -0.150636 0.000000 
0.745094 -0.063981 0.000000 
0.650071 -0.195070 0.000000 
0.632200 0.070452 0.000000 
0.633260 0.176497 0.000000 
0.954585 -0.205385 0.000000 
0.883100 -0.016865 0.000000 
0.873419 0.269700 0.000000 
0.888796 0.122133 0.000000 
1.003962 0.110644 0.000000 
0.764267 0.152101 0.000000 
0.627890 0.300094 0.000000 
0.959983 0.438665 0.000000 
0.850782 0.428124 0.000000 
0.830750 0.794424 0.000000 
0.831749 0.601431 0.000000 
0.931519 0.785393 0.000000 
0.737274 0.435027 0.000000 
0.619811 0.444524 0.000000 
0.875000 1.000000 0.000000 
0.725276 0.798151 0.000000 
0.500000 0.801264 0.000000 
0.614139 0.800354 0.000000 
0.625000 1.000000 0.000000 
0.613586 0.611994 0.000000 
0.499998 0.448513 0.000000 
0.375000 1.000000 0.000000 
0.385861 0.800355 0.000000 
0.169248 0.794427 0.000000 
0.274723 0.798153 0.000000 
0.125000 1.000000 0.000000 
0.386412 0.611995 0.000000 
0.380184 0.444526 0.000000 
0.068478 0.785397 0.000000 
0.168248 0.601438 0.000000 
0.126572 0.269712 0.000000 
0.149213 0.428133 0.000000 
0.040011 0.438678 0.000000 
0.262721 0.435033 0.000000 
0.372101 0.300097 0.000000 
-0.003976 0.110668 0.000000 
0.111191 0.122147 0.000000 
0.116879 -0.016851 0.000000 
0.045351 -0.205343 0.000000 
0.235720 0.152108 0.000000 
0.151227 -0.289500 0.000000 
0.220341 -0.216610 0.000000 
0.139074 -0.237911 0.000000 
0.265150 -0.107112 0.000000 
0.245268 -0.148467 0.000000 
0.355764 -0.007594 0.000000 
0.186076 -0.048681 0.000000 
0.204731 -0.103308 0.000000 
0.244080 -0.016433 0.000000 
0.499989 -0.056850 0.000000 
0.442530 -0.057559 0.000000 
0.444156 -0.100000 0.000000 
0.436051 0.030903 0.000000 
0.439146 -0.014105 0.000000 
0.499990 0.033169 0.000000 
0.340564 -0.100000 0.000000 
0.384372 -0.060732 0.000000 
0.323041 -0.073576 0.000000 
0.434271 0.241419 0.000000 
0.433268 0.183002 0.000000 
0.499994 0.243293 0.000000 
0.301750 0.056320 0.000000 
0.366268 0.121468 0.000000 
0.299809 0.109033 0.000000 
0.499992 0.131258 0.000000 
0.433116 0.128827 0.000000 
0.434007 0.078323 0.000000 
0.313957 -0.035959 0.000000 
0.371420 0.023212 0.000000 
0.306637 0.007856 0.000000 
0.555822 -0.100000 0.000000 
0.557447 -0.057559 0.000000 
0.676936 -0.073576 0.000000 
0.615605 -0.060732 0.000000 
0.659413 -0.100000 0.000000 
0.560832 -0.014106 0.000000 
0.563928 0.030903 0.000000 
0.860855 -0.237926 0.000000 
0.779625 -0.216607 0.000000 
0.848658 -0.289500 0.000000 
0.755898 -0.016436 0.000000 
0.795243 -0.103309 0.000000 
0.813901 -0.048685 0.000000 
0.644218 -0.007599 0.000000 
0.754709 -0.148463 0.000000 
0.734826 -0.107109 0.000000 
0.566718 0.183001 0.000000 
0.565718 0.241418 0.000000 
0.565974 0.078323 0.000000 
0.566868 0.128826 0.000000 
0.700175 0.109030 0.000000 
0.633716 0.121466 0.000000 
0.698231 0.056317 0.000000 
0.686020 -0.035959 0.000000 
0.693341 0.007855 0.000000 
0.628560 0.023212 0.000000 
0.930548 -0.269543 0.000000 
0.889347 -0.179887 0.000000 
0.940250 -0.039968 0.000000 
0.920439 -0.112518 0.000000 
0.979613 -0.136121 0.000000 
0.866715 -0.083862 0.000000 
0.824574 0.010041 0.000000 
0.930664 0.268287 0.000000 
0.941004 0.189697 0.000000 
0.996737 0.193288 0.000000 
0.822293 0.204615 0.000000 
0.882772 0.194738 0.000000 
0.814204 0.276030 0.000000 
1.005128 0.026961 0.000000 
0.947673 0.112077 0.000000 
0.948378 0.035353 0.000000 
0.631169 0.235900 0.000000 
0.564093 0.304645 0.000000 
0.765480 0.091949 0.000000 
0.699288 0.165936 0.000000 
0.691078 0.293061 0.000000 
0.696039 0.227184 0.000000 
0.759905 0.216219 0.000000 
0.889629 0.051656 0.000000 
0.827588 0.136629 0.000000 
0.828771 0.071823 0.000000 
0.973132 0.356582 0.000000 
0.918511 0.348214 0.000000 
0.894104 0.514382 0.000000 
0.905891 0.430027 0.000000 
0.947685 0.521987 0.000000 
0.862309 0.347342 0.000000 
0.804557 0.351185 0.000000 
0.896805 0.894417 0.000000 
0.881064 0.790690 0.000000 
0.943138 0.880824 0.000000 
0.778537 0.603317 0.000000 
0.827634 0.695235 0.000000 
0.775581 0.697516 0.000000 
0.931349 0.694725 0.000000 
0.879175 0.693697 0.000000 
0.884569 0.601987 0.000000 
0.623905 0.369509 0.000000 
0.562095 0.373193 0.000000 
0.745415 0.357343 0.000000 
0.685109 0.363916 0.000000 
0.673463 0.521899 0.000000 
0.678964 0.440106 0.000000 
0.729918 0.517926 0.000000 
0.840113 0.512610 0.000000 
0.785447 0.514388 0.000000 
0.794575 0.430486 0.000000 
0.937500 1.000000 0.000000 
0.845517 0.897875 0.000000 
0.734393 0.899123 0.000000 
0.790860 0.898753 0.000000 
0.812500 1.000000 0.000000 
0.778862 0.796614 0.000000 
0.722439 0.699922 0.000000 
0.500000 0.899900 0.000000 
0.559279 0.899798 0.000000 
0.562500 1.000000 0.000000 
0.556551 0.705179 0.000000 
0.557262 0.800995 0.000000 
0.500000 0.705634 0.000000 
0.687500 1.000000 0.000000 
0.618283 0.899629 0.000000 
0.676748 0.899398 0.000000 
0.560057 0.447476 0.000000 
0.499997 0.374455 0.000000 
0.669507 0.609356 0.000000 
0.616170 0.525364 0.000000 
0.499998 0.528522 0.000000 
0.558249 0.527691 0.000000 
0.556975 0.613754 0.000000 
0.670260 0.799386 0.000000 
0.612705 0.703976 0.000000 
0.668097 0.702157 0.000000 
0.437500 1.000000 0.000000 
0.440721 0.899799 0.000000 
0.323252 0.899398 0.000000 
0.381717 0.899630 0.000000 
0.312500 1.000000 0.000000 
0.442738 0.800996 0.000000 
0.443448 0.705179 0.000000 
0.103193 0.894419 0.000000 
0.154482 0.897877 0.000000 
0.062500 1.000000 0.000000 
0.277560 0.699925 0.000000 
0.221137 0.796617 0.000000 
0.224417 0.697520 0.000000 
0.187500 1.000000 0.000000 
0.209139 0.898754 0.000000 
0.265607 0.899124 0.000000 
0.439938 0.447477 0.000000 
0.437899 0.373195 0.000000 
0.443023 0.613755 0.000000 
0.441748 0.527692 0.000000 
0.326534 0.521903 0.000000 
0.383827 0.525366 0.000000 
0.330491 0.609359 0.000000 
0.329740 0.799387 0.000000 
0.331902 0.702159 0.000000 
0.387294 0.703978 0.000000 
0.056860 0.880827 0.000000 
0.118934 0.790694 0.000000 
0.115427 0.601995 0.000000 
0.120822 0.693703 0.000000 
0.068648 0.694731 0.000000 
0.172363 0.695239 0.000000 
0.221460 0.603323 0.000000 
0.069328 0.268302 0.000000 
0.081482 0.348227 0.000000 
0.026860 0.356596 0.000000 
0.195436 0.351194 0.000000 
0.137684 0.347353 0.000000 
0.185788 0.276039 0.000000 
0.052310 0.521997 0.000000 
0.094103 0.430038 0.000000 
0.105891 0.514392 0.000000 
0.376088 0.369512 0.000000 
0.435898 0.304646 0.000000 
0.270079 0.517931 0.000000 
0.321031 0.440110 0.000000 
0.308913 0.293065 0.000000 
0.314884 0.363920 0.000000 
0.254579 0.357350 0.000000 
0.159883 0.512618 0.000000 
0.205420 0.430494 0.000000 
0.214549 0.514394 0.000000 
0.003251 0.193309 0.000000 
0.058986 0.189714 0.000000 
0.051605 0.035374 0.000000 
0.052314 0.112096 0.000000 
-0.005147 0.026990 0.000000 
0.117218 0.194752 0.000000 
0.177697 0.204625 0.000000 
0.110607 -0.179868 0.000000 
0.069358 -0.269515 0.000000 
0.175406 0.010049 0.000000 
0.133259 -0.083851 0.000000 
0.020345 -0.136082 0.000000 
0.079530 -0.112495 0.000000 
0.059727 -0.039945 0.000000 
0.368820 0.235902 0.000000 
0.240085 0.216226 0.000000 
0.303950 0.227188 0.000000 
0.300698 0.165940 0.000000 
0.234504 0.091955 0.000000 
0.110355 0.051671 0.000000 
0.171213 0.071832 0.000000 
0.172399 0.136638 0.000000 
0.129992 -0.312288 0.000000 
0.143291 -0.265261 0.000000 
0.112844 -0.284470 0.000000 
0.205231 -0.277930 0.000000 
0.180888 -0.265319 0.000000 
0.198420 -0.300554 0.000000 
0.161279 -0.199541 0.000000 
0.181848 -0.229790 0.000000 
0.187729 -0.184410 0.000000 
0.269514 -0.122049 0.000000 
0.224242 -0.211694 0.000000 
0.206752 -0.246523 0.000000 
0.237855 -0.104811 0.000000 
0.245599 -0.131611 0.000000 
0.260841 -0.086088 0.000000 
0.340926 -0.257029 0.000000 
0.267944 -0.166362 0.000000 
0.228660 -0.201981 0.000000 
0.209447 -0.004685 0.000000 
0.214393 -0.031686 0.000000 
0.240087 0.009093 0.000000 
0.183837 -0.127860 0.000000 
0.194218 -0.076684 0.000000 
0.169734 -0.097466 0.000000 
0.249080 -0.040803 0.000000 
0.220752 -0.057506 0.000000 
0.228581 -0.081910 0.000000 
0.243552 -0.166501 0.000000 
0.219033 -0.127643 0.000000 
0.204202 -0.156196 0.000000 
0.499989 -0.078615 0.000000 
0.471832 -0.078677 0.000000 
0.472021 -0.100000 0.000000 
0.470506 -0.035071 0.000000 
0.471283 -0.057007 0.000000 
0.499989 -0.034801 0.000000 
0.416495 -0.100000 0.000000 
0.443724 -0.078926 0.000000 
0.415698 -0.079419 0.000000 
0.467477 0.056091 0.000000 
0.468077 0.032612 0.000000 
0.499990 0.056695 0.000000 
0.408341 -0.016446 0.000000 
0.437490 0.008147 0.000000 
0.405908 0.005378 0.000000 
0.499989 0.010143 0.000000 
0.468811 0.009659 0.000000 
0.469644 -0.012871 0.000000 
0.312326 -0.122754 0.000000 
0.329164 -0.088918 0.000000 
0.299557 -0.105412 0.000000 
0.387736 -0.080331 0.000000 
0.359494 -0.082309 0.000000 
0.362992 -0.100000 0.000000 
0.349551 -0.046428 0.000000 
0.354239 -0.064899 0.000000 
0.380615 -0.040882 0.000000 
0.440899 -0.035970 0.000000 
0.411009 -0.037731 0.000000 
0.413637 -0.058661 0.000000 
[...]
POINT_DATA 4225

SCALARS u_h float 2
LOOKUP_TABLE default
0.105726 -0.337214 
-0.105836 -0.337214 
0.000000 0.000000 
0.000000 0.000000 
-0.000011 -0.100000 
-0.014240 -0.224905 
0.000000 0.000000 
0.014231 -0.224888 
-0.000004 -0.193927 
0.031241 -0.137803 
-0.000009 -0.169179 
-0.012834 -0.214297 
-0.031263 -0.137803 
0.012815 -0.214301 
-0.002450 -0.306618 
0.003306 -0.215471 
-0.062416 -0.142848 
-0.025488 -0.143741 
0.000000 0.000000 
-0.000001 -0.135604 
0.000000 0.000000 
0.025486 -0.143737 
0.062412 -0.142840 
-0.003315 -0.215464 
0.002422 -0.306584 
0.224885 -0.195049 
0.004882 -0.188981 
0.038621 -0.275631 
-0.000011 -0.137485 
0.002103 -0.145378 
0.014243 -0.100000 
-0.008274 -0.198500 
-0.007219 -0.179547 
-0.000007 -0.189802 
-0.014266 -0.100000 
-0.002125 -0.145378 
-0.038653 -0.275636 
-0.004906 -0.188981 
-0.224929 -0.195070 
0.007200 -0.179548 
0.008260 -0.198503 
-0.045415 -0.330385 
0.008100 -0.266865 
-0.001581 -0.230300 
0.013796 -0.252867 
0.003962 -0.264356 
0.014267 -0.222899 
0.002890 -0.199906 
-0.040017 -0.186335 
-0.024218 -0.196876 
-0.044250 -0.080576 
-0.043251 -0.148569 
-0.068481 -0.089607 
-0.012726 -0.189973 
-0.005189 -0.180476 
0.000000 0.000000 
-0.024724 -0.076849 
0.000000 -0.073736 
-0.010861 -0.074646 
0.000000 0.000000 
-0.011414 -0.138006 
-0.000002 -0.176487 
0.000000 0.000000 
0.010861 -0.074645 
0.044248 -0.080573 
0.024723 -0.076847 
0.000000 0.000000 
0.011412 -0.138005 
0.005184 -0.180474 
0.068478 -0.089603 
0.043248 -0.148562 
0.001572 -0.230288 
0.024213 -0.196867 
0.040011 -0.186322 
0.012721 -0.189967 
-0.002899 -0.199903 
-0.003976 -0.264332 
-0.013809 -0.252853 
-0.008121 -0.266851 
0.045351 -0.330343 
-0.014280 -0.222892 
0.088727 -0.289500 
0.095341 -0.279110 
0.076574 -0.300411 
0.015150 -0.169612 
0.057768 -0.210967 
0.168264 -0.007594 
-0.001424 -0.236181 
0.017231 -0.228308 
-0.005920 -0.203933 
-0.000011 -0.119350 
0.005030 -0.120059 
0.006656 -0.100000 
-0.001449 -0.156597 
0.001646 -0.139105 
-0.000010 -0.154331 
0.028064 -0.100000 
0.009372 -0.123232 
0.010541 -0.136076 
-0.003229 -0.196081 
-0.004232 -0.191998 
-0.000006 -0.194207 
-0.010750 -0.193680 
-0.008732 -0.191032 
-0.012691 -0.203467 
-0.000008 -0.181242 
-0.004384 -0.183673 
-0.003493 -0.171677 
0.001457 -0.160959 
-0.003580 -0.164288 
-0.005863 -0.179644 
-0.006678 -0.100000 
-0.005053 -0.120059 
-0.010564 -0.136076 
-0.009395 -0.123232 
-0.028087 -0.100000 
-0.001668 -0.139106 
0.001428 -0.156597 
-0.076645 -0.300426 
-0.095375 -0.279107 
-0.088842 -0.289500 
0.005898 -0.203936 
-0.017257 -0.228309 
0.001401 -0.236185 
-0.168282 -0.007599 
-0.057791 -0.210963 
-0.015174 -0.169609 
0.004218 -0.191999 
0.003218 -0.196082 
0.003474 -0.171677 
0.004368 -0.183674 
0.012675 -0.203470 
0.008716 -0.191034 
0.010731 -0.193683 
-0.001480 -0.160959 
0.005841 -0.179645 
0.003560 -0.164288 
-0.069452 -0.332043 
-0.048153 -0.304887 
0.002750 -0.289968 
-0.017061 -0.300018 
-0.020387 -0.323621 
-0.008285 -0.271362 
0.012074 -0.239959 
-0.006836 -0.231713 
0.003504 -0.247803 
-0.003263 -0.244212 
0.009793 -0.232885 
0.007772 -0.242762 
0.001704 -0.223970 
0.005128 -0.285539 
0.010173 -0.262923 
0.010878 -0.277147 
0.006169 -0.201600 
0.001593 -0.195355 
0.015480 -0.220551 
0.011788 -0.209064 
0.003578 -0.206939 
0.008539 -0.210316 
0.009905 -0.221281 
0.014629 -0.260844 
0.015088 -0.238371 
0.016271 -0.240677 
-0.026868 -0.205918 
-0.018989 -0.214286 
-0.043396 -0.173118 
-0.031609 -0.194973 
-0.052315 -0.165513 
-0.012691 -0.215158 
-0.007943 -0.211315 
-0.040695 -0.043083 
-0.056436 -0.084310 
-0.056862 -0.056676 
-0.033963 -0.146683 
-0.047366 -0.117265 
-0.036919 -0.114984 
-0.068651 -0.117775 
-0.058325 -0.118803 
-0.052931 -0.148013 
-0.001095 -0.192991 
-0.000405 -0.189307 
-0.004585 -0.205157 
-0.002391 -0.198584 
-0.014037 -0.165601 
-0.008536 -0.184894 
-0.020082 -0.169574 
-0.034887 -0.174890 
-0.027053 -0.173112 
-0.017925 -0.194514 
0.000000 0.000000 
-0.029483 -0.039625 
-0.015607 -0.038377 
-0.021640 -0.038747 
0.000000 0.000000 
-0.033638 -0.078386 
-0.027561 -0.112578 
0.000000 -0.037600 
-0.003221 -0.037702 
0.000000 0.000000 
-0.005949 -0.107321 
-0.005238 -0.074005 
-0.000000 -0.106866 
0.000000 0.000000 
-0.006717 -0.037871 
-0.010752 -0.038102 
-0.002443 -0.177524 
-0.000003 -0.188045 
-0.017993 -0.140644 
-0.008830 -0.162136 
-0.000002 -0.158978 
-0.004251 -0.159809 
-0.005525 -0.136246 
-0.017240 -0.075614 
-0.012295 -0.108524 
-0.019403 -0.110343 
0.000000 0.000000 
0.003221 -0.037701 
0.010752 -0.038102 
0.006717 -0.037870 
0.000000 0.000000 
0.005238 -0.074004 
0.005948 -0.107321 
0.040693 -0.043081 
0.029482 -0.039623 
0.000000 0.000000 
0.027560 -0.112575 
0.033637 -0.078383 
0.036917 -0.114980 
0.000000 0.000000 
0.021639 -0.038746 
0.015607 -0.038376 
0.002438 -0.177523 
0.000399 -0.189305 
0.005523 -0.136245 
0.004248 -0.159808 
0.014034 -0.165597 
0.008827 -0.162134 
0.017991 -0.140641 
0.017240 -0.075613 
0.019402 -0.110341 
0.012294 -0.108522 
0.056860 -0.056673 
0.056434 -0.084306 
0.052927 -0.148005 
0.058322 -0.118797 
0.068648 -0.117769 
0.047363 -0.117261 
0.033960 -0.146677 
0.006828 -0.231698 
0.018982 -0.214273 
0.026860 -0.205904 
0.007936 -0.211306 
0.012684 -0.215147 
-0.001712 -0.223961 
0.052310 -0.165503 
0.031603 -0.194962 
0.043391 -0.173108 
0.001088 -0.192988 
-0.001602 -0.195354 
0.020079 -0.169569 
0.008531 -0.184890 
-0.003587 -0.206935 
0.002384 -0.198580 
0.004579 -0.205150 
0.034883 -0.174882 
0.017920 -0.194506 
0.027049 -0.173106 
0.003251 -0.244191 
-0.003514 -0.247786 
-0.010895 -0.277126 
-0.010186 -0.262904 
-0.005147 -0.285510 
-0.007782 -0.242748 
-0.009803 -0.232875 
0.048107 -0.304868 
0.069358 -0.332015 
-0.012094 -0.239951 
0.008259 -0.271351 
0.020345 -0.323582 
0.017030 -0.299995 
-0.002773 -0.289945 
-0.006180 -0.201598 
-0.009915 -0.221274 
-0.008550 -0.210312 
-0.011802 -0.209060 
-0.015496 -0.220545 
-0.014645 -0.260829 
-0.016287 -0.240668 
-0.015101 -0.238362 
0.098742 -0.312288 
0.080791 -0.296511 
0.081594 -0.315720 
0.080231 -0.309180 
0.087138 -0.296569 
0.104670 -0.300554 
0.067529 -0.293291 
0.088098 -0.292290 
0.062729 -0.278160 
0.019514 -0.153299 
0.005492 -0.242944 
-0.011998 -0.246523 
0.019105 -0.198561 
0.026849 -0.194111 
0.010841 -0.179838 
0.184676 -0.257029 
0.080444 -0.197612 
0.072410 -0.233231 
-0.009303 -0.223435 
-0.004357 -0.219186 
-0.009913 -0.209657 
0.027587 -0.252860 
0.006718 -0.232934 
0.013484 -0.253716 
-0.000920 -0.197053 
0.002002 -0.213756 
0.009831 -0.206910 
0.087302 -0.229001 
0.031533 -0.221393 
0.047952 -0.249946 
-0.000011 -0.109865 
0.003082 -0.109927 
0.003271 -0.100000 
0.001756 -0.128821 
0.002533 -0.119507 
-0.000011 -0.128551 
0.010245 -0.100000 
0.006224 -0.110176 
0.009448 -0.110669 
-0.001273 -0.162659 
-0.000673 -0.154888 
-0.000010 -0.162055 
0.002091 -0.141446 
-0.000010 -0.148103 
-0.000342 -0.150872 
-0.000011 -0.146107 
0.000061 -0.146591 
0.000894 -0.137871 
0.031076 -0.122754 
0.016664 -0.120168 
0.018307 -0.136662 
0.012736 -0.111581 
0.015744 -0.113559 
0.019242 -0.100000 
0.005801 -0.140178 
0.010489 -0.127399 
0.005615 -0.134632 
0.003399 -0.129720 
0.004759 -0.131481 
0.007387 -0.121161 
-0.001269 -0.195079 
-0.001637 -0.194678 
-0.000005 -0.194672 
-0.006291 -0.194718 
-0.003823 -0.194606 
-0.005659 -0.197130 
-0.000006 -0.192562 
-0.001929 -0.193079 
-0.002129 -0.190358 
-0.012067 -0.203222 
-0.012093 -0.199096 
-0.013619 -0.207875 
-0.008237 -0.185773 
-0.010253 -0.191713 
-0.009073 -0.185786 
-0.010745 -0.200493 
-0.010801 -0.196620 
-0.008732 -0.195288 
-0.000009 -0.175606 
-0.002031 -0.176232 
-0.001726 -0.169804 
-0.002222 -0.186591 
-0.002193 -0.181855 
-0.000007 -0.186002 
-0.005331 -0.174884 
-0.004078 -0.178098 
-0.006156 -0.181255 
-0.006608 -0.191228 
-0.006574 -0.186721 
-0.004428 -0.188330 
0.011728 -0.150949 
0.001732 -0.151630 
0.005739 -0.149483 
0.006954 -0.163155 
0.002237 -0.173607 
-0.002616 -0.164484 
-0.005666 -0.172379 
-0.004085 -0.167661 
-0.002416 -0.159637 
-0.000981 -0.155282 
-0.009628 -0.197510 
-0.002309 -0.182748 
-0.006339 -0.190700 
-0.008660 -0.187207 
-0.007256 -0.178843 
-0.001809 -0.161824 
-0.004820 -0.170869 
-0.002445 -0.170933 
-0.003294 -0.100000 
-0.003104 -0.109927 
-0.009471 -0.110669 
-0.006247 -0.110176 
-0.010267 -0.100000 
-0.002555 -0.119507 
-0.001778 -0.128821 
-0.018330 -0.136662 
-0.016687 -0.120168 
-0.031099 -0.122754 
-0.005638 -0.134633 
-0.010512 -0.127399 
-0.005824 -0.140178 
-0.019265 -0.100000 
-0.015767 -0.113559 
-0.012759 -0.111581 
0.000653 -0.154888 
0.001254 -0.162659 
-0.000916 -0.137871 
-0.000083 -0.146592 
0.000320 -0.150873 
-0.000011 -0.148104 
-0.002113 -0.141446 
-0.007410 -0.121161 
-0.004782 -0.131481 
-0.003421 -0.129720 
-0.081694 -0.315730 
-0.080886 -0.296521 
-0.098850 -0.312288 
-0.062763 -0.278162 
-0.088150 -0.292295 
-0.067572 -0.293299 
-0.104769 -0.300537 
-0.087217 -0.296568 
-0.080289 -0.309159 
0.009892 -0.209660 
0.004335 -0.219189 
0.009282 -0.223440 
-0.009856 -0.206910 
-0.002026 -0.213757 
0.000897 -0.197054 
-0.013511 -0.253721 
-0.006743 -0.232937 
-0.027616 -0.252863 
0.011970 -0.246512 
-0.005519 -0.242935 
-0.019536 -0.153297 
-0.072448 -0.233230 
-0.080468 -0.197613 
-0.184696 -0.257021 
-0.010865 -0.179837 
-0.026873 -0.194106 
-0.019130 -0.198560 
-0.047982 -0.249948 
-0.031559 -0.221393 
-0.087325 -0.229016 
0.001626 -0.194678 
0.001259 -0.195080 
0.002116 -0.190359 
0.001917 -0.193080 
0.005647 -0.197132 
0.003810 -0.194607 
0.006278 -0.194720 
0.001708 -0.169804 
0.002014 -0.176233 
0.006139 -0.181256 
0.004061 -0.178099 
0.005313 -0.174885 
0.002177 -0.181856 
0.002207 -0.186591 
0.013601 -0.207879 
0.012075 -0.199098 
0.012048 -0.203225 
0.008717 -0.195290 
0.010785 -0.196623 
0.010731 -0.200496 
0.009054 -0.185788 
0.010235 -0.191715 
0.008220 -0.185775 
0.004413 -0.188331 
0.006558 -0.186723 
0.006593 -0.191230 
-0.011752 -0.150948 
-0.002260 -0.173607 
-0.006978 -0.163154 
-0.005763 -0.149483 
-0.001755 -0.151630 
0.009608 -0.197512 
0.007236 -0.178845 
0.008640 -0.187209 
0.006318 -0.190701 
0.002287 -0.182748 
0.002597 -0.164484 
0.000959 -0.155283 
0.002396 -0.159638 
0.004066 -0.167661 
0.005646 -0.172380 
0.002423 -0.170934 
0.004799 -0.170870 
0.001787 -0.161824 
-0.084246 -0.335529 
-0.071638 -0.316357 
-0.047686 -0.317381 
-0.061084 -0.317177 
-0.057713 -0.330648 
-0.064589 -0.304021 
-0.045928 -0.292236 
0.000176 -0.299213 
-0.008118 -0.306383 
-0.010155 -0.316026 
-0.002354 -0.283147 
-0.005570 -0.295463 
0.005431 -0.279124 
-0.032530 -0.328496 
-0.019362 -0.312116 
-0.033032 -0.315854 
0.007612 -0.238474 
0.012865 -0.226672 
-0.021258 -0.273403 
-0.002992 -0.254094 
0.010428 -0.253593 
0.004853 -0.254074 
0.001319 -0.269250 
-0.031565 -0.303307 
-0.013301 -0.286704 
-0.027745 -0.289787 
-0.010265 -0.229567 
-0.004566 -0.238498 
-0.008397 -0.234492 
0.001321 -0.239194 
-0.001329 -0.239900 
-0.003948 -0.231815 
0.000947 -0.254148 
0.000444 -0.247349 
0.004529 -0.256178 
0.006622 -0.223988 
0.006017 -0.228875 
0.002694 -0.219843 
0.011309 -0.248092 
0.009044 -0.238217 
0.012364 -0.242427 
0.000292 -0.227564 
0.004960 -0.233276 
0.003407 -0.236844 
0.002590 -0.296253 
0.008297 -0.282610 
0.005551 -0.291153 
0.007417 -0.265014 
0.008791 -0.273847 
0.005469 -0.274843 
0.013494 -0.264404 
0.011438 -0.270162 
0.012286 -0.258693 
0.005936 -0.246108 
0.009674 -0.252599 
0.007426 -0.255469 
0.002470 -0.196354 
0.000815 -0.194204 
0.007393 -0.200623 
0.004744 -0.198404 
0.002297 -0.197277 
0.003612 -0.198472 
0.004647 -0.201379 
0.014667 -0.217919 
0.014279 -0.211497 
0.013198 -0.215652 
0.014123 -0.214090 
0.015319 -0.222211 
0.012562 -0.206796 
0.010118 -0.203309 
0.003585 -0.211100 
0.006675 -0.213926 
0.006825 -0.218918 
0.005535 -0.204999 
0.006228 -0.209227 
0.003332 -0.203162 
0.012425 -0.222597 
0.009377 -0.215601 
0.011585 -0.216164 
0.009003 -0.205025 
0.010421 -0.210248 
0.007451 -0.205604 
0.008113 -0.283795 
0.014991 -0.257112 
0.012985 -0.269726 
0.010419 -0.274642 
0.012431 -0.264084 
0.010063 -0.227133 
0.014919 -0.230571 
0.012875 -0.229316 
0.012872 -0.236039 
0.014724 -0.245941 
0.015137 -0.228976 
0.013987 -0.252582 
0.014918 -0.240690 
0.016171 -0.230389 
0.016061 -0.230923 
0.015922 -0.248787 
0.016276 -0.239910 
0.015748 -0.250991 
-0.020386 -0.215450 
-0.016356 -0.220500 
-0.029238 -0.201636 
-0.022736 -0.211221 
-0.033468 -0.196240 
-0.012774 -0.223195 
-0.009658 -0.223929 
-0.053151 -0.158556 
-0.047821 -0.170204 
-0.057733 -0.154446 
-0.027779 -0.196605 
-0.037689 -0.184405 
-0.033615 -0.186027 
-0.046353 -0.176118 
-0.041944 -0.181210 
-0.035694 -0.191660 
-0.003005 -0.218134 
-0.001600 -0.214662 
-0.007005 -0.223089 
-0.004796 -0.221045 
-0.015560 -0.205366 
-0.010131 -0.213665 
-0.018481 -0.206443 
-0.025321 -0.204906 
-0.021733 -0.206396 
-0.015640 -0.215479 
-0.030669 -0.024064 
-0.048400 -0.047985 
-0.042599 -0.035981 
-0.050196 -0.082186 
-0.050960 -0.064595 
-0.044451 -0.062003 
-0.064632 -0.073959 
-0.057923 -0.068609 
-0.062683 -0.086919 
-0.029607 -0.145279 
-0.036064 -0.131491 
-0.031420 -0.130175 
-0.045994 -0.133577 
-0.040940 -0.132661 
-0.038526 -0.147829 
-0.041429 -0.098359 
-0.042028 -0.116164 
-0.046957 -0.099589 
-0.066146 -0.130649 
-0.061334 -0.132967 
-0.057734 -0.146177 
-0.064292 -0.103531 
-0.063653 -0.118804 
-0.069587 -0.104137 
-0.048077 -0.148710 
-0.056298 -0.133984 
-0.051147 -0.134089 
-0.052723 -0.100925 
-0.052841 -0.118198 
-0.058578 -0.102309 
0.000614 -0.193026 
0.000315 -0.191984 
0.000946 -0.197127 
0.000837 -0.194760 
-0.002242 -0.185553 
-0.000693 -0.190868 
-0.003162 -0.187452 
-0.000546 -0.210899 
0.000196 -0.207081 
-0.006966 -0.195282 
-0.003358 -0.201823 
-0.008687 -0.198197 
0.000665 -0.203407 
0.000902 -0.200044 
-0.019573 -0.155564 
-0.016946 -0.167575 
-0.023110 -0.157341 
-0.006771 -0.182544 
-0.011421 -0.175958 
-0.009170 -0.173875 
-0.016571 -0.180444 
-0.013882 -0.178189 
-0.010513 -0.187416 
-0.001648 -0.195597 
-0.005491 -0.192426 
-0.004234 -0.189775 
-0.048546 -0.161020 
-0.039462 -0.162312 
-0.043966 -0.162172 
-0.039073 -0.174579 
-0.029744 -0.186384 
-0.026882 -0.159045 
-0.019500 -0.182577 
-0.023452 -0.171471 
-0.030882 -0.160549 
-0.035086 -0.161698 
-0.006103 -0.208394 
-0.020933 -0.196087 
-0.012964 -0.203460 
-0.010679 -0.200991 
-0.015192 -0.192402 
-0.030871 -0.174321 
-0.022675 -0.184417 
-0.026092 -0.185762 
0.000000 0.000000 
-0.023813 -0.020542 
-0.016505 -0.019107 
-0.019591 -0.019472 
0.000000 0.000000 
-0.034500 -0.040735 
-0.038627 -0.060420 
-0.008552 -0.018980 
-0.010145 -0.018971 
0.000000 0.000000 
-0.024726 -0.058226 
-0.018448 -0.038539 
-0.021005 -0.057796 
0.000000 0.000000 
-0.011951 -0.018967 
-0.014034 -0.018991 
-0.032089 -0.113776 
-0.027038 -0.128798 
-0.038721 -0.079355 
-0.036220 -0.097229 
-0.026856 -0.095199 
-0.031362 -0.096180 
-0.028983 -0.077569 
-0.025272 -0.039064 
-0.028854 -0.058744 
-0.033459 -0.059425 
0.000000 -0.018893 
-0.000857 -0.018916 
0.000000 0.000000 
-0.002175 -0.056012 
-0.001592 -0.037645 
0.000000 -0.055946 
0.000000 0.000000 
-0.001738 -0.018931 
-0.002660 -0.018946 
-0.002908 -0.122007 
-0.002950 -0.106996 
-0.000001 -0.121856 
-0.007977 -0.074281 
-0.005750 -0.091133 
-0.008751 -0.091526 
-0.000000 -0.090771 
-0.002850 -0.090879 
-0.002595 -0.073823 
0.000000 0.000000 
-0.005857 -0.018981 
-0.007133 -0.018984 
-0.003641 -0.018960 
-0.004700 -0.018972 
0.000000 0.000000 
-0.011742 -0.056773 
-0.008651 -0.037980 
-0.009136 -0.056510 
-0.004395 -0.056127 
-0.006701 -0.056293 
-0.004918 -0.037777 
-0.000190 -0.188358 
-0.000004 -0.191660 
-0.003758 -0.178781 
-0.001435 -0.184150 
-0.000003 -0.183002 
-0.000702 -0.183291 
-0.001204 -0.176751 
-0.021618 -0.142168 
-0.016269 -0.153821 
-0.010294 -0.150779 
-0.013183 -0.152202 
-0.014600 -0.139237 
-0.011340 -0.163759 
-0.007103 -0.172040 
-0.000001 -0.148004 
-0.002466 -0.148197 
-0.002740 -0.135776 
-0.001679 -0.168719 
-0.002106 -0.159194 
-0.000002 -0.168480 
-0.008401 -0.136998 
-0.004974 -0.148739 
-0.007570 -0.149610 
-0.005190 -0.170532 
-0.006479 -0.160802 
-0.003394 -0.169411 
-0.013058 -0.038234 
-0.013934 -0.075094 
-0.014560 -0.057076 
-0.017632 -0.057417 
-0.020823 -0.076200 
-0.005862 -0.122405 
-0.012107 -0.123888 
-0.008914 -0.123038 
-0.009048 -0.107835 
-0.011900 -0.092052 
-0.022927 -0.127428 
-0.022686 -0.094285 
-0.023337 -0.111423 
-0.019082 -0.126121 
-0.015485 -0.124927 
-0.015244 -0.092697 
-0.015733 -0.109367 
-0.018827 -0.093447 
0.000000 0.000000 
0.000857 -0.018916 
0.002660 -0.018945 
0.001738 -0.018931 
0.000000 0.000000 
0.001592 -0.037644 
0.002176 -0.056012 
0.007133 -0.018984 
0.005857 -0.018981 
0.000000 0.000000 
0.009136 -0.056510 
0.008651 -0.037980 
0.011742 -0.056772 
0.000000 0.000000 
0.004700 -0.018972 
0.003641 -0.018960 
0.002949 -0.106995 
0.002906 -0.122007 
0.002595 -0.073822 
0.002850 -0.090879 
0.008750 -0.091525 
0.005750 -0.091132 
0.007977 -0.074280 
0.004918 -0.037776 
0.006701 -0.056293 
0.004395 -0.056126 
0.030668 -0.024063 
0.023812 -0.020541 
0.000000 0.000000 
0.038626 -0.060418 
0.034498 -0.040734 
0.044450 -0.062001 
0.000000 0.000000 
0.019591 -0.019471 
0.016505 -0.019106 
0.027036 -0.128795 
0.032087 -0.113772 
0.031418 -0.130171 
0.028982 -0.077567 
0.031361 -0.096177 
0.026855 -0.095196 
0.041428 -0.098355 
0.036219 -0.097226 
0.038720 -0.079353 
0.000000 0.000000 
0.010145 -0.018971 
0.008552 -0.018980 
0.014033 -0.018991 
0.011950 -0.018966 
0.000000 0.000000 
0.021004 -0.057794 
0.018447 -0.038538 
0.024725 -0.058225 
0.033458 -0.059423 
0.028853 -0.058742 
0.025272 -0.039062 
0.000183 -0.188357 
-0.000323 -0.191983 
0.001200 -0.176751 
0.000696 -0.183291 
0.002236 -0.185551 
0.001429 -0.184149 
0.003754 -0.178779 
0.002738 -0.135776 
0.002464 -0.148197 
0.007568 -0.149608 
0.004972 -0.148738 
0.008400 -0.136996 
0.002103 -0.159193 
0.001675 -0.168719 
0.019570 -0.155560 
0.016266 -0.153818 
0.021616 -0.142164 
0.007099 -0.172037 
0.011336 -0.163756 
0.009166 -0.173872 
0.014598 -0.139235 
0.013181 -0.152199 
0.010292 -0.150776 
0.003391 -0.169410 
0.006476 -0.160800 
0.005186 -0.170530 
0.013058 -0.038233 
0.020823 -0.076199 
0.017632 -0.057415 
0.014560 -0.057075 
0.013934 -0.075092 
0.022925 -0.127425 
0.015483 -0.124924 
0.019080 -0.126118 
0.023336 -0.111421 
0.022685 -0.094283 
0.005861 -0.122404 
0.011900 -0.092051 
0.009047 -0.107834 
0.008913 -0.123037 
0.012106 -0.123886 
0.018826 -0.093445 
0.015732 -0.109366 
0.015244 -0.092696 
0.042597 -0.035979 
0.048398 -0.047983 
0.062680 -0.086915 
0.057921 -0.068606 
0.064629 -0.073956 
0.050959 -0.064593 
0.050194 -0.082182 
0.057730 -0.146170 
0.061330 -0.132960 
0.066142 -0.130641 
0.051144 -0.134083 
0.056295 -0.133978 
0.048074 -0.148703 
0.069584 -0.104132 
0.063649 -0.118798 
0.064290 -0.103526 
0.036062 -0.131486 
0.029605 -0.145274 
0.046955 -0.099585 
0.042026 -0.116160 
0.038523 -0.147824 
0.040938 -0.132656 
0.045991 -0.133572 
0.058576 -0.102304 
0.052839 -0.118193 
0.052721 -0.100921 
0.010256 -0.229551 
0.016348 -0.220485 
0.020378 -0.215434 
0.009650 -0.223916 
0.012766 -0.223182 
0.003939 -0.231801 
0.033462 -0.196227 
0.022729 -0.211207 
0.029232 -0.201623 
0.001593 -0.214654 
0.002998 -0.218125 
-0.002702 -0.219835 
0.018475 -0.206433 
0.010124 -0.213655 
0.015555 -0.205357 
-0.000300 -0.227554 
0.004789 -0.221035 
0.006997 -0.223078 
0.057728 -0.154437 
0.047816 -0.170194 
0.053146 -0.158547 
0.035689 -0.191648 
0.041938 -0.181199 
0.046348 -0.176107 
0.033611 -0.186018 
0.037684 -0.184395 
0.027774 -0.196595 
0.015633 -0.215467 
0.021727 -0.206385 
0.025315 -0.204894 
-0.000621 -0.193025 
-0.000823 -0.194204 
0.003157 -0.187450 
0.000686 -0.190866 
-0.002306 -0.197275 
-0.000845 -0.194758 
-0.000953 -0.197124 
0.023107 -0.157336 
0.016943 -0.167570 
0.010509 -0.187411 
0.013878 -0.178184 
0.016567 -0.180439 
0.011417 -0.175954 
0.006766 -0.182540 
-0.003594 -0.211094 
-0.000203 -0.207075 
0.000539 -0.210892 
-0.000909 -0.200041 
-0.000672 -0.203403 
-0.003340 -0.203159 
0.008681 -0.198191 
0.003352 -0.201818 