# vtk DataFile Version 2.0
Unstructured Grid Example
ASCII
DATASET UNSTRUCTURED_GRID

POINTS 81 float
-0.190562 0.048044 0.000000 
1.190562 0.048044 0.000000 
1.000000 1.000000 0.000000 
0.000000 1.000000 0.000000 
0.500000 -0.100000 0.000000 
1.005096 0.447692 0.000000 
0.500000 1.000000 0.000000 
-0.005096 0.447692 0.000000 
0.500000 0.366283 0.000000 
0.128987 -0.010408 0.000000 
0.500000 0.131949 0.000000 
0.218097 0.185950 0.000000 
0.871013 -0.010408 0.000000 
0.781903 0.185950 0.000000 
1.080029 0.259141 0.000000 
0.746366 0.394853 0.000000 
0.966447 0.681233 0.000000 
0.731623 0.667290 0.000000 
0.750000 1.000000 0.000000 
0.500000 0.660092 0.000000 
0.250000 1.000000 0.000000 
0.268377 0.667290 0.000000 
0.033553 0.681233 0.000000 
0.253634 0.394853 0.000000 
-0.080029 0.259141 0.000000 
-0.038335 0.076454 0.000000 
0.189357 0.095900 0.000000 
0.012601 0.142777 0.000000 
0.500000 0.018949 0.000000 
0.374430 0.049764 0.000000 
0.352435 -0.100000 0.000000 
0.372909 0.255881 0.000000 
0.368803 0.147985 0.000000 
0.500000 0.244810 0.000000 
0.647565 -0.100000 0.000000 
0.625570 0.049764 0.000000 
0.987399 0.142777 0.000000 
0.810643 0.095900 0.000000 
1.038335 0.076454 0.000000 
0.631197 0.147985 0.000000 
0.627091 0.255881 0.000000 
1.138996 0.162565 0.000000 
0.936951 0.225309 0.000000 
0.875294 0.419592 0.000000 
0.900130 0.316547 0.000000 
1.034736 0.349061 0.000000 
0.761835 0.283766 0.000000 
0.620732 0.375640 0.000000 
0.980570 0.555242 0.000000 
0.856606 0.537368 0.000000 
0.852618 0.830239 0.000000 
0.847906 0.673994 0.000000 
0.964761 0.826045 0.000000 
0.735616 0.522395 0.000000 
0.616872 0.511469 0.000000 
0.875000 1.000000 0.000000 
0.735681 0.827536 0.000000 
0.500000 0.825235 0.000000 
0.617781 0.825286 0.000000 
0.625000 1.000000 0.000000 
0.615432 0.661592 0.000000 
0.500000 0.506998 0.000000 
0.375000 1.000000 0.000000 
0.382219 0.825286 0.000000 
0.147382 0.830239 0.000000 
0.264319 0.827536 0.000000 
0.125000 1.000000 0.000000 
0.384568 0.661592 0.000000 
0.383128 0.511469 0.000000 
0.035239 0.826045 0.000000 
0.152094 0.673994 0.000000 
0.124706 0.419592 0.000000 
0.143394 0.537368 0.000000 
0.019430 0.555242 0.000000 
0.264384 0.522395 0.000000 
0.379268 0.375640 0.000000 
-0.034736 0.349061 0.000000 
0.099870 0.316547 0.000000 
0.063049 0.225309 0.000000 
-0.138996 0.162565 0.000000 
0.238165 0.283766 0.000000 

CELLS 128 512
3  0 25 27 
3  9 26 25 
3  11 27 26 
3  25 26 27 
3  4 28 30 
3  10 29 28 
3  9 30 29 
3  28 29 30 
3  8 31 33 
3  11 32 31 
3  10 33 32 
3  31 32 33 
3  9 29 26 
3  10 32 29 
3  11 26 32 
3  29 32 26 
3  4 34 28 
3  12 35 34 
3  10 28 35 
3  34 35 28 
3  1 36 38 
3  13 37 36 
3  12 38 37 
3  36 37 38 
3  8 33 40 
3  10 39 33 
3  13 40 39 
3  33 39 40 
3  12 37 35 
3  13 39 37 
3  10 35 39 
3  37 39 35 
3  1 41 36 
3  14 42 41 
3  13 36 42 
3  41 42 36 
3  5 43 45 
3  15 44 43 
3  14 45 44 
3  43 44 45 
3  8 40 47 
3  13 46 40 
3  15 47 46 
3  40 46 47 
3  14 44 42 
3  15 46 44 
3  13 42 46 
3  44 46 42 
3  5 48 43 
3  16 49 48 
3  15 43 49 
3  48 49 43 
3  2 50 52 
3  17 51 50 
3  16 52 51 
3  50 51 52 
3  8 47 54 
3  15 53 47 
3  17 54 53 
3  47 53 54 
3  16 51 49 
3  17 53 51 
3  15 49 53 
3  51 53 49 
3  2 55 50 
3  18 56 55 
3  17 50 56 
3  55 56 50 
3  6 57 59 
3  19 58 57 
3  18 59 58 
3  57 58 59 
3  8 54 61 
3  17 60 54 
3  19 61 60 
3  54 60 61 
3  18 58 56 
3  19 60 58 
3  17 56 60 
3  58 60 56 
3  6 62 57 
3  20 63 62 
3  19 57 63 
3  62 63 57 
3  3 64 66 
3  21 65 64 
3  20 66 65 
3  64 65 66 
3  8 61 68 
3  19 67 61 
3  21 68 67 
3  61 67 68 
3  20 65 63 
3  21 67 65 
3  19 63 67 
3  65 67 63 
3  3 69 64 
3  22 70 69 
3  21 64 70 
3  69 70 64 
3  7 71 73 
3  23 72 71 
3  22 73 72 
3  71 72 73 
3  8 68 75 
3  21 74 68 
3  23 75 74 
3  68 74 75 
3  22 72 70 
3  23 74 72 
3  21 70 74 
3  72 74 70 
3  7 76 71 
3  24 77 76 
3  23 71 77 
3  76 77 71 
3  0 27 79 
3  11 78 27 
3  24 79 78 
3  27 78 79 
3  8 75 31 
3  23 80 75 
3  11 31 80 
3  75 80 31 
3  24 78 77 
3  11 80 78 
3  23 77 80 
3  78 80 77 

CELL_TYPES 128
5
5
5
5
5
5
5
5
5
5
5
5
5
5
5
5
5
5
5
5
5
5
5
5
5
5
5
5
5
5
5
5
5
5
5
5
5
5
5
5
5
5
5
5
5
5
5
5
5
5
5
5
5
5
5
5
5
5
5
5
5
5
5
5
5
5
5
5
5
5
5
5
5
5
5
5
5
5
5
5
5
5
5
5
5
5
5
5
5
5
5
5
5
5
5
5
5
5
5
5
5
5
5
5
5
5
5
5
5
5
5
5
5
5
5
5
5
5
5
5
5
5
5
5
5
5
5
5

POINT_DATA 81

SCALARS u_h float 2
LOOKUP_TABLE default
-0.190562 0.048044 
0.190562 0.048044 
0.000000 0.000000 
0.000000 0.000000 
-0.000000 -0.100000 
0.005096 -0.052308 
0.000000 0.000000 
-0.005096 -0.052308 
-0.000000 -0.133717 
-0.121013 -0.010408 
-0.000000 -0.118051 
-0.031903 -0.064050 
0.121013 -0.010408 
0.031903 -0.064050 
0.080029 0.009141 
-0.003634 -0.105147 
-0.033553 -0.068767 
-0.018377 -0.082710 
0.000000 0.000000 
-0.000000 -0.089908 
0.000000 0.000000 
0.018377 -0.082710 
0.033553 -0.068767 
0.003634 -0.105147 
-0.080029 0.009141 
-0.163335 0.076454 
-0.060643 -0.029100 
-0.112399 0.017777 
-0.000000 -0.106051 
-0.000570 -0.075236 
-0.022565 -0.100000 
-0.002091 -0.119119 
-0.006197 -0.102015 
-0.000000 -0.130190 
0.022565 -0.100000 
0.000570 -0.075236 
0.112399 0.017777 
0.060643 -0.029100 
0.163335 0.076454 
0.006197 -0.102015 
0.002091 -0.119119 
0.138996 0.037565 
0.061951 -0.024691 
0.000294 -0.080408 
0.025130 -0.058453 
0.034736 -0.025939 
0.011835 -0.091234 
-0.004268 -0.124360 
-0.019430 -0.069758 
-0.018394 -0.087632 
-0.022382 -0.044761 
-0.027094 -0.076006 
-0.035239 -0.048955 
-0.014384 -0.102605 
-0.008128 -0.113531 
0.000000 0.000000 
-0.014319 -0.047464 
-0.000000 -0.049765 
-0.007219 -0.049714 
0.000000 0.000000 
-0.009568 -0.088408 
-0.000000 -0.118002 
0.000000 0.000000 
0.007219 -0.049714 
0.022382 -0.044761 
0.014319 -0.047464 
0.000000 0.000000 
0.009568 -0.088408 
0.008128 -0.113531 
0.035239 -0.048955 
0.027094 -0.076006 
-0.000294 -0.080408 
0.018394 -0.087632 
0.019430 -0.069758 
0.014384 -0.102605 
0.004268 -0.124360 
-0.034736 -0.025939 
-0.025130 -0.058453 
-0.061951 -0.024691 
-0.138996 0.037565 
-0.011835 -0.091234 

CELL_DATA 128

SCALARS epsilon float 4
LOOKUP_TABLE default
0.313283 -0.395709 0.000000 0.140186
0.566185 0.207224 0.000000 -0.156551
0.430202 -0.183052 0.000000 -0.153832
0.599342 -0.319506 0.000000 -0.195310
0.164605 -0.049581 0.000000 0.000000
0.004550 -0.063706 0.000000 -0.136349
0.585953 0.284134 0.000000 -0.185551
0.049892 0.232826 0.000000 -0.018453
0.016586 -0.024595 0.000000 -0.045559
0.194857 -0.094851 0.000000 -0.157003
0.048351 -0.092609 0.000000 -0.070884
0.020591 -0.137664 0.000000 -0.035517
0.548164 0.003396 0.000000 -0.017858
0.042848 -0.229696 0.000000 -0.101242
0.289289 -0.191880 0.000000 -0.111810
0.365125 -0.196927 0.000000 -0.225498
0.164605 -0.049581 0.000000 -0.000000
0.585953 0.284134 0.000000 0.185551
0.004550 -0.063706 0.000000 0.136349
0.049892 0.232826 0.000000 0.018453
0.313283 -0.395709 0.000000 -0.140186
0.430202 -0.183052 0.000000 0.153832
0.566185 0.207224 0.000000 0.156551
0.599342 -0.319506 0.000000 0.195310
0.016586 -0.024595 0.000000 0.045559
0.048351 -0.092609 0.000000 0.070884
0.194857 -0.094851 0.000000 0.157003
0.020591 -0.137664 0.000000 0.035517
0.548164 0.003396 0.000000 0.017858
0.289289 -0.191880 0.000000 0.111810
0.042848 -0.229696 0.000000 0.101242
0.365125 -0.196927 0.000000 0.225498
0.307169 -0.021379 0.000000 -0.087746
0.373196 -0.086685 0.000000 -0.037176
0.438717 -0.207340 0.000000 0.069752
0.373248 -0.304832 0.000000 -0.026228
0.137321 -0.138725 0.000000 0.031086
0.100955 -0.121987 0.000000 0.025530
0.273855 -0.165887 0.000000 0.016831
0.152317 -0.097291 0.000000 0.065123
-0.029127 -0.035465 0.000000 0.012733
0.132825 -0.168175 0.000000 0.070139
0.035328 -0.082407 0.000000 0.025495
0.086980 -0.009072 0.000000 0.092058
0.274751 -0.175534 0.000000 0.057212
0.140253 -0.051968 0.000000 0.089761
0.273377 -0.144074 0.000000 0.128466
0.245794 -0.175137 0.000000 0.049362
0.107584 -0.073041 0.000000 0.036366
0.013891 0.033835 0.000000 0.013998
0.072010 -0.010002 0.000000 0.032250
0.026526 -0.025703 0.000000 0.000596
-0.075511 0.328316 0.000000 0.132270
-0.073357 0.219365 0.000000 0.040790
-0.052222 0.148259 0.000000 0.017943
-0.106401 0.221497 0.000000 0.006913
-0.032100 0.087620 0.000000 0.018527
0.021293 0.043875 0.000000 0.032559
-0.048353 0.152354 0.000000 0.021125
-0.048248 0.089063 0.000000 0.023976
-0.046899 0.094120 0.000000 -0.009987
-0.070139 0.149526 0.000000 0.006174
-0.018507 0.037702 0.000000 0.014283
-0.022616 0.102818 0.000000 0.019112
0.008691 0.298430 0.000000 0.083302
0.003446 0.313084 0.000000 0.052936
-0.066791 0.243740 0.000000 0.024912
-0.059621 0.295733 0.000000 0.097081
0.000000 0.325296 0.000000 0.000000
-0.059411 0.272625 0.000000 0.000153
0.000854 0.325030 0.000000 0.026537
-0.058468 0.325014 0.000000 0.028308
-0.067130 0.118490 0.000000 0.015810
-0.072416 0.182645 0.000000 0.012848
-0.079455 0.200403 0.000000 0.004866
-0.066712 0.182219 0.000000 0.008833
-0.056099 0.311714 0.000000 0.062660
-0.079520 0.264188 0.000000 0.014160
-0.073800 0.243685 0.000000 0.034300
-0.058563 0.264162 0.000000 0.016256
0.000000 0.325296 0.000000 0.000000
0.000854 0.325030 0.000000 -0.026537
-0.059411 0.272625 0.000000 -0.000153
-0.058468 0.325014 0.000000 -0.028308
0.008691 0.298430 0.000000 -0.083302
-0.066791 0.243740 0.000000 -0.024912
0.003446 0.313084 0.000000 -0.052936
-0.059621 0.295733 0.000000 -0.097081
-0.067130 0.118490 0.000000 -0.015810
-0.079455 0.200403 0.000000 -0.004866
-0.072416 0.182645 0.000000 -0.012848
-0.066712 0.182219 0.000000 -0.008833
-0.056099 0.311714 0.000000 -0.062660
-0.073800 0.243685 0.000000 -0.034300
-0.079520 0.264188 0.000000 -0.014160
-0.058563 0.264162 0.000000 -0.016256
-0.075511 0.328316 0.000000 -0.132270
-0.052222 0.148259 0.000000 -0.017943
-0.073357 0.219365 0.000000 -0.040790
-0.106401 0.221497 0.000000 -0.006913
0.107584 -0.073041 0.000000 -0.036366
0.072010 -0.010002 0.000000 -0.032250
0.013891 0.033835 0.000000 -0.013998
0.026526 -0.025703 0.000000 -0.000596
-0.032100 0.087620 0.000000 -0.018527
-0.048353 0.152354 0.000000 -0.021125
0.021293 0.043875 0.000000 -0.032559
-0.048248 0.089063 0.000000 -0.023976
-0.046899 0.094120 0.000000 0.009987
-0.018507 0.037702 0.000000 -0.014283
-0.070139 0.149526 0.000000 -0.006174
-0.022616 0.102818 0.000000 -0.019112
0.137321 -0.138725 0.000000 -0.031086
0.273855 -0.165887 0.000000 -0.016831
0.100955 -0.121987 0.000000 -0.025530
0.152317 -0.097291 0.000000 -0.065123
0.307169 -0.021379 0.000000 0.087746
0.438717 -0.207340 0.000000 -0.069752
0.373196 -0.086685 0.000000 0.037176
0.373248 -0.304832 0.000000 0.026228
-0.029127 -0.035465 0.000000 -0.012733
0.035328 -0.082407 0.000000 -0.025495
0.132825 -0.168175 0.000000 -0.070139
0.086980 -0.009072 0.000000 -0.092058
0.274751 -0.175534 0.000000 -0.057212
0.273377 -0.144074 0.000000 -0.128466
0.140253 -0.051968 0.000000 -0.089761
0.245794 -0.175137 0.000000 -0.049362

SCALARS sigma float 4
LOOKUP_TABLE default
3.879448 22.627826 -3.696675 -13.786319
12.557622 10.111746 9.590477 -4.132402
5.675715 -4.160057 0.423226 -1.229362
6.162299 -14.070204 -1.794432 2.226966
3.197596 0.183224 0.987024 0.000000
-0.890521 -2.929322 -0.969182 -2.226020
14.173941 12.494301 11.342072 -2.726410
3.676774 5.579151 3.052688 -1.048816
0.139952 -0.616922 -0.129759 -0.735075
2.882550 -2.383024 0.137406 -2.121726
0.153092 -2.579077 -0.632626 -1.110060
-0.868293 -4.202396 -1.252654 -0.417470
9.776203 5.380676 5.546454 -1.491620
-1.647657 -8.854067 -2.270322 -2.063461
3.712420 -5.149974 -0.386115 -0.464065
3.862976 -7.018275 -0.773059 -3.022247
3.197596 0.183224 0.987024 -0.000000
14.173941 12.494301 11.342072 2.726410
-0.890521 -2.929322 -0.969182 2.226020
3.676774 5.579151 3.052688 1.048816
3.879448 22.627826 -3.696675 13.786319
5.675715 -4.160057 0.423226 1.229362
12.557622 10.111746 9.590477 4.132402
6.162299 -14.070204 -1.794432 -2.226966
0.139952 -0.616922 -0.129759 0.735075
0.153092 -2.579077 -0.632626 1.110060
2.882550 -2.383024 0.137406 2.121726
-0.868293 -4.202396 -1.252654 0.417470
9.776203 5.380676 5.546454 1.491620
3.712420 -5.149974 -0.386115 0.464065
-1.647657 -8.854067 -2.270322 2.063461
3.862976 -7.018275 -0.773059 3.022247
5.582637 2.362277 2.572581 -0.500049
5.785239 0.928744 2.190457 -0.142940
5.503592 -4.130245 0.397191 -0.474648
3.030212 -9.814042 -1.605149 -4.053025
1.699102 -3.214532 -0.414357 -0.331843
1.145545 -2.883264 -0.469652 -0.209878
3.598226 -3.027767 0.165439 -0.841741
2.461413 -1.865620 0.169068 0.599963
-1.124096 -1.271923 -0.628502 0.143656
1.325703 -4.804203 -0.898641 0.246065
0.095606 -2.131624 -0.542015 0.125696
1.917646 0.150428 0.593796 1.401593
3.663886 -3.799012 -0.037863 -0.236602
2.650164 -0.654336 0.575931 1.237625
3.921754 -3.291268 0.175236 1.288315
3.204628 -3.934374 -0.203106 -0.425794
1.814666 -1.244358 0.161811 0.310438
0.718976 0.967637 0.482737 0.334635
1.695431 0.322829 0.584871 0.544882
0.415209 -0.434701 -0.005415 -0.057415
0.073640 5.513225 1.682311 1.044736
-0.126074 3.900782 1.104958 0.587411
-0.057224 2.824108 0.799083 0.347592
-1.205136 3.589858 0.678658 -0.008091
-0.026952 1.759085 0.492082 0.367643
1.011275 1.236129 0.649158 0.625236
0.104576 2.936755 0.883751 0.454132
-0.493184 1.600689 0.310715 0.464147
-0.416845 1.771167 0.381940 -0.047725
-0.608039 2.657432 0.583364 0.194049
-0.111389 0.733653 0.173913 0.304301
0.403435 2.180722 0.748205 0.467501
2.984298 6.234659 2.984298 0.544169
3.130837 6.481594 3.130837 0.330030
0.351642 4.447126 1.431481 0.309635
0.716927 5.275358 1.819987 0.912274
3.252962 6.684409 3.252962 0.000000
0.888298 5.051365 1.808200 0.002665
3.250302 6.680020 3.250302 0.159207
1.379240 5.916187 2.269382 0.218200
-0.807572 2.053917 0.349522 0.278666
-0.379751 3.270458 0.834465 0.264351
-0.449816 3.528678 0.890539 0.087023
-0.195918 3.333721 0.910382 0.192344
1.213001 5.676489 2.127884 0.561964
0.125939 4.654011 1.422504 0.174366
0.100581 4.342696 1.315641 0.481172
0.827843 4.910815 1.741311 0.204199
3.252962 6.684409 3.252962 0.000000
3.250302 6.680020 3.250302 -0.159207
0.888298 5.051365 1.808200 -0.002665
1.379240 5.916187 2.269382 -0.218200
2.984298 6.234659 2.984298 -0.544169
0.351642 4.447126 1.431481 -0.309635
3.130837 6.481594 3.130837 -0.330030
0.716927 5.275358 1.819987 -0.912274
-0.807572 2.053917 0.349522 -0.278666
-0.449816 3.528678 0.890539 -0.087023
-0.379751 3.270458 0.834465 -0.264351
-0.195918 3.333721 0.910382 -0.192344
1.213001 5.676489 2.127884 -0.561964
0.100581 4.342696 1.315641 -0.481172
0.125939 4.654011 1.422504 -0.174366
0.827843 4.910815 1.741311 -0.204199
0.073640 5.513225 1.682311 -1.044736
-0.057224 2.824108 0.799083 -0.347592
-0.126074 3.900782 1.104958 -0.587411
-1.205136 3.589858 0.678658 0.008091
1.814666 -1.244358 0.161811 -0.310438
1.695431 0.322829 0.584871 -0.544882
0.718976 0.967637 0.482737 -0.334635
0.415209 -0.434701 -0.005415 0.057415
-0.026952 1.759085 0.492082 -0.367643
0.104576 2.936755 0.883751 -0.454132
1.011275 1.236129 0.649158 -0.625236
-0.493184 1.600689 0.310715 -0.464147
-0.416845 1.771167 0.381940 0.047725
-0.111389 0.733653 0.173913 -0.304301
-0.608039 2.657432 0.583364 -0.194049
0.403435 2.180722 0.748205 -0.467501
1.699102 -3.214532 -0.414357 0.331843
3.598226 -3.027767 0.165439 0.841741
1.145545 -2.883264 -0.469652 0.209878
2.461413 -1.865620 0.169068 -0.599963
5.582637 2.362277 2.572581 0.500049
5.503592 -4.130245 0.397191 0.474648
5.785239 0.928744 2.190457 0.142940
3.030212 -9.814042 -1.605149 4.053025
-1.124096 -1.271923 -0.628502 -0.143656
0.095606 -2.131624 -0.542015 -0.125696
1.325703 -4.804203 -0.898641 -0.246065
1.917646 0.150428 0.593796 -1.401593
3.663886 -3.799012 -0.037863 0.236602
3.921754 -3.291268 0.175236 -1.288315
2.650164 -0.654336 0.575931 -1.237625
3.204628 -3.934374 -0.203106 0.425794

