# vtk DataFile Version 2.0
Unstructured Grid Example
ASCII
DATASET UNSTRUCTURED_GRID

POINTS 16 float
0.000000 0.000000 0.000000 
0.125000 0.000000 0.000000 
0.125000 0.000000 0.000000 
0.250000 0.000000 0.000000 
0.250000 5.001146 0.000000 
0.375000 -10.002291 0.000000 
0.375000 -3.400851 0.000000 
0.500000 -8.201734 0.000000 
0.500000 -8.201734 0.000000 
0.625000 -3.400851 0.000000 
0.625000 -10.002291 0.000000 
0.750000 5.001146 0.000000 
0.750000 0.000000 0.000000 
0.875000 0.000000 0.000000 
0.875000 0.000000 0.000000 
1.000000 0.000000 0.000000 

CELLS 8 24
2  0 1 
2  2 3 
2  4 5 
2  6 7 
2  8 9 
2  10 11 
2  12 13 
2  14 15 

CELL_TYPES 8
3
3
3
3
3
3
3
3

POINT_DATA 16

SCALARS lambda_h float 1
LOOKUP_TABLE default
0.000000 
0.000000 
0.000000 
0.000000 
5.001146 
-10.002291 
-3.400851 
-8.201734 
-8.201734 
-3.400851 
-10.002291 
5.001146 
0.000000 
0.000000 
0.000000 
0.000000 

