# vtk DataFile Version 2.0
Unstructured Grid Example
ASCII
DATASET UNSTRUCTURED_GRID

POINTS 8 float
0.000000 0.563846 0.000000 
0.250000 -1.127693 0.000000 
0.250000 6.083408 0.000000 
0.500000 -13.858356 0.000000 
0.500000 -13.858356 0.000000 
0.750000 6.083408 0.000000 
0.750000 -1.127693 0.000000 
1.000000 0.563846 0.000000 

CELLS 4 12
2  0 1 
2  2 3 
2  4 5 
2  6 7 

CELL_TYPES 4
3
3
3
3

POINT_DATA 8

SCALARS lambda_h float 1
LOOKUP_TABLE default
0.563846 
-1.127693 
6.083408 
-13.858356 
-13.858356 
6.083408 
-1.127693 
0.563846 

