# vtk DataFile Version 2.0
Unstructured Grid Example
ASCII
DATASET UNSTRUCTURED_GRID

POINTS 256 float
0.000000 0.000000 0.000000 
0.007812 0.000000 0.000000 
0.007812 0.000000 0.000000 
0.015625 0.000000 0.000000 
0.015625 0.000000 0.000000 
0.023438 0.000000 0.000000 
0.023438 0.000000 0.000000 
0.031250 0.000000 0.000000 
0.046875 0.000000 0.000000 
0.054688 0.000000 0.000000 
0.054688 0.000000 0.000000 
0.062500 0.000000 0.000000 
0.031250 0.000000 0.000000 
0.039062 0.000000 0.000000 
0.039062 0.000000 0.000000 
0.046875 0.000000 0.000000 
0.109375 0.000000 0.000000 
0.117188 0.000000 0.000000 
0.117188 0.000000 0.000000 
0.125000 0.000000 0.000000 
0.093750 0.000000 0.000000 
0.101562 0.000000 0.000000 
0.101562 0.000000 0.000000 
0.109375 0.000000 0.000000 
0.062500 0.000000 0.000000 
0.070312 0.000000 0.000000 
0.070312 0.000000 0.000000 
0.078125 0.000000 0.000000 
0.078125 0.000000 0.000000 
0.085938 0.000000 0.000000 
0.085938 0.000000 0.000000 
0.093750 0.000000 0.000000 
0.234375 0.000000 0.000000 
0.242188 0.000000 0.000000 
0.242188 0.000000 0.000000 
0.250000 0.000000 0.000000 
0.218750 0.000000 0.000000 
0.226562 0.000000 0.000000 
0.226562 0.000000 0.000000 
0.234375 0.000000 0.000000 
0.187500 0.000000 0.000000 
0.195312 0.000000 0.000000 
0.195312 0.000000 0.000000 
0.203125 0.000000 0.000000 
0.203125 0.000000 0.000000 
0.210938 0.000000 0.000000 
0.210938 0.000000 0.000000 
0.218750 0.000000 0.000000 
0.125000 0.000000 0.000000 
0.132812 0.000000 0.000000 
0.132812 0.000000 0.000000 
0.140625 0.000000 0.000000 
0.140625 0.000000 0.000000 
0.148438 0.000000 0.000000 
0.148438 0.000000 0.000000 
0.156250 0.000000 0.000000 
0.171875 0.000000 0.000000 
0.179688 0.000000 0.000000 
0.179688 0.000000 0.000000 
0.187500 0.000000 0.000000 
0.156250 0.000000 0.000000 
0.164062 0.000000 0.000000 
0.164062 0.000000 0.000000 
0.171875 0.000000 0.000000 
0.484375 -6.374894 0.000000 
0.492188 -6.432922 0.000000 
0.492188 -6.367737 0.000000 
0.500000 -6.505263 0.000000 
0.468750 -6.263766 0.000000 
0.476562 -6.408447 0.000000 
0.476562 -6.326203 0.000000 
0.484375 -6.428253 0.000000 
0.437500 -5.878699 0.000000 
0.445312 -6.187193 0.000000 
0.445312 -5.994867 0.000000 
0.453125 -6.263353 0.000000 
0.453125 -6.097912 0.000000 
0.460938 -6.325748 0.000000 
0.460938 -6.187613 0.000000 
0.468750 -6.374183 0.000000 
0.375000 -4.502792 0.000000 
0.382812 -5.108826 0.000000 
0.382812 -4.716663 0.000000 
0.390625 -5.287118 0.000000 
0.390625 -4.918746 0.000000 
0.398438 -5.453408 0.000000 
0.398438 -5.109028 0.000000 
0.406250 -5.607505 0.000000 
0.421875 -5.607927 0.000000 
0.429688 -5.994415 0.000000 
0.429688 -5.749641 0.000000 
0.437500 -6.097475 0.000000 
0.406250 -5.287423 0.000000 
0.414062 -5.749194 0.000000 
0.414062 -5.453784 0.000000 
0.421875 -5.878243 0.000000 
0.250000 0.000000 0.000000 
0.257812 0.000000 0.000000 
0.257812 0.000000 0.000000 
0.265625 0.000000 0.000000 
0.265625 0.163017 0.000000 
0.273438 -0.326033 0.000000 
0.273438 0.706991 0.000000 
0.281250 -1.903032 0.000000 
0.296875 -1.561137 0.000000 
0.304688 -2.653233 0.000000 
0.304688 -1.953546 0.000000 
0.312500 -2.960511 0.000000 
0.281250 -0.546021 0.000000 
0.289062 -2.007032 0.000000 
0.289062 -1.114887 0.000000 
0.296875 -2.330310 0.000000 
0.359375 -4.039196 0.000000 
0.367188 -4.716788 0.000000 
0.367188 -4.277045 0.000000 
0.375000 -4.918683 0.000000 
0.343750 -3.525329 0.000000 
0.351562 -4.277762 0.000000 
0.351562 -3.788841 0.000000 
0.359375 -4.503170 0.000000 
0.312500 -2.311433 0.000000 
0.320312 -3.251703 0.000000 
0.320312 -2.643399 0.000000 
0.328125 -3.528040 0.000000 
0.328125 -2.954413 0.000000 
0.335938 -3.790653 0.000000 
0.335938 -3.247673 0.000000 
0.343750 -4.040373 0.000000 
0.500000 -6.505263 0.000000 
0.507812 -6.367737 0.000000 
0.507812 -6.432922 0.000000 
0.515625 -6.374894 0.000000 
0.515625 -6.428253 0.000000 
0.523438 -6.326203 0.000000 
0.523438 -6.408447 0.000000 
0.531250 -6.263766 0.000000 
0.546875 -6.263353 0.000000 
0.554688 -5.994867 0.000000 
0.554688 -6.187193 0.000000 
0.562500 -5.878699 0.000000 
0.531250 -6.374183 0.000000 
0.539062 -6.187613 0.000000 
0.539062 -6.325748 0.000000 
0.546875 -6.097912 0.000000 
0.609375 -5.287118 0.000000 
0.617188 -4.716663 0.000000 
0.617188 -5.108826 0.000000 
0.625000 -4.502792 0.000000 
0.593750 -5.607505 0.000000 
0.601562 -5.109028 0.000000 
0.601562 -5.453408 0.000000 
0.609375 -4.918746 0.000000 
0.562500 -6.097475 0.000000 
0.570312 -5.749641 0.000000 
0.570312 -5.994415 0.000000 
0.578125 -5.607927 0.000000 
0.578125 -5.878243 0.000000 
0.585938 -5.453784 0.000000 
0.585938 -5.749194 0.000000 
0.593750 -5.287423 0.000000 
0.734375 0.000000 0.000000 
0.742188 0.000000 0.000000 
0.742188 0.000000 0.000000 
0.750000 0.000000 0.000000 
0.718750 -1.903032 0.000000 
0.726562 0.706991 0.000000 
0.726562 -0.326033 0.000000 
0.734375 0.163017 0.000000 
0.687500 -2.960511 0.000000 
0.695312 -1.953546 0.000000 
0.695312 -2.653233 0.000000 
0.703125 -1.561137 0.000000 
0.703125 -2.330310 0.000000 
0.710938 -1.114887 0.000000 
0.710938 -2.007032 0.000000 
0.718750 -0.546021 0.000000 
0.625000 -4.918683 0.000000 
0.632812 -4.277045 0.000000 
0.632812 -4.716788 0.000000 
0.640625 -4.039196 0.000000 
0.640625 -4.503170 0.000000 
0.648438 -3.788841 0.000000 
0.648438 -4.277762 0.000000 
0.656250 -3.525329 0.000000 
0.671875 -3.528040 0.000000 
0.679688 -2.643399 0.000000 
0.679688 -3.251703 0.000000 
0.687500 -2.311433 0.000000 
0.656250 -4.040373 0.000000 
0.664062 -3.247673 0.000000 
0.664062 -3.790653 0.000000 
0.671875 -2.954413 0.000000 
0.984375 0.000000 0.000000 
0.992188 0.000000 0.000000 
0.992188 0.000000 0.000000 
1.000000 0.000000 0.000000 
0.968750 0.000000 0.000000 
0.976562 0.000000 0.000000 
0.976562 0.000000 0.000000 
0.984375 0.000000 0.000000 
0.937500 0.000000 0.000000 
0.945312 0.000000 0.000000 
0.945312 0.000000 0.000000 
0.953125 0.000000 0.000000 
0.953125 0.000000 0.000000 
0.960938 0.000000 0.000000 
0.960938 0.000000 0.000000 
0.968750 0.000000 0.000000 
0.875000 0.000000 0.000000 
0.882812 0.000000 0.000000 
0.882812 0.000000 0.000000 
0.890625 0.000000 0.000000 
0.890625 0.000000 0.000000 
0.898438 0.000000 0.000000 
0.898438 0.000000 0.000000 
0.906250 0.000000 0.000000 
0.921875 0.000000 0.000000 
0.929688 0.000000 0.000000 
0.929688 0.000000 0.000000 
0.937500 0.000000 0.000000 
0.906250 0.000000 0.000000 
0.914062 0.000000 0.000000 
0.914062 0.000000 0.000000 
0.921875 0.000000 0.000000 
0.750000 0.000000 0.000000 
0.757812 0.000000 0.000000 
0.757812 0.000000 0.000000 
0.765625 0.000000 0.000000 
0.765625 0.000000 0.000000 
0.773438 0.000000 0.000000 
0.773438 0.000000 0.000000 
0.781250 0.000000 0.000000 
0.796875 0.000000 0.000000 
0.804688 0.000000 0.000000 
0.804688 0.000000 0.000000 
0.812500 0.000000 0.000000 
0.781250 0.000000 0.000000 
0.789062 0.000000 0.000000 
0.789062 0.000000 0.000000 
0.796875 0.000000 0.000000 
0.859375 0.000000 0.000000 
0.867188 0.000000 0.000000 
0.867188 0.000000 0.000000 
0.875000 0.000000 0.000000 
0.843750 0.000000 0.000000 
0.851562 0.000000 0.000000 
0.851562 0.000000 0.000000 
0.859375 0.000000 0.000000 
0.812500 0.000000 0.000000 
0.820312 0.000000 0.000000 
0.820312 0.000000 0.000000 
0.828125 0.000000 0.000000 
0.828125 0.000000 0.000000 
0.835938 0.000000 0.000000 
0.835938 0.000000 0.000000 
0.843750 0.000000 0.000000 

CELLS 128 384
2  0 1 
2  2 3 
2  4 5 
2  6 7 
2  8 9 
2  10 11 
2  12 13 
2  14 15 
2  16 17 
2  18 19 
2  20 21 
2  22 23 
2  24 25 
2  26 27 
2  28 29 
2  30 31 
2  32 33 
2  34 35 
2  36 37 
2  38 39 
2  40 41 
2  42 43 
2  44 45 
2  46 47 
2  48 49 
2  50 51 
2  52 53 
2  54 55 
2  56 57 
2  58 59 
2  60 61 
2  62 63 
2  64 65 
2  66 67 
2  68 69 
2  70 71 
2  72 73 
2  74 75 
2  76 77 
2  78 79 
2  80 81 
2  82 83 
2  84 85 
2  86 87 
2  88 89 
2  90 91 
2  92 93 
2  94 95 
2  96 97 
2  98 99 
2  100 101 
2  102 103 
2  104 105 
2  106 107 
2  108 109 
2  110 111 
2  112 113 
2  114 115 
2  116 117 
2  118 119 
2  120 121 
2  122 123 
2  124 125 
2  126 127 
2  128 129 
2  130 131 
2  132 133 
2  134 135 
2  136 137 
2  138 139 
2  140 141 
2  142 143 
2  144 145 
2  146 147 
2  148 149 
2  150 151 
2  152 153 
2  154 155 
2  156 157 
2  158 159 
2  160 161 
2  162 163 
2  164 165 
2  166 167 
2  168 169 
2  170 171 
2  172 173 
2  174 175 
2  176 177 
2  178 179 
2  180 181 
2  182 183 
2  184 185 
2  186 187 
2  188 189 
2  190 191 
2  192 193 
2  194 195 
2  196 197 
2  198 199 
2  200 201 
2  202 203 
2  204 205 
2  206 207 
2  208 209 
2  210 211 
2  212 213 
2  214 215 
2  216 217 
2  218 219 
2  220 221 
2  222 223 
2  224 225 
2  226 227 
2  228 229 
2  230 231 
2  232 233 
2  234 235 
2  236 237 
2  238 239 
2  240 241 
2  242 243 
2  244 245 
2  246 247 
2  248 249 
2  250 251 
2  252 253 
2  254 255 

CELL_TYPES 128
3
3
3
3
3
3
3
3
3
3
3
3
3
3
3
3
3
3
3
3
3
3
3
3
3
3
3
3
3
3
3
3
3
3
3
3
3
3
3
3
3
3
3
3
3
3
3
3
3
3
3
3
3
3
3
3
3
3
3
3
3
3
3
3
3
3
3
3
3
3
3
3
3
3
3
3
3
3
3
3
3
3
3
3
3
3
3
3
3
3
3
3
3
3
3
3
3
3
3
3
3
3
3
3
3
3
3
3
3
3
3
3
3
3
3
3
3
3
3
3
3
3
3
3
3
3
3
3

POINT_DATA 256

SCALARS lambda_h float 1
LOOKUP_TABLE default
0.000000 
0.000000 
0.000000 
0.000000 
0.000000 
0.000000 
0.000000 
0.000000 
0.000000 
0.000000 
0.000000 
0.000000 
0.000000 
0.000000 
0.000000 
0.000000 
0.000000 
0.000000 
0.000000 
0.000000 
0.000000 
0.000000 
0.000000 
0.000000 
0.000000 
0.000000 
0.000000 
0.000000 
0.000000 
0.000000 
0.000000 
0.000000 
0.000000 
0.000000 
0.000000 
0.000000 
0.000000 
0.000000 
0.000000 
0.000000 
0.000000 
0.000000 
0.000000 
0.000000 
0.000000 
0.000000 
0.000000 
0.000000 
0.000000 
0.000000 
0.000000 
0.000000 
0.000000 
0.000000 
0.000000 
0.000000 
0.000000 
0.000000 
0.000000 
0.000000 
0.000000 
0.000000 
0.000000 
0.000000 
-6.374894 
-6.432922 
-6.367737 
-6.505263 
-6.263766 
-6.408447 
-6.326203 
-6.428253 
-5.878699 
-6.187193 
-5.994867 
-6.263353 
-6.097912 
-6.325748 
-6.187613 
-6.374183 
-4.502792 
-5.108826 
-4.716663 
-5.287118 
-4.918746 
-5.453408 
-5.109028 
-5.607505 
-5.607927 
-5.994415 
-5.749641 
-6.097475 
-5.287423 
-5.749194 
-5.453784 
-5.878243 
0.000000 
0.000000 
0.000000 
0.000000 
0.163017 
-0.326033 
0.706991 
-1.903032 
-1.561137 
-2.653233 
-1.953546 
-2.960511 
-0.546021 
-2.007032 
-1.114887 
-2.330310 
-4.039196 
-4.716788 
-4.277045 
-4.918683 
-3.525329 
-4.277762 
-3.788841 
-4.503170 
-2.311433 
-3.251703 
-2.643399 
-3.528040 
-2.954413 
-3.790653 
-3.247673 
-4.040373 
-6.505263 
-6.367737 
-6.432922 
-6.374894 
-6.428253 
-6.326203 
-6.408447 
-6.263766 
-6.263353 
-5.994867 
-6.187193 
-5.878699 
-6.374183 
-6.187613 
-6.325748 
-6.097912 
-5.287118 
-4.716663 
-5.108826 
-4.502792 
-5.607505 
-5.109028 
-5.453408 
-4.918746 
-6.097475 
-5.749641 
-5.994415 
-5.607927 
-5.878243 
-5.453784 
-5.749194 
-5.287423 
0.000000 
0.000000 
0.000000 
0.000000 
-1.903032 
0.706991 
-0.326033 
0.163017 
-2.960511 
-1.953546 
-2.653233 
-1.561137 
-2.330310 
-1.114887 
-2.007032 
-0.546021 
-4.918683 
-4.277045 
-4.716788 
-4.039196 
-4.503170 
-3.788841 
-4.277762 
-3.525329 
-3.528040 
-2.643399 
-3.251703 
-2.311433 
-4.040373 
-3.247673 
-3.790653 
-2.954413 
0.000000 
0.000000 
0.000000 
0.000000 
0.000000 
0.000000 
0.000000 
0.000000 
0.000000 
0.000000 
0.000000 
0.000000 
0.000000 
0.000000 
0.000000 
0.000000 
0.000000 
0.000000 
0.000000 
0.000000 
0.000000 
0.000000 
0.000000 
0.000000 
0.000000 
0.000000 
0.000000 
0.000000 
0.000000 
0.000000 
0.000000 
0.000000 
0.000000 
0.000000 
0.000000 
0.000000 
0.000000 
0.000000 
0.000000 
0.000000 
0.000000 
0.000000 
0.000000 
0.000000 
0.000000 
0.000000 
0.000000 
0.000000 
0.000000 
0.000000 
0.000000 
0.000000 
0.000000 
0.000000 
0.000000 
0.000000 
0.000000 
0.000000 
0.000000 
0.000000 
0.000000 
0.000000 
0.000000 
0.000000 

