# vtk DataFile Version 2.0
Unstructured Grid Example
ASCII
DATASET UNSTRUCTURED_GRID

POINTS 128 float
0.000000 0.000000 0.000000 
0.015625 0.000000 0.000000 
0.015625 0.000000 0.000000 
0.031250 0.000000 0.000000 
0.031250 0.000000 0.000000 
0.046875 0.000000 0.000000 
0.046875 0.000000 0.000000 
0.062500 0.000000 0.000000 
0.093750 0.000000 0.000000 
0.109375 0.000000 0.000000 
0.109375 0.000000 0.000000 
0.125000 0.000000 0.000000 
0.062500 0.000000 0.000000 
0.078125 0.000000 0.000000 
0.078125 0.000000 0.000000 
0.093750 0.000000 0.000000 
0.218750 0.000000 0.000000 
0.234375 0.000000 0.000000 
0.234375 0.000000 0.000000 
0.250000 0.000000 0.000000 
0.187500 0.000000 0.000000 
0.203125 0.000000 0.000000 
0.203125 0.000000 0.000000 
0.218750 0.000000 0.000000 
0.125000 0.000000 0.000000 
0.140625 0.000000 0.000000 
0.140625 0.000000 0.000000 
0.156250 0.000000 0.000000 
0.156250 0.000000 0.000000 
0.171875 0.000000 0.000000 
0.171875 0.000000 0.000000 
0.187500 0.000000 0.000000 
0.468750 -6.223590 0.000000 
0.484375 -6.451779 0.000000 
0.484375 -6.274524 0.000000 
0.500000 -6.578101 0.000000 
0.437500 -5.786803 0.000000 
0.453125 -6.354796 0.000000 
0.453125 -6.031277 0.000000 
0.468750 -6.433841 0.000000 
0.375000 -4.318549 0.000000 
0.390625 -5.488381 0.000000 
0.390625 -4.756187 0.000000 
0.406250 -5.782938 0.000000 
0.406250 -5.147512 0.000000 
0.421875 -6.027038 0.000000 
0.421875 -5.491591 0.000000 
0.437500 -6.218406 0.000000 
0.250000 0.000000 0.000000 
0.265625 0.000000 0.000000 
0.265625 0.888521 0.000000 
0.281250 -1.777042 0.000000 
0.281250 0.174257 0.000000 
0.296875 -3.014077 0.000000 
0.296875 -1.252783 0.000000 
0.312500 -3.348331 0.000000 
0.343750 -3.301032 0.000000 
0.359375 -4.756581 0.000000 
0.359375 -3.834303 0.000000 
0.375000 -5.145588 0.000000 
0.312500 -2.050419 0.000000 
0.328125 -3.848607 0.000000 
0.328125 -2.712206 0.000000 
0.343750 -4.323220 0.000000 
0.500000 -6.578101 0.000000 
0.515625 -6.274524 0.000000 
0.515625 -6.451779 0.000000 
0.531250 -6.223590 0.000000 
0.531250 -6.433841 0.000000 
0.546875 -6.031277 0.000000 
0.546875 -6.354796 0.000000 
0.562500 -5.786803 0.000000 
0.593750 -5.782938 0.000000 
0.609375 -4.756187 0.000000 
0.609375 -5.488381 0.000000 
0.625000 -4.318549 0.000000 
0.562500 -6.218406 0.000000 
0.578125 -5.491591 0.000000 
0.578125 -6.027038 0.000000 
0.593750 -5.147512 0.000000 
0.718750 -1.777042 0.000000 
0.734375 0.888521 0.000000 
0.734375 0.000000 0.000000 
0.750000 0.000000 0.000000 
0.687500 -3.348331 0.000000 
0.703125 -1.252783 0.000000 
0.703125 -3.014077 0.000000 
0.718750 0.174257 0.000000 
0.625000 -5.145588 0.000000 
0.640625 -3.834303 0.000000 
0.640625 -4.756581 0.000000 
0.656250 -3.301032 0.000000 
0.656250 -4.323220 0.000000 
0.671875 -2.712206 0.000000 
0.671875 -3.848607 0.000000 
0.687500 -2.050419 0.000000 
0.968750 0.000000 0.000000 
0.984375 0.000000 0.000000 
0.984375 0.000000 0.000000 
1.000000 0.000000 0.000000 
0.937500 0.000000 0.000000 
0.953125 0.000000 0.000000 
0.953125 0.000000 0.000000 
0.968750 0.000000 0.000000 
0.875000 0.000000 0.000000 
0.890625 0.000000 0.000000 
0.890625 0.000000 0.000000 
0.906250 0.000000 0.000000 
0.906250 0.000000 0.000000 
0.921875 0.000000 0.000000 
0.921875 0.000000 0.000000 
0.937500 0.000000 0.000000 
0.750000 0.000000 0.000000 
0.765625 0.000000 0.000000 
0.765625 0.000000 0.000000 
0.781250 0.000000 0.000000 
0.781250 0.000000 0.000000 
0.796875 0.000000 0.000000 
0.796875 0.000000 0.000000 
0.812500 0.000000 0.000000 
0.843750 0.000000 0.000000 
0.859375 0.000000 0.000000 
0.859375 0.000000 0.000000 
0.875000 0.000000 0.000000 
0.812500 0.000000 0.000000 
0.828125 0.000000 0.000000 
0.828125 0.000000 0.000000 
0.843750 0.000000 0.000000 

CELLS 64 192
2  0 1 
2  2 3 
2  4 5 
2  6 7 
2  8 9 
2  10 11 
2  12 13 
2  14 15 
2  16 17 
2  18 19 
2  20 21 
2  22 23 
2  24 25 
2  26 27 
2  28 29 
2  30 31 
2  32 33 
2  34 35 
2  36 37 
2  38 39 
2  40 41 
2  42 43 
2  44 45 
2  46 47 
2  48 49 
2  50 51 
2  52 53 
2  54 55 
2  56 57 
2  58 59 
2  60 61 
2  62 63 
2  64 65 
2  66 67 
2  68 69 
2  70 71 
2  72 73 
2  74 75 
2  76 77 
2  78 79 
2  80 81 
2  82 83 
2  84 85 
2  86 87 
2  88 89 
2  90 91 
2  92 93 
2  94 95 
2  96 97 
2  98 99 
2  100 101 
2  102 103 
2  104 105 
2  106 107 
2  108 109 
2  110 111 
2  112 113 
2  114 115 
2  116 117 
2  118 119 
2  120 121 
2  122 123 
2  124 125 
2  126 127 

CELL_TYPES 64
3
3
3
3
3
3
3
3
3
3
3
3
3
3
3
3
3
3
3
3
3
3
3
3
3
3
3
3
3
3
3
3
3
3
3
3
3
3
3
3
3
3
3
3
3
3
3
3
3
3
3
3
3
3
3
3
3
3
3
3
3
3
3
3

POINT_DATA 128

SCALARS lambda_h float 1
LOOKUP_TABLE default
0.000000 
0.000000 
0.000000 
0.000000 
0.000000 
0.000000 
0.000000 
0.000000 
0.000000 
0.000000 
0.000000 
0.000000 
0.000000 
0.000000 
0.000000 
0.000000 
0.000000 
0.000000 
0.000000 
0.000000 
0.000000 
0.000000 
0.000000 
0.000000 
0.000000 
0.000000 
0.000000 
0.000000 
0.000000 
0.000000 
0.000000 
0.000000 
-6.223590 
-6.451779 
-6.274524 
-6.578101 
-5.786803 
-6.354796 
-6.031277 
-6.433841 
-4.318549 
-5.488381 
-4.756187 
-5.782938 
-5.147512 
-6.027038 
-5.491591 
-6.218406 
0.000000 
0.000000 
0.888521 
-1.777042 
0.174257 
-3.014077 
-1.252783 
-3.348331 
-3.301032 
-4.756581 
-3.834303 
-5.145588 
-2.050419 
-3.848607 
-2.712206 
-4.323220 
-6.578101 
-6.274524 
-6.451779 
-6.223590 
-6.433841 
-6.031277 
-6.354796 
-5.786803 
-5.782938 
-4.756187 
-5.488381 
-4.318549 
-6.218406 
-5.491591 
-6.027038 
-5.147512 
-1.777042 
0.888521 
0.000000 
0.000000 
-3.348331 
-1.252783 
-3.014077 
0.174257 
-5.145588 
-3.834303 
-4.756581 
-3.301032 
-4.323220 
-2.712206 
-3.848607 
-2.050419 
0.000000 
0.000000 
0.000000 
0.000000 
0.000000 
0.000000 
0.000000 
0.000000 
0.000000 
0.000000 
0.000000 
0.000000 
0.000000 
0.000000 
0.000000 
0.000000 
0.000000 
0.000000 
0.000000 
0.000000 
0.000000 
0.000000 
0.000000 
0.000000 
0.000000 
0.000000 
0.000000 
0.000000 
0.000000 
0.000000 
0.000000 
0.000000 

