# vtk DataFile Version 2.0
Unstructured Grid Example
ASCII
DATASET UNSTRUCTURED_GRID

POINTS 81 float
0.011251 -0.179375 0.000000 
0.988749 -0.179375 0.000000 
1.000000 1.000000 0.000000 
0.000000 1.000000 0.000000 
0.500000 -0.097584 0.000000 
0.976977 0.371155 0.000000 
0.500000 1.000000 0.000000 
0.023023 0.371155 0.000000 
0.500000 0.372813 0.000000 
0.259226 -0.151678 0.000000 
0.500000 0.119254 0.000000 
0.247466 0.097564 0.000000 
0.740774 -0.151678 0.000000 
0.752534 0.097564 0.000000 
0.994777 0.086804 0.000000 
0.741208 0.368606 0.000000 
0.961354 0.667159 0.000000 
0.733291 0.671166 0.000000 
0.750000 1.000000 0.000000 
0.500000 0.674255 0.000000 
0.250000 1.000000 0.000000 
0.266709 0.671166 0.000000 
0.038646 0.667159 0.000000 
0.258792 0.368606 0.000000 
0.005223 0.086804 0.000000 
0.135546 -0.170392 0.000000 
0.248219 -0.029068 0.000000 
0.126208 -0.043584 0.000000 
0.500000 0.007157 0.000000 
0.371471 -0.004650 0.000000 
0.379592 -0.112083 0.000000 
0.374441 0.237736 0.000000 
0.371635 0.112194 0.000000 
0.500000 0.241063 0.000000 
0.620408 -0.112083 0.000000 
0.628529 -0.004650 0.000000 
0.873792 -0.043584 0.000000 
0.751781 -0.029068 0.000000 
0.864454 -0.170392 0.000000 
0.628365 0.112194 0.000000 
0.625559 0.237736 0.000000 
0.995945 -0.049331 0.000000 
0.874305 0.087959 0.000000 
0.859452 0.366203 0.000000 
0.868519 0.224374 0.000000 
0.987303 0.227158 0.000000 
0.748116 0.229575 0.000000 
0.621520 0.372899 0.000000 
0.967550 0.516562 0.000000 
0.851414 0.513625 0.000000 
0.854018 0.833133 0.000000 
0.847393 0.668596 0.000000 
0.964384 0.825090 0.000000 
0.735300 0.515489 0.000000 
0.617931 0.518078 0.000000 
0.875000 1.000000 0.000000 
0.737738 0.834218 0.000000 
0.500000 0.835666 0.000000 
0.619329 0.834741 0.000000 
0.625000 1.000000 0.000000 
0.617128 0.672916 0.000000 
0.500000 0.519226 0.000000 
0.375000 1.000000 0.000000 
0.380671 0.834741 0.000000 
0.145982 0.833133 0.000000 
0.262262 0.834218 0.000000 
0.125000 1.000000 0.000000 
0.382872 0.672916 0.000000 
0.382069 0.518078 0.000000 
0.035616 0.825090 0.000000 
0.152607 0.668596 0.000000 
0.140548 0.366203 0.000000 
0.148586 0.513625 0.000000 
0.032450 0.516562 0.000000 
0.264700 0.515489 0.000000 
0.378480 0.372899 0.000000 
0.012697 0.227158 0.000000 
0.131481 0.224374 0.000000 
0.125695 0.087959 0.000000 
0.004055 -0.049331 0.000000 
0.251884 0.229575 0.000000 

CELLS 128 512
3  0 25 27 
3  9 26 25 
3  11 27 26 
3  25 26 27 
3  4 28 30 
3  10 29 28 
3  9 30 29 
3  28 29 30 
3  8 31 33 
3  11 32 31 
3  10 33 32 
3  31 32 33 
3  9 29 26 
3  10 32 29 
3  11 26 32 
3  29 32 26 
3  4 34 28 
3  12 35 34 
3  10 28 35 
3  34 35 28 
3  1 36 38 
3  13 37 36 
3  12 38 37 
3  36 37 38 
3  8 33 40 
3  10 39 33 
3  13 40 39 
3  33 39 40 
3  12 37 35 
3  13 39 37 
3  10 35 39 
3  37 39 35 
3  1 41 36 
3  14 42 41 
3  13 36 42 
3  41 42 36 
3  5 43 45 
3  15 44 43 
3  14 45 44 
3  43 44 45 
3  8 40 47 
3  13 46 40 
3  15 47 46 
3  40 46 47 
3  14 44 42 
3  15 46 44 
3  13 42 46 
3  44 46 42 
3  5 48 43 
3  16 49 48 
3  15 43 49 
3  48 49 43 
3  2 50 52 
3  17 51 50 
3  16 52 51 
3  50 51 52 
3  8 47 54 
3  15 53 47 
3  17 54 53 
3  47 53 54 
3  16 51 49 
3  17 53 51 
3  15 49 53 
3  51 53 49 
3  2 55 50 
3  18 56 55 
3  17 50 56 
3  55 56 50 
3  6 57 59 
3  19 58 57 
3  18 59 58 
3  57 58 59 
3  8 54 61 
3  17 60 54 
3  19 61 60 
3  54 60 61 
3  18 58 56 
3  19 60 58 
3  17 56 60 
3  58 60 56 
3  6 62 57 
3  20 63 62 
3  19 57 63 
3  62 63 57 
3  3 64 66 
3  21 65 64 
3  20 66 65 
3  64 65 66 
3  8 61 68 
3  19 67 61 
3  21 68 67 
3  61 67 68 
3  20 65 63 
3  21 67 65 
3  19 63 67 
3  65 67 63 
3  3 69 64 
3  22 70 69 
3  21 64 70 
3  69 70 64 
3  7 71 73 
3  23 72 71 
3  22 73 72 
3  71 72 73 
3  8 68 75 
3  21 74 68 
3  23 75 74 
3  68 74 75 
3  22 72 70 
3  23 74 72 
3  21 70 74 
3  72 74 70 
3  7 76 71 
3  24 77 76 
3  23 71 77 
3  76 77 71 
3  0 27 79 
3  11 78 27 
3  24 79 78 
3  27 78 79 
3  8 75 31 
3  23 80 75 
3  11 31 80 
3  75 80 31 
3  24 78 77 
3  11 80 78 
3  23 77 80 
3  78 80 77 

CELL_TYPES 128
5
5
5
5
5
5
5
5
5
5
5
5
5
5
5
5
5
5
5
5
5
5
5
5
5
5
5
5
5
5
5
5
5
5
5
5
5
5
5
5
5
5
5
5
5
5
5
5
5
5
5
5
5
5
5
5
5
5
5
5
5
5
5
5
5
5
5
5
5
5
5
5
5
5
5
5
5
5
5
5
5
5
5
5
5
5
5
5
5
5
5
5
5
5
5
5
5
5
5
5
5
5
5
5
5
5
5
5
5
5
5
5
5
5
5
5
5
5
5
5
5
5
5
5
5
5
5
5

POINT_DATA 81

SCALARS u_h float 2
LOOKUP_TABLE default
0.011251 -0.179375 
-0.011251 -0.179375 
0.000000 0.000000 
0.000000 0.000000 
0.000000 -0.097584 
-0.023023 -0.128845 
0.000000 0.000000 
0.023023 -0.128845 
0.000000 -0.127187 
0.009226 -0.151678 
0.000000 -0.130746 
-0.002534 -0.152436 
-0.009226 -0.151678 
0.002534 -0.152436 
-0.005223 -0.163196 
-0.008792 -0.131394 
-0.038646 -0.082841 
-0.016709 -0.078834 
0.000000 0.000000 
0.000000 -0.075745 
0.000000 0.000000 
0.016709 -0.078834 
0.038646 -0.082841 
0.008792 -0.131394 
0.005223 -0.163196 
0.010546 -0.170392 
-0.001781 -0.154068 
0.001208 -0.168584 
0.000000 -0.117843 
-0.003529 -0.129650 
0.004592 -0.112083 
-0.000559 -0.137264 
-0.003365 -0.137806 
0.000000 -0.133937 
-0.004592 -0.112083 
0.003529 -0.129650 
-0.001208 -0.168584 
0.001781 -0.154068 
-0.010546 -0.170392 
0.003365 -0.137806 
0.000559 -0.137264 
-0.004055 -0.174331 
-0.000695 -0.162041 
-0.015548 -0.133797 
-0.006481 -0.150626 
-0.012697 -0.147842 
-0.001884 -0.145425 
-0.003480 -0.127101 
-0.032450 -0.108438 
-0.023586 -0.111375 
-0.020982 -0.041867 
-0.027607 -0.081404 
-0.035616 -0.049910 
-0.014700 -0.109511 
-0.007069 -0.106922 
0.000000 0.000000 
-0.012262 -0.040782 
0.000000 -0.039334 
-0.005671 -0.040259 
0.000000 0.000000 
-0.007872 -0.077084 
0.000000 -0.105774 
0.000000 0.000000 
0.005671 -0.040259 
0.020982 -0.041867 
0.012262 -0.040782 
0.000000 0.000000 
0.007872 -0.077084 
0.007069 -0.106922 
0.035616 -0.049910 
0.027607 -0.081404 
0.015548 -0.133797 
0.023586 -0.111375 
0.032450 -0.108438 
0.014700 -0.109511 
0.003480 -0.127101 
0.012697 -0.147842 
0.006481 -0.150626 
0.000695 -0.162041 
0.004055 -0.174331 
0.001884 -0.145425 

CELL_DATA 128

SCALARS epsilon float 4
LOOKUP_TABLE default
0.002367 0.022172 0.000000 -0.002129
0.006883 0.005770 0.000000 0.031817
-0.023466 0.020560 0.000000 0.054199
-0.012675 0.029833 0.000000 0.018977
-0.037406 -0.164394 0.000000 0.069114
0.027832 -0.103236 0.000000 0.052621
-0.010288 -0.056398 0.000000 0.151131
0.037410 -0.137770 0.000000 0.024057
0.004459 0.052868 0.000000 0.012626
-0.009055 0.008604 0.000000 0.069565
0.026560 -0.024261 0.000000 0.028958
0.004114 0.004080 0.000000 0.024427
0.007545 0.018017 0.000000 0.054923
0.026484 -0.065715 0.000000 0.030823
-0.005954 0.020421 0.000000 0.054732
-0.014360 -0.045173 0.000000 0.105129
-0.037406 -0.164394 0.000000 -0.069114
-0.010288 -0.056398 0.000000 -0.151131
0.027832 -0.103236 0.000000 -0.052621
0.037410 -0.137770 0.000000 -0.024057
0.002367 0.022172 0.000000 0.002129
-0.023466 0.020560 0.000000 -0.054199
0.006883 0.005770 0.000000 -0.031817
-0.012675 0.029833 0.000000 -0.018977
0.004459 0.052868 0.000000 -0.012626
0.026560 -0.024261 0.000000 -0.028958
-0.009055 0.008604 0.000000 -0.069565
0.004114 0.004080 0.000000 -0.024427
0.007545 0.018017 0.000000 -0.054923
-0.005954 0.020421 0.000000 -0.054732
0.026484 -0.065715 0.000000 -0.030823
-0.014360 -0.045173 0.000000 -0.105129
-0.018848 0.043154 0.000000 0.007318
-0.036922 0.085091 0.000000 -0.009052
-0.025853 0.054092 0.000000 -0.034384
-0.022850 0.052160 0.000000 -0.019738
-0.055684 0.144253 0.000000 -0.026000
-0.054510 0.124574 0.000000 -0.046253
-0.048153 0.116833 0.000000 -0.021183
-0.047214 0.127384 0.000000 -0.027824
-0.027732 0.078039 0.000000 -0.016206
-0.021378 0.054293 0.000000 -0.048872
-0.043828 0.104766 0.000000 -0.043978
-0.021258 0.077941 0.000000 -0.046560
-0.036316 0.086813 0.000000 -0.028075
-0.038260 0.104640 0.000000 -0.047080
-0.028216 0.054689 0.000000 -0.054443
-0.038309 0.086143 0.000000 -0.042899
-0.056498 0.153519 0.000000 -0.022323
-0.071399 0.185646 0.000000 -0.016200
-0.054944 0.162727 0.000000 -0.041335
-0.070324 0.165236 0.000000 -0.023886
-0.083477 0.340860 0.000000 0.124553
-0.089078 0.270164 0.000000 0.019604
-0.091710 0.230536 0.000000 0.008208
-0.119887 0.273447 0.000000 0.004215
-0.027884 0.148676 0.000000 -0.014191
-0.043955 0.159135 0.000000 -0.038725
-0.063089 0.216354 0.000000 -0.016510
-0.063096 0.148304 0.000000 -0.023880
-0.092090 0.211837 0.000000 -0.021577
-0.091135 0.216355 0.000000 -0.016642
-0.073300 0.159542 0.000000 -0.031188
-0.073620 0.211783 0.000000 -0.022649
0.007906 0.282375 0.000000 0.078646
0.002735 0.276255 0.000000 0.046079
-0.071501 0.260872 0.000000 0.014773
-0.061903 0.283498 0.000000 0.081271
0.000000 0.267997 0.000000 -0.000000
-0.046392 0.251043 0.000000 -0.002860
0.000589 0.273284 0.000000 0.021336
-0.045481 0.273551 0.000000 0.019555
-0.058149 0.156975 0.000000 -0.003904
-0.073242 0.211267 0.000000 -0.008947
-0.064953 0.212504 0.000000 -0.004300
-0.058184 0.211251 0.000000 -0.006969
-0.050743 0.276568 0.000000 0.047065
-0.064693 0.253641 0.000000 0.004793
-0.072341 0.261061 0.000000 0.012762
-0.053952 0.253517 0.000000 0.007204
0.000000 0.267997 0.000000 -0.000000
0.000589 0.273284 0.000000 -0.021336
-0.046392 0.251043 0.000000 0.002860
-0.045481 0.273551 0.000000 -0.019555
0.007906 0.282375 0.000000 -0.078646
-0.071501 0.260872 0.000000 -0.014773
0.002735 0.276255 0.000000 -0.046079
-0.061903 0.283498 0.000000 -0.081271
-0.058149 0.156975 0.000000 0.003904
-0.064953 0.212504 0.000000 0.004300
-0.073242 0.211267 0.000000 0.008947
-0.058184 0.211251 0.000000 0.006969
-0.050743 0.276568 0.000000 -0.047065
-0.072341 0.261061 0.000000 -0.012762
-0.064693 0.253641 0.000000 -0.004793
-0.053952 0.253517 0.000000 -0.007204
-0.083477 0.340860 0.000000 -0.124553
-0.091710 0.230536 0.000000 -0.008208
-0.089078 0.270164 0.000000 -0.019604
-0.119887 0.273447 0.000000 -0.004215
-0.056498 0.153519 0.000000 0.022323
-0.054944 0.162727 0.000000 0.041335
-0.071399 0.185646 0.000000 0.016200
-0.070324 0.165236 0.000000 0.023886
-0.027884 0.148676 0.000000 0.014191
-0.063089 0.216354 0.000000 0.016510
-0.043955 0.159135 0.000000 0.038725
-0.063096 0.148304 0.000000 0.023880
-0.092090 0.211837 0.000000 0.021577
-0.073300 0.159542 0.000000 0.031188
-0.091135 0.216355 0.000000 0.016642
-0.073620 0.211783 0.000000 0.022649
-0.055684 0.144253 0.000000 0.026000
-0.048153 0.116833 0.000000 0.021183
-0.054510 0.124574 0.000000 0.046253
-0.047214 0.127384 0.000000 0.027824
-0.018848 0.043154 0.000000 -0.007318
-0.025853 0.054092 0.000000 0.034384
-0.036922 0.085091 0.000000 0.009052
-0.022850 0.052160 0.000000 0.019738
-0.027732 0.078039 0.000000 0.016206
-0.043828 0.104766 0.000000 0.043978
-0.021378 0.054293 0.000000 0.048872
-0.021258 0.077941 0.000000 0.046560
-0.036316 0.086813 0.000000 0.028075
-0.028216 0.054689 0.000000 0.054443
-0.038260 0.104640 0.000000 0.047080
-0.038309 0.086143 0.000000 0.042899

SCALARS sigma float 4
LOOKUP_TABLE default
0.281312 0.597691 0.246354 0.009111
0.262588 0.121569 0.107075 0.531161
-0.488219 0.130996 -0.097458 0.911324
-0.028498 0.590632 0.156817 0.361022
-2.707247 -6.020486 -1.990551 1.178400
-0.399462 -2.990167 -0.866880 0.839930
-1.040684 -3.328983 -1.112068 2.253568
-0.451088 -4.011944 -1.118258 0.098293
0.645042 1.366610 0.574788 0.206148
-0.280421 -0.097301 -0.102852 1.153853
0.417951 -0.442249 -0.006670 0.462784
0.128504 0.126318 0.070341 0.396258
0.394040 0.310384 0.198000 0.925226
-0.012218 -1.669665 -0.446126 0.494841
-0.010063 0.307882 0.082329 0.904861
-1.057178 -2.060177 -0.803401 1.752386
-2.707247 -6.020486 -1.990551 -1.178400
-1.040684 -3.328983 -1.112068 -2.253568
-0.399462 -2.990167 -0.866880 -0.839930
-0.451088 -4.011944 -1.118258 -0.098293
0.281312 0.597691 0.246354 -0.009111
-0.488219 0.130996 -0.097458 -0.911324
0.262588 0.121569 0.107075 -0.531161
-0.028498 0.590632 0.156817 -0.361022
0.645042 1.366610 0.574788 -0.206148
0.417951 -0.442249 -0.006670 -0.462784
-0.280421 -0.097301 -0.102852 -1.153853
0.128504 0.126318 0.070341 -0.396258
0.394040 0.310384 0.198000 -0.925226
-0.010063 0.307882 0.082329 -0.904861
-0.012218 -1.669665 -0.446126 -0.494841
-1.057178 -2.060177 -0.803401 -1.752386
-0.091562 0.899496 0.225721 0.070675
-0.196955 1.674640 0.417217 -0.138775
-0.196133 1.023012 0.230785 -0.583278
-0.114663 1.049517 0.261477 -0.335655
-0.244441 2.719874 0.711521 -0.233713
-0.444324 2.285043 0.522047 -0.641455
-0.254628 2.238834 0.565309 -0.234038
-0.142810 2.465549 0.665935 -0.306247
-0.008089 1.613191 0.454537 -0.222578
-0.121477 1.045759 0.258166 -0.783110
-0.287766 1.979493 0.478865 -0.648331
0.122902 1.605715 0.490338 -0.730602
-0.195661 1.704367 0.426144 -0.400623
-0.129857 2.027726 0.539405 -0.695392
-0.327802 0.956750 0.174596 -0.885801
-0.293654 1.628641 0.375536 -0.658081
-0.171897 2.897463 0.786767 -0.177634
-0.333688 3.347519 0.872124 -0.127163
-0.074628 3.061606 0.864844 -0.532265
-0.505174 2.965698 0.705308 -0.235567
-0.036695 5.655644 1.694485 0.856840
-0.166013 4.637274 1.321868 0.129378
-0.600208 3.926037 0.964060 0.057572
-1.247888 4.310668 0.879590 -0.145714
0.677873 3.124948 1.120978 -0.157771
0.249507 3.115294 0.981916 -0.528282
0.231608 4.009209 1.254207 -0.230712
-0.417918 2.704539 0.653523 -0.342859
-0.798560 3.578199 0.797992 -0.279121
-0.714108 3.673159 0.852314 -0.244393
-0.663958 2.803635 0.609075 -0.422637
-0.169656 3.796148 1.059531 -0.287488
2.823754 5.959477 2.823754 0.540429
2.762554 5.853254 2.762554 0.322770
0.365145 4.698083 1.516296 0.112992
0.619070 5.102409 1.732860 0.695207
2.679967 5.708719 2.679967 -0.000000
1.105115 4.838705 1.813422 -0.049239
2.732839 5.801409 2.732839 0.150849
1.331779 5.234949 2.024235 0.139156
-0.157702 2.948069 0.805394 -0.068101
-0.143615 3.800239 1.069182 -0.135864
0.143489 3.923464 1.199079 -0.075593
0.350141 3.980684 1.283866 -0.098311
1.114138 5.191819 1.933268 0.388081
0.534741 4.659717 1.560840 0.011737
0.340538 4.692058 1.506241 0.077492
0.883973 4.788915 1.721055 0.052274
2.679967 5.708719 2.679967 -0.000000
2.732839 5.801409 2.732839 -0.150849
1.105115 4.838705 1.813422 0.049239
1.331779 5.234949 2.024235 -0.139156
2.823754 5.959477 2.823754 -0.540429
0.365145 4.698083 1.516296 -0.112992
2.762554 5.853254 2.762554 -0.322770
0.619070 5.102409 1.732860 -0.695207
-0.157702 2.948069 0.805394 0.068101
0.143489 3.923464 1.199079 0.075593
-0.143615 3.800239 1.069182 0.135864
0.350141 3.980684 1.283866 0.098311
1.114138 5.191819 1.933268 -0.388081
0.340538 4.692058 1.506241 -0.077492
0.534741 4.659717 1.560840 -0.011737
0.883973 4.788915 1.721055 -0.052274
-0.036695 5.655644 1.694485 -0.856840
-0.600208 3.926037 0.964060 -0.057572
-0.166013 4.637274 1.321868 -0.129378
-1.247888 4.310668 0.879590 0.145714
-0.171897 2.897463 0.786767 0.177634
-0.074628 3.061606 0.864844 0.532265
-0.333688 3.347519 0.872124 0.127163
-0.505174 2.965698 0.705308 0.235567
0.677873 3.124948 1.120978 0.157771
0.231608 4.009209 1.254207 0.230712
0.249507 3.115294 0.981916 0.528282
-0.417918 2.704539 0.653523 0.342859
-0.798560 3.578199 0.797992 0.279121
-0.663958 2.803635 0.609075 0.422637
-0.714108 3.673159 0.852314 0.244393
-0.169656 3.796148 1.059531 0.287488
-0.244441 2.719874 0.711521 0.233713
-0.254628 2.238834 0.565309 0.234038
-0.444324 2.285043 0.522047 0.641455
-0.142810 2.465549 0.665935 0.306247
-0.091562 0.899496 0.225721 -0.070675
-0.196133 1.023012 0.230785 0.583278
-0.196955 1.674640 0.417217 0.138775
-0.114663 1.049517 0.261477 0.335655
-0.008089 1.613191 0.454537 0.222578
-0.287766 1.979493 0.478865 0.648331
-0.121477 1.045759 0.258166 0.783110
0.122902 1.605715 0.490338 0.730602
-0.195661 1.704367 0.426144 0.400623
-0.327802 0.956750 0.174596 0.885801
-0.129857 2.027726 0.539405 0.695392
-0.293654 1.628641 0.375536 0.658081

