# vtk DataFile Version 2.0
Unstructured Grid Example
ASCII
DATASET UNSTRUCTURED_GRID

POINTS 16641 float
0.012090 -0.183272 0.000000 
0.987910 -0.183272 0.000000 
1.000000 1.000000 0.000000 
0.000000 1.000000 0.000000 
0.500000 -0.099990 0.000000 
0.977880 0.369397 0.000000 
0.500000 1.000000 0.000000 
0.022120 0.369397 0.000000 
0.500000 0.371572 0.000000 
0.263892 -0.153038 0.000000 
0.500000 0.115004 0.000000 
0.246102 0.096405 0.000000 
0.736108 -0.153038 0.000000 
0.753898 0.096405 0.000000 
0.995971 0.083810 0.000000 
0.741842 0.365863 0.000000 
0.959064 0.667195 0.000000 
0.731948 0.668730 0.000000 
0.750000 1.000000 0.000000 
0.500000 0.671079 0.000000 
0.250000 1.000000 0.000000 
0.268052 0.668730 0.000000 
0.040936 0.667195 0.000000 
0.258158 0.365863 0.000000 
0.004029 0.083810 0.000000 
0.137720 -0.174177 0.000000 
0.247088 -0.029729 0.000000 
0.126505 -0.046697 0.000000 
0.500000 0.002803 0.000000 
0.371108 -0.006980 0.000000 
0.379093 -0.114609 0.000000 
0.374518 0.234652 0.000000 
0.371374 0.109292 0.000000 
0.500000 0.237824 0.000000 
0.620907 -0.114609 0.000000 
0.628892 -0.006980 0.000000 
0.873495 -0.046697 0.000000 
0.752912 -0.029729 0.000000 
0.862280 -0.174177 0.000000 
0.628626 0.109292 0.000000 
0.625482 0.234652 0.000000 
0.995084 -0.053937 0.000000 
0.875736 0.085796 0.000000 
0.860551 0.363781 0.000000 
0.870032 0.222296 0.000000 
0.988975 0.225454 0.000000 
0.748999 0.227549 0.000000 
0.621515 0.369800 0.000000 
0.966629 0.516269 0.000000 
0.851094 0.511473 0.000000 
0.850488 0.830989 0.000000 
0.845597 0.666751 0.000000 
0.961184 0.823577 0.000000 
0.735157 0.512723 0.000000 
0.618056 0.515193 0.000000 
0.875000 1.000000 0.000000 
0.736128 0.832796 0.000000 
0.500000 0.833567 0.000000 
0.618736 0.833378 0.000000 
0.625000 1.000000 0.000000 
0.616587 0.670425 0.000000 
0.500000 0.516297 0.000000 
0.375000 1.000000 0.000000 
0.381264 0.833378 0.000000 
0.149512 0.830989 0.000000 
0.263872 0.832796 0.000000 
0.125000 1.000000 0.000000 
0.383413 0.670425 0.000000 
0.381944 0.515193 0.000000 
0.038816 0.823577 0.000000 
0.154403 0.666751 0.000000 
0.139449 0.363781 0.000000 
0.148906 0.511473 0.000000 
0.033371 0.516269 0.000000 
0.264843 0.512723 0.000000 
0.378485 0.369800 0.000000 
0.011025 0.225454 0.000000 
0.129968 0.222296 0.000000 
0.124264 0.085796 0.000000 
0.004916 -0.053937 0.000000 
0.251001 0.227549 0.000000 
0.074572 -0.179299 0.000000 
0.131365 -0.111321 0.000000 
0.069849 -0.116135 0.000000 
0.252075 -0.091768 0.000000 
0.192268 -0.103735 0.000000 
0.201239 -0.166193 0.000000 
0.184653 0.024903 0.000000 
0.186843 -0.039750 0.000000 
0.245536 0.032878 0.000000 
0.500000 -0.049637 0.000000 
0.436407 -0.052750 0.000000 
0.438893 -0.103725 0.000000 
0.435032 0.055642 0.000000 
0.435226 0.000274 0.000000 
0.500000 0.057618 0.000000 
0.321453 -0.131871 0.000000 
0.373538 -0.061810 0.000000 
0.311967 -0.075889 0.000000 
0.438131 0.302708 0.000000 
0.437113 0.236990 0.000000 
0.500000 0.303330 0.000000 
0.308208 0.103181 0.000000 
0.372751 0.170795 0.000000 
0.310006 0.166246 0.000000 
0.500000 0.175057 0.000000 
0.436182 0.173937 0.000000 
0.435437 0.113505 0.000000 
0.308283 -0.017805 0.000000 
0.370668 0.050053 0.000000 
0.307430 0.041887 0.000000 
0.561107 -0.103725 0.000000 
0.563593 -0.052750 0.000000 
0.688033 -0.075889 0.000000 
0.626462 -0.061810 0.000000 
0.678547 -0.131871 0.000000 
0.564774 0.000274 0.000000 
0.564968 0.055642 0.000000 
0.930151 -0.116135 0.000000 
0.868635 -0.111321 0.000000 
0.925428 -0.179299 0.000000 
0.754464 0.032878 0.000000 
0.813157 -0.039750 0.000000 
0.815347 0.024903 0.000000 
0.798761 -0.166193 0.000000 
0.807732 -0.103735 0.000000 
0.747925 -0.091768 0.000000 
0.562887 0.236990 0.000000 
0.561869 0.302708 0.000000 
0.564563 0.113505 0.000000 
0.563818 0.173937 0.000000 
0.689994 0.166246 0.000000 
0.627249 0.170795 0.000000 
0.691792 0.103181 0.000000 
0.691717 -0.017805 0.000000 
0.692570 0.041887 0.000000 
0.629332 0.050053 0.000000 
0.991767 -0.119839 0.000000 
0.934233 -0.051067 0.000000 
0.936049 0.083514 0.000000 
0.936319 0.015592 0.000000 
0.996643 0.014190 0.000000 
0.875843 0.019077 0.000000 
0.815099 0.090279 0.000000 
0.919365 0.365196 0.000000 
0.924813 0.293274 0.000000 
0.983680 0.297116 0.000000 
0.805765 0.293422 0.000000 
0.865514 0.292341 0.000000 
0.801392 0.364263 0.000000 
0.993254 0.154331 0.000000 
0.929759 0.222396 0.000000 
0.933691 0.152480 0.000000 
0.623517 0.300961 0.000000 
0.560844 0.371124 0.000000 
0.751917 0.161196 0.000000 
0.687559 0.231275 0.000000 
0.681875 0.367899 0.000000 
0.684770 0.298445 0.000000 
0.745527 0.295707 0.000000 
0.873617 0.153495 0.000000 
0.809800 0.224283 0.000000 
0.813069 0.156647 0.000000 
0.972050 0.442389 0.000000 
0.913891 0.438289 0.000000 
0.904720 0.588630 0.000000 
0.908843 0.512706 0.000000 
0.962103 0.591159 0.000000 
0.855596 0.436770 0.000000 
0.797081 0.436975 0.000000 
0.916805 0.913825 0.000000 
0.905987 0.828337 0.000000 
0.970164 0.905262 0.000000 
0.788955 0.667696 0.000000 
0.846143 0.747712 0.000000 
0.789826 0.749009 0.000000 
0.958328 0.744554 0.000000 
0.902068 0.746022 0.000000 
0.902155 0.666292 0.000000 
0.619636 0.441212 0.000000 
0.559890 0.442238 0.000000 
0.738270 0.438166 0.000000 
0.679119 0.439738 0.000000 
0.675105 0.590699 0.000000 
0.676763 0.514011 0.000000 
0.732895 0.589589 0.000000 
0.847548 0.588068 0.000000 
0.790341 0.588585 0.000000 
0.793242 0.511706 0.000000 
0.937500 1.000000 0.000000 
0.860167 0.915873 0.000000 
0.741986 0.916461 0.000000 
0.801549 0.916344 0.000000 
0.812500 1.000000 0.000000 
0.793819 0.832198 0.000000 
0.732855 0.749952 0.000000 
0.500000 0.916531 0.000000 
0.560765 0.916524 0.000000 
0.562500 1.000000 0.000000 
0.558652 0.751468 0.000000 
0.559449 0.833516 0.000000 
0.500000 0.751578 0.000000 
0.687500 1.000000 0.000000 
0.621427 0.916512 0.000000 
0.681878 0.916495 0.000000 
0.559097 0.516007 0.000000 
0.500000 0.442603 0.000000 
0.674481 0.669674 0.000000 
0.616968 0.591661 0.000000 
0.500000 0.592534 0.000000 
0.558558 0.592306 0.000000 
0.558377 0.670909 0.000000 
0.677691 0.833149 0.000000 
0.617126 0.751156 0.000000 
0.675246 0.750652 0.000000 
0.437500 1.000000 0.000000 
0.439235 0.916524 0.000000 
0.318122 0.916495 0.000000 
0.378573 0.916512 0.000000 
0.312500 1.000000 0.000000 
0.440551 0.833516 0.000000 
0.441348 0.751468 0.000000 
0.083195 0.913825 0.000000 
0.139833 0.915873 0.000000 
0.062500 1.000000 0.000000 
0.267145 0.749952 0.000000 
0.206181 0.832198 0.000000 
0.210174 0.749009 0.000000 
0.187500 1.000000 0.000000 
0.198451 0.916344 0.000000 
0.258014 0.916461 0.000000 
0.440903 0.516007 0.000000 
0.440110 0.442238 0.000000 
0.441623 0.670909 0.000000 
0.441442 0.592306 0.000000 
0.324895 0.590699 0.000000 
0.383032 0.591661 0.000000 
0.325519 0.669674 0.000000 
0.322309 0.833149 0.000000 
0.324754 0.750652 0.000000 
0.382874 0.751156 0.000000 
0.029836 0.905262 0.000000 
0.094013 0.828337 0.000000 
0.097845 0.666292 0.000000 
0.097932 0.746022 0.000000 
0.041672 0.744554 0.000000 
0.153857 0.747712 0.000000 
0.211045 0.667696 0.000000 
0.080635 0.365196 0.000000 
0.086109 0.438289 0.000000 
0.027950 0.442389 0.000000 
0.202919 0.436975 0.000000 
0.144404 0.436770 0.000000 
0.198608 0.364263 0.000000 
0.037897 0.591159 0.000000 
0.091157 0.512706 0.000000 
0.095280 0.588630 0.000000 
0.380364 0.441212 0.000000 
0.439156 0.371124 0.000000 
0.267105 0.589589 0.000000 
0.323237 0.514011 0.000000 
0.318125 0.367899 0.000000 
0.320881 0.439738 0.000000 
0.261730 0.438166 0.000000 
0.152452 0.588068 0.000000 
0.206758 0.511706 0.000000 
0.209659 0.588585 0.000000 
0.016320 0.297116 0.000000 
0.075187 0.293274 0.000000 
0.066309 0.152480 0.000000 
0.070241 0.222396 0.000000 
0.006746 0.154331 0.000000 
0.134486 0.292341 0.000000 
0.194235 0.293422 0.000000 
0.065767 -0.051067 0.000000 
0.008233 -0.119839 0.000000 
0.184901 0.090279 0.000000 
0.124157 0.019077 0.000000 
0.003357 0.014190 0.000000 
0.063681 0.015592 0.000000 
0.063951 0.083514 0.000000 
0.376483 0.300961 0.000000 
0.254473 0.295707 0.000000 
0.315230 0.298445 0.000000 
0.312441 0.231275 0.000000 
0.248083 0.161196 0.000000 
0.126383 0.153495 0.000000 
0.186931 0.156647 0.000000 
0.190200 0.224283 0.000000 
0.043268 -0.181329 0.000000 
0.072260 -0.147965 0.000000 
0.041189 -0.149926 0.000000 
0.134492 -0.143020 0.000000 
0.103375 -0.145735 0.000000 
0.106062 -0.176986 0.000000 
0.098183 -0.081756 0.000000 
0.100648 -0.113974 0.000000 
0.128647 -0.079182 0.000000 
0.256750 -0.122618 0.000000 
0.226860 -0.129732 0.000000 
0.232823 -0.160481 0.000000 
0.219082 -0.066809 0.000000 
0.222307 -0.098389 0.000000 
0.249021 -0.060801 0.000000 
0.169481 -0.170658 0.000000 
0.196383 -0.135270 0.000000 
0.165535 -0.139607 0.000000 
0.214969 0.060812 0.000000 
0.215008 0.028667 0.000000 
0.245606 0.064504 0.000000 
0.156723 -0.043598 0.000000 
0.185397 -0.007500 0.000000 
0.155215 -0.011049 0.000000 
0.245988 0.001483 0.000000 
0.215620 -0.003292 0.000000 
0.216925 -0.035107 0.000000 
0.161932 -0.107975 0.000000 
0.189099 -0.071846 0.000000 
0.158961 -0.075930 0.000000 
0.500000 -0.075057 0.000000 
0.468681 -0.075916 0.000000 
0.469361 -0.100929 0.000000 
0.467791 -0.024408 0.000000 
0.468156 -0.050422 0.000000 
0.500000 -0.023697 0.000000 
0.408759 -0.108316 0.000000 
0.437484 -0.078469 0.000000 
0.406520 -0.082666 0.000000 
0.467554 0.085545 0.000000 
0.467477 0.057118 0.000000 
0.500000 0.085982 0.000000 
0.403044 -0.002810 0.000000 
0.435032 0.027653 0.000000 
0.402748 0.024927 0.000000 
0.500000 0.029898 0.000000 
0.467476 0.029331 0.000000 
0.467572 0.002164 0.000000 
0.293346 -0.142698 0.000000 
0.315664 -0.104183 0.000000 
0.286112 -0.113665 0.000000 
0.375871 -0.088427 0.000000 
0.345584 -0.095647 0.000000 
0.349983 -0.122496 0.000000 
0.340624 -0.040458 0.000000 
0.342557 -0.068326 0.000000 
0.372003 -0.034670 0.000000 
0.435667 -0.026517 0.000000 
0.403711 -0.029970 0.000000 
0.404843 -0.056574 0.000000 
[...]
POINT_DATA 16641

SCALARS u_h float 2
LOOKUP_TABLE default
0.012090 -0.183272 
-0.012090 -0.183272 
0.000000 0.000000 
0.000000 0.000000 
-0.000000 -0.099990 
-0.022120 -0.130603 
0.000000 0.000000 
0.022120 -0.130603 
-0.000000 -0.128428 
0.013892 -0.153038 
-0.000000 -0.134996 
-0.003898 -0.153595 
-0.013892 -0.153038 
0.003898 -0.153595 
-0.004029 -0.166190 
-0.008158 -0.134137 
-0.040936 -0.082805 
-0.018052 -0.081270 
0.000000 0.000000 
-0.000000 -0.078921 
0.000000 0.000000 
0.018052 -0.081270 
0.040936 -0.082805 
0.008158 -0.134137 
0.004029 -0.166190 
0.012720 -0.174177 
-0.002912 -0.154729 
0.001505 -0.171697 
-0.000000 -0.122197 
-0.003892 -0.131980 
0.004093 -0.114609 
-0.000482 -0.140348 
-0.003626 -0.140708 
-0.000000 -0.137176 
-0.004093 -0.114609 
0.003892 -0.131980 
-0.001505 -0.171697 
0.002912 -0.154729 
-0.012720 -0.174177 
0.003626 -0.140708 
0.000482 -0.140348 
-0.004916 -0.178937 
0.000736 -0.164204 
-0.014449 -0.136219 
-0.004968 -0.152704 
-0.011025 -0.149546 
-0.001001 -0.147451 
-0.003485 -0.130200 
-0.033371 -0.108731 
-0.023906 -0.113527 
-0.024512 -0.044011 
-0.029403 -0.083249 
-0.038816 -0.051423 
-0.014843 -0.112277 
-0.006944 -0.109807 
0.000000 0.000000 
-0.013872 -0.042204 
-0.000000 -0.041433 
-0.006264 -0.041622 
0.000000 0.000000 
-0.008413 -0.079575 
-0.000000 -0.108703 
0.000000 0.000000 
0.006264 -0.041622 
0.024512 -0.044011 
0.013872 -0.042204 
0.000000 0.000000 
0.008413 -0.079575 
0.006944 -0.109807 
0.038816 -0.051423 
0.029403 -0.083249 
0.014449 -0.136219 
0.023906 -0.113527 
0.033371 -0.108731 
0.014843 -0.112277 
0.003485 -0.130200 
0.011025 -0.149546 
0.004968 -0.152704 
-0.000736 -0.164204 
0.004916 -0.178937 
0.001001 -0.147451 
0.012072 -0.179299 
0.006365 -0.173821 
0.007349 -0.178635 
0.002075 -0.154268 
0.004768 -0.166235 
0.013739 -0.166193 
-0.002847 -0.162597 
-0.000657 -0.164750 
-0.004464 -0.154622 
-0.000000 -0.112137 
-0.001093 -0.115250 
0.001393 -0.103725 
-0.002468 -0.131858 
-0.002274 -0.124726 
-0.000000 -0.129882 
0.008953 -0.131871 
-0.001462 -0.124310 
-0.000533 -0.138389 
0.000631 -0.134792 
-0.000387 -0.138010 
-0.000000 -0.134170 
-0.004292 -0.146819 
-0.002249 -0.141705 
-0.002494 -0.146254 
-0.000000 -0.137443 
-0.001318 -0.138563 
-0.002063 -0.136495 
-0.004217 -0.142805 
-0.004332 -0.137447 
-0.005070 -0.145613 
-0.001393 -0.103725 
0.001093 -0.115250 
0.000533 -0.138389 
0.001462 -0.124310 
-0.008953 -0.131871 
0.002274 -0.124726 
0.002468 -0.131858 
-0.007349 -0.178635 
-0.006365 -0.173821 
-0.012072 -0.179299 
0.004464 -0.154622 
0.000657 -0.164750 
0.002847 -0.162597 
-0.013739 -0.166193 
-0.004768 -0.166235 
-0.002075 -0.154268 
0.000387 -0.138010 
-0.000631 -0.134792 
0.002063 -0.136495 
0.001318 -0.138563 
0.002494 -0.146254 
0.002249 -0.141705 
0.004292 -0.146819 
0.004217 -0.142805 
0.005070 -0.145613 
0.004332 -0.137447 
-0.008233 -0.182339 
-0.003267 -0.176067 
-0.001451 -0.166486 
-0.001181 -0.171908 
-0.003357 -0.173310 
0.000843 -0.168423 
0.002599 -0.159721 
-0.018135 -0.134804 
-0.012687 -0.144226 
-0.016320 -0.140384 
-0.006735 -0.144078 
-0.009486 -0.145159 
-0.011108 -0.135737 
-0.006746 -0.158169 
-0.007741 -0.152604 
-0.003809 -0.160020 
-0.001483 -0.136539 
-0.001656 -0.128876 
0.001917 -0.151304 
0.000059 -0.143725 
-0.005625 -0.132101 
-0.002730 -0.139055 
-0.004473 -0.141793 
-0.001383 -0.159005 
-0.002700 -0.150717 
0.000569 -0.155853 
-0.027950 -0.120111 
-0.023609 -0.124211 
-0.032780 -0.098870 
-0.028657 -0.112294 
-0.037897 -0.096341 
-0.019404 -0.125730 
-0.015419 -0.125525 
-0.020695 -0.023675 
-0.031513 -0.046663 
-0.029836 -0.032238 
-0.023545 -0.082304 
-0.028857 -0.064788 
-0.022674 -0.063491 
-0.041672 -0.067946 
-0.035432 -0.066478 
-0.035345 -0.083708 
-0.005364 -0.121288 
-0.002610 -0.120262 
-0.011730 -0.124334 
-0.008381 -0.122762 
-0.012395 -0.096801 
-0.010737 -0.110989 
-0.017105 -0.097911 
-0.027452 -0.099432 
-0.022159 -0.098915 
-0.019258 -0.113294 
0.000000 0.000000 
-0.014833 -0.021627 
-0.008014 -0.021039 
-0.010951 -0.021156 
0.000000 0.000000 
-0.018681 -0.042802 
-0.017145 -0.062548 
-0.000000 -0.020969 
-0.001735 -0.020976 
0.000000 0.000000 
-0.003848 -0.061032 
-0.003051 -0.041484 
-0.000000 -0.060922 
0.000000 0.000000 
-0.003573 -0.020988 
-0.005622 -0.021005 
-0.003403 -0.108993 
-0.000000 -0.119897 
-0.013019 -0.080326 
-0.008032 -0.095839 
-0.000000 -0.094966 
-0.003942 -0.095194 
-0.004123 -0.079091 
-0.009809 -0.041851 
-0.007874 -0.061344 
-0.012254 -0.061848 
0.000000 0.000000 
0.001735 -0.020976 
0.005622 -0.021005 
0.003573 -0.020988 
0.000000 0.000000 
0.003051 -0.041484 
0.003848 -0.061032 
0.020695 -0.023675 
0.014833 -0.021627 
0.000000 0.000000 
0.017145 -0.062548 
0.018681 -0.042802 
0.022674 -0.063491 
0.000000 0.000000 
0.010951 -0.021156 
0.008014 -0.021039 
0.003403 -0.108993 
0.002610 -0.120262 
0.004123 -0.079091 
0.003942 -0.095194 
0.012395 -0.096801 
0.008032 -0.095839 
0.013019 -0.080326 
0.009809 -0.041851 
0.012254 -0.061848 
0.007874 -0.061344 
0.029836 -0.032238 
0.031513 -0.046663 
0.035345 -0.083708 
0.035432 -0.066478 
0.041672 -0.067946 
0.028857 -0.064788 
0.023545 -0.082304 
0.018135 -0.134804 
0.023609 -0.124211 
0.027950 -0.120111 
0.015419 -0.125525 
0.019404 -0.125730 
0.011108 -0.135737 
0.037897 -0.096341 
0.028657 -0.112294 
0.032780 -0.098870 
0.005364 -0.121288 
0.001656 -0.128876 
0.017105 -0.097911 
0.010737 -0.110989 
0.005625 -0.132101 
0.008381 -0.122762 
0.011730 -0.124334 
0.027452 -0.099432 
0.019258 -0.113294 
0.022159 -0.098915 
0.016320 -0.140384 
0.012687 -0.144226 
0.003809 -0.160020 
0.007741 -0.152604 
0.006746 -0.158169 
0.009486 -0.145159 
0.006735 -0.144078 
0.003267 -0.176067 
0.008233 -0.182339 
-0.002599 -0.159721 
-0.000843 -0.168423 
0.003357 -0.173310 
0.001181 -0.171908 
0.001451 -0.166486 
0.001483 -0.136539 
0.004473 -0.141793 
0.002730 -0.139055 
-0.000059 -0.143725 
-0.001917 -0.151304 
0.001383 -0.159005 
-0.000569 -0.155853 
0.002700 -0.150717 
0.012018 -0.181329 
0.009760 -0.179215 
0.009939 -0.181176 
0.009492 -0.174270 
0.009625 -0.176985 
0.012312 -0.176986 
0.004433 -0.175506 
0.006898 -0.176474 
0.003647 -0.172932 
0.006750 -0.153868 
0.008110 -0.160982 
0.014073 -0.160481 
0.000332 -0.160559 
0.003557 -0.160889 
-0.000979 -0.154551 
0.013231 -0.170658 
0.008883 -0.166520 
0.009285 -0.170857 
-0.003781 -0.157938 
-0.003742 -0.158833 
-0.004394 -0.154246 
0.000473 -0.168598 
-0.002103 -0.163750 
-0.001035 -0.167299 
-0.004012 -0.154767 
-0.003130 -0.159542 
-0.001825 -0.160107 
0.005682 -0.170475 
0.001599 -0.165596 
0.002711 -0.169680 
-0.000000 -0.106307 
-0.000069 -0.107166 
0.000611 -0.100929 
-0.000959 -0.118158 
-0.000594 -0.112922 
-0.000000 -0.117447 
0.002509 -0.108316 
-0.000016 -0.109719 
0.000270 -0.113916 
-0.001196 -0.133205 
-0.001273 -0.130382 
-0.000000 -0.132768 
-0.003206 -0.127810 
-0.002468 -0.128597 
-0.003502 -0.131323 
-0.000000 -0.126352 
-0.001274 -0.126919 
-0.001178 -0.122836 
0.012096 -0.142698 
0.003164 -0.135433 
0.004862 -0.144915 
0.000871 -0.119677 
0.001834 -0.126897 
0.006233 -0.122496 
-0.003126 -0.134208 
-0.001193 -0.130826 
-0.002997 -0.128420 
-0.001833 -0.120267 
-0.002539 -0.123720 
-0.001407 -0.119074 
0.000560 -0.131770 
0.000301 -0.134327 
-0.000000 -0.131637 
-0.000487 -0.139013 
0.000117 -0.136736 
0.000256 -0.137603 
-0.000000 -0.136017 
0.000042 -0.136199 
-0.000212 -0.137387 
-0.004225 -0.150209 
-0.003493 -0.146770 
-0.003388 -0.149699 
-0.003001 -0.141495 
-0.003361 -0.143988 
-0.004089 -0.143596 
-0.001455 -0.143181 
-0.002471 -0.143856 
-0.001401 -0.141327 
-0.000000 -0.136556 
-0.000890 -0.136885 
-0.001064 -0.135376 
-0.000456 -0.137895 
-0.000684 -0.137727 
-0.000000 -0.137650 
-0.002936 -0.138301 
-0.001722 -0.137854 
-0.002442 -0.139416 
-0.001196 -0.139780 
-0.001854 -0.139911 
-0.000868 -0.138617 
0.000586 -0.146504 
-0.004252 -0.137065 
-0.002847 -0.140813 
-0.002110 -0.147794 
-0.003754 -0.148835 
-0.002321 -0.134493 
-0.004087 -0.139355 
-0.003306 -0.136576 
-0.003512 -0.134247 
-0.004297 -0.134988 
-0.004761 -0.150344 
-0.004633 -0.149624 
-0.004927 -0.150138 
-0.004839 -0.146425 
-0.004610 -0.142696 
-0.004783 -0.139426 
-0.004867 -0.141303 
-0.004901 -0.144403 
-0.000611 -0.100929 
0.000069 -0.107166 
-0.000270 -0.113916 
0.000016 -0.109719 
-0.002509 -0.108316 
0.000594 -0.112922 
0.000959 -0.118158 
-0.004862 -0.144915 
-0.003164 -0.135433 
-0.012096 -0.142698 
0.002997 -0.128420 
0.001193 -0.130826 
0.003126 -0.134208 
-0.006233 -0.122496 
-0.001834 -0.126897 
-0.000871 -0.119677 
0.001273 -0.130382 
0.001196 -0.133205 
0.001178 -0.122836 
0.001274 -0.126919 
0.003502 -0.131323 
0.002468 -0.128597 
0.003206 -0.127810 
0.001407 -0.119074 
0.002539 -0.123720 
0.001833 -0.120267 
-0.009939 -0.181176 
-0.009760 -0.179215 
-0.012018 -0.181329 
-0.003647 -0.172932 
-0.006898 -0.176474 
-0.004433 -0.175506 
-0.012312 -0.176986 
-0.009625 -0.176985 
-0.009492 -0.174270 
0.004394 -0.154246 
0.003742 -0.158833 
0.003781 -0.157938 
0.001825 -0.160107 
0.003130 -0.159542 
0.004012 -0.154767 
0.001035 -0.167299 
0.002103 -0.163750 
-0.000473 -0.168598 
-0.014073 -0.160481 
-0.008110 -0.160982 
-0.006750 -0.153868 
-0.009285 -0.170857 
-0.008883 -0.166520 
-0.013231 -0.170658 
0.000979 -0.154551 
-0.003557 -0.160889 
-0.000332 -0.160559 
-0.002711 -0.169680 
-0.001599 -0.165596 
-0.005682 -0.170475 
-0.000301 -0.134327 
-0.000560 -0.131770 
0.000212 -0.137387 
-0.000042 -0.136199 
-0.000256 -0.137603 
-0.000117 -0.136736 
0.000487 -0.139013 
0.001064 -0.135376 
0.000890 -0.136885 
0.002442 -0.139416 
0.001722 -0.137854 
0.002936 -0.138301 
0.000684 -0.137727 
0.000456 -0.137895 
0.003388 -0.149699 
0.003493 -0.146770 
0.004225 -0.150209 
0.001401 -0.141327 
0.002471 -0.143856 
0.001455 -0.143181 
0.004089 -0.143596 
0.003361 -0.143988 
0.003001 -0.141495 
0.000868 -0.138617 
0.001854 -0.139911 
0.001196 -0.139780 
-0.000586 -0.146504 
0.003754 -0.148835 
0.002110 -0.147794 
0.002847 -0.140813 
0.004252 -0.137065 
0.004761 -0.150344 
0.004610 -0.142696 
0.004839 -0.146425 
0.004927 -0.150138 
0.004633 -0.149624 
0.002321 -0.134493 
0.004297 -0.134988 
0.003512 -0.134247 
0.003306 -0.136576 
0.004087 -0.139355 
0.004901 -0.144403 
0.004867 -0.141303 
0.004783 -0.139426 
-0.010172 -0.183081 
-0.007779 -0.180511 
-0.004070 -0.177608 
-0.005756 -0.179315 
-0.006419 -0.180954 
-0.005117 -0.177572 
-0.002428 -0.174145 
-0.002671 -0.166689 
-0.002161 -0.169917 
-0.003415 -0.169893 
0.000041 -0.168174 
-0.001029 -0.169338 
-0.000322 -0.165643 
-0.003868 -0.176357 
-0.002220 -0.172850 
-0.002865 -0.175434 
0.002983 -0.161265 
0.003342 -0.156812 
-0.000006 -0.170182 
0.001860 -0.165807 
0.001718 -0.162212 
0.002064 -0.164117 
0.001073 -0.166431 
-0.001932 -0.174164 
-0.000171 -0.170446 
-0.000993 -0.172445 
-0.020093 -0.133113 
-0.017238 -0.138032 
-0.019186 -0.135580 
-0.013612 -0.140561 
-0.015378 -0.139652 
-0.016252 -0.135801 
-0.013579 -0.145035 
-0.014450 -0.142729 
-0.011789 -0.147216 
-0.007549 -0.139277 
-0.008904 -0.140131 
-0.009582 -0.135031 
-0.007142 -0.149096 
-0.008052 -0.144818 
-0.005833 -0.148552 
-0.012732 -0.136164 
-0.010370 -0.140695 
-0.011941 -0.140873 
-0.005158 -0.162266 
-0.005204 -0.159505 
-0.003705 -0.163207 
-0.009315 -0.151505 
-0.007097 -0.155602 
-0.008725 -0.153924 
-0.004259 -0.156527 
-0.005614 -0.156429 
-0.006293 -0.152966 
-0.011032 -0.144998 
-0.008572 -0.149127 
-0.010121 -0.148539 
-0.001147 -0.132172 
-0.000817 -0.128526 
-0.000486 -0.138755 
-0.001017 -0.135542 
-0.002539 -0.129444 
-0.001783 -0.132823 
-0.002489 -0.133689 
0.003051 -0.152627 
0.002309 -0.148779 
-0.000389 -0.145594 
0.001036 -0.147420 
0.000549 -0.149589 
0.001337 -0.145247 
0.000345 -0.141946 
-0.006840 -0.133135 
-0.005186 -0.137062 
-0.006309 -0.138225 
-0.003283 -0.134724 
-0.004179 -0.135871 
-0.004509 -0.131103 
-0.002690 -0.144860 
-0.003536 -0.140436 
-0.001925 -0.143273 
-0.000831 -0.140134 
-0.001307 -0.141668 
-0.002049 -0.137731 
-0.002398 -0.163375 
-0.003027 -0.156001 
-0.002539 -0.159822 
-0.001204 -0.162859 
-0.000106 -0.161734 
-0.005540 -0.143037 
-0.001775 -0.149193 
-0.003599 -0.146335 
-0.004649 -0.147599 
-0.003768 -0.151921 
0.002502 -0.155413 
0.000892 -0.160066 
0.001771 -0.157929 
0.001330 -0.153701 
-0.000114 -0.151639 
-0.001918 -0.154946 
-0.000942 -0.153459 
-0.000342 -0.157653 
-0.025058 -0.125462 
-0.022954 -0.127955 
-0.028478 -0.116850 
-0.025767 -0.122541 
-0.030740 -0.114539 
-0.020897 -0.129663 
-0.018894 -0.130700 
-0.037032 -0.090912 
-0.035379 -0.097919 
-0.039646 -0.089725 
-0.026278 -0.113144 
-0.030870 -0.105783 
-0.028356 -0.106466 
-0.035779 -0.102670 
-0.033350 -0.104561 
-0.031026 -0.110864 
-0.013296 -0.130874 
-0.011592 -0.130282 
-0.016955 -0.131178 
-0.015086 -0.131204 
-0.019556 -0.119915 
-0.017379 -0.125794 
-0.021741 -0.119853 
-0.026216 -0.118429 
-0.023965 -0.119392 
-0.021484 -0.125237 
-0.014817 -0.013383 
-0.024957 -0.026655 
-0.021029 -0.020445 
-0.027880 -0.045087 
-0.027233 -0.035576 
-0.023577 -0.033890 
-0.035354 -0.042290 
-0.031298 -0.038341 
-0.035256 -0.048825 
-0.020743 -0.081784 
-0.023445 -0.073163 
-0.020586 -0.072634 
-0.029512 -0.074313 
-0.026429 -0.073727 
-0.026441 -0.082805 
-0.024081 -0.053918 
-0.025690 -0.064088 
-0.027258 -0.054675 
-0.041657 -0.075556 
-0.038804 -0.075665 
-0.038213 -0.083507 
-0.037566 -0.058424 
-0.038654 -0.067330 
-0.040805 -0.059928 
-0.032389 -0.083580 
-0.035773 -0.075378 
-0.032649 -0.074887 
-0.030626 -0.055669 
-0.032129 -0.065596 
-0.034108 -0.056935 
-0.002148 -0.124905 
-0.001065 -0.124598 
-0.004451 -0.126067 
-0.003271 -0.125404 
-0.004592 -0.115344 
-0.003961 -0.120702 
-0.006203 -0.115865 
-0.009979 -0.129512 
-0.008461 -0.128639 
-0.011455 -0.117898 
-0.010012 -0.123563 
-0.013367 -0.118592 
-0.007036 -0.127734 
-0.005702 -0.126859 
-0.015267 -0.089340 
-0.014705 -0.097351 
-0.017776 -0.089868 
-0.008804 -0.110365 
-0.011673 -0.104192 
-0.009580 -0.103627 
-0.016107 -0.105383 
-0.013848 -0.104789 
-0.012749 -0.111640 
-0.006834 -0.121988 
-0.009626 -0.117180 
-0.007878 -0.116489 
-0.034306 -0.091524 
-0.028676 -0.091615 
-0.031506 -0.091716 
-0.030128 -0.099334 
-0.025834 -0.106728 
-0.020384 -0.090395 
-0.018447 -0.105930 
-0.019593 -0.098446 
-0.023084 -0.090891 
-0.025856 -0.091315 
-0.013534 -0.125012 
-0.021560 -0.113547 
-0.017424 -0.119671 
-0.015358 -0.119205 
-0.017015 -0.112848 
-0.024787 -0.099266 
-0.020858 -0.106380 
-0.023327 -0.106670 
0.000000 0.000000 
-0.011364 -0.011390 
-0.007873 -0.010533 
-0.009320 -0.010760 
0.000000 0.000000 
-0.017406 -0.022280 
-0.020414 -0.032914 
-0.004221 -0.010452 
-0.004955 -0.010438 
0.000000 0.000000 
-0.013166 -0.031803 
-0.009397 -0.021079 
-0.011257 -0.031663 
0.000000 0.000000 
-0.005781 -0.010432 
-0.006734 -0.010452 
-0.019825 -0.062983 
-0.017865 -0.072148 
-0.021451 -0.043291 
-0.021120 -0.053341 
-0.015829 -0.052536 
-0.018375 -0.052893 
-0.016167 -0.042458 
-0.012733 -0.021311 
-0.015289 -0.032013 
-0.017680 -0.032349 
-0.000000 -0.010522 
-0.000451 -0.010523 
0.000000 0.000000 
-0.001218 -0.031299 
-0.000861 -0.020972 
-0.000000 -0.031291 
0.000000 0.000000 
-0.000910 -0.010521 
-0.001382 -0.010516 
-0.002013 -0.070175 
-0.001913 -0.060951 
-0.000000 -0.070139 
-0.004627 -0.041542 
-0.003516 -0.051411 
-0.005329 -0.051505 
-0.000000 -0.051332 
-0.001747 -0.051354 
-0.001515 -0.041448 
0.000000 0.000000 
-0.002956 -0.010485 
-0.003560 -0.010469 
-0.001876 -0.010508 
-0.002397 -0.010498 
0.000000 0.000000 
-0.006439 -0.031429 
-0.004563 -0.020995 
-0.005046 -0.031381 
-0.002454 -0.031317 
-0.003724 -0.031344 
-0.002635 -0.020981 
-0.001296 -0.119989 
-0.000000 -0.124496 
-0.005148 -0.109342 
-0.003032 -0.114953 
-0.000000 -0.114628 
-0.001507 -0.114711 
-0.001693 -0.108777 
-0.015478 -0.080780 
-0.012859 -0.088836 
-0.008324 -0.087977 
-0.010548 -0.088376 
-0.010668 -0.079921 
-0.010173 -0.096289 
-0.007563 -0.103125 
-0.000000 -0.087212 
-0.002032 -0.087264 
-0.002051 -0.078965 
-0.001846 -0.102206 
-0.001961 -0.095024 
-0.000000 -0.102140 
-0.006237 -0.079296 
-0.004083 -0.087412 
-0.006175 -0.087652 
-0.005611 -0.102709 
-0.005960 -0.095469 
-0.003711 -0.102398 
-0.006765 -0.021018 
-0.007984 -0.041724 
-0.007923 -0.031489 
-0.009520 -0.031564 
-0.011763 -0.042008 
-0.004048 -0.070279 
-0.008270 -0.070679 
-0.006126 -0.070448 
-0.005828 -0.061163 
-0.007208 -0.051634 
-0.015283 -0.071706 
-0.013463 -0.052244 
-0.014626 -0.062172 
-0.012831 -0.071312 
-0.010499 -0.070968 
-0.009175 -0.051799 
-0.010009 -0.061572 
-0.011252 -0.052001 
0.000000 0.000000 
0.000451 -0.010523 
0.001382 -0.010516 
0.000910 -0.010521 
0.000000 0.000000 
0.000861 -0.020972 
0.001218 -0.031299 
0.003560 -0.010469 
0.002956 -0.010485 
0.000000 0.000000 
0.005046 -0.031381 
0.004563 -0.020995 
0.006439 -0.031429 
0.000000 0.000000 
0.002397 -0.010498 
0.001876 -0.010508 
0.001913 -0.060951 
0.002013 -0.070175 
0.001515 -0.041448 
0.001747 -0.051354 
0.005329 -0.051505 
0.003516 -0.051411 
0.004627 -0.041542 
0.002635 -0.020981 
0.003724 -0.031344 
0.002454 -0.031317 
0.014817 -0.013383 
0.011364 -0.011390 
0.000000 0.000000 
0.020414 -0.032914 
0.017406 -0.022280 
0.023577 -0.033890 
0.000000 0.000000 
0.009320 -0.010760 
0.007873 -0.010533 
0.017865 -0.072148 
0.019825 -0.062983 
0.020586 -0.072634 
0.016167 -0.042458 
0.018375 -0.052893 
0.015829 -0.052536 
0.024081 -0.053918 
0.021120 -0.053341 
0.021451 -0.043291 
0.000000 0.000000 
0.004955 -0.010438 
0.004221 -0.010452 
0.006734 -0.010452 
0.005781 -0.010432 
0.000000 0.000000 
0.011257 -0.031663 
0.009397 -0.021079 
0.013166 -0.031803 
0.017680 -0.032349 
0.015289 -0.032013 
0.012733 -0.021311 
0.001296 -0.119989 
0.001065 -0.124598 
0.001693 -0.108777 
0.001507 -0.114711 
0.004592 -0.115344 
0.003032 -0.114953 
0.005148 -0.109342 
0.002051 -0.078965 
0.002032 -0.087264 
0.006175 -0.087652 
0.004083 -0.087412 
0.006237 -0.079296 
0.001961 -0.095024 
0.001846 -0.102206 
0.015267 -0.089340 
0.012859 -0.088836 
0.015478 -0.080780 
0.007563 -0.103125 
0.010173 -0.096289 
0.009580 -0.103627 
0.010668 -0.079921 
0.010548 -0.088376 
0.008324 -0.087977 
0.003711 -0.102398 
0.005960 -0.095469 
0.005611 -0.102709 
0.006765 -0.021018 
0.011763 -0.042008 
0.009520 -0.031564 
0.007923 -0.031489 
0.007984 -0.041724 
0.015283 -0.071706 
0.010499 -0.070968 
0.012831 -0.071312 
0.014626 -0.062172 
0.013463 -0.052244 
0.004048 -0.070279 
0.007208 -0.051634 
0.005828 -0.061163 
0.006126 -0.070448 
0.008270 -0.070679 
0.011252 -0.052001 
0.010009 -0.061572 
0.009175 -0.051799 
0.021029 -0.020445 
0.024957 -0.026655 
0.035256 -0.048825 
0.031298 -0.038341 
0.035354 -0.042290 
0.027233 -0.035576 
0.027880 -0.045087 
0.038213 -0.083507 
0.038804 -0.075665 
0.041657 -0.075556 
0.032649 -0.074887 
0.035773 -0.075378 
0.032389 -0.083580 
0.040805 -0.059928 
0.038654 -0.067330 
0.037566 -0.058424 
0.023445 -0.073163 
0.020743 -0.081784 
0.027258 -0.054675 
0.025690 -0.064088 
0.026441 -0.082805 
0.026429 -0.073727 
0.029512 -0.074313 
0.034108 -0.056935 
0.032129 -0.065596 
0.030626 -0.055669 
0.020093 -0.133113 
0.022954 -0.127955 
0.025058 -0.125462 
0.018894 -0.130700 
0.020897 -0.129663 
0.016252 -0.135801 
0.030740 -0.114539 
0.025767 -0.122541 
0.028478 -0.116850 
0.011592 -0.130282 
0.013296 -0.130874 
0.009582 -0.135031 
0.021741 -0.119853 
0.017379 -0.125794 
0.019556 -0.119915 
0.012732 -0.136164 
0.015086 -0.131204 
0.016955 -0.131178 
0.039646 -0.089725 
0.035379 -0.097919 
0.037032 -0.090912 
0.031026 -0.110864 
0.033350 -0.104561 
0.035779 -0.102670 
0.028356 -0.106466 
0.030870 -0.105783 
0.026278 -0.113144 
0.021484 -0.125237 
0.023965 -0.119392 
0.026216 -0.118429 
0.002148 -0.124905 
0.000817 -0.128526 
0.006203 -0.115865 
0.003961 -0.120702 
0.002539 -0.129444 
0.003271 -0.125404 
0.004451 -0.126067 
0.017776 -0.089868 
0.014705 -0.097351 
0.012749 -0.111640 
0.013848 -0.104789 
0.016107 -0.105383 
0.011673 -0.104192 
0.008804 -0.110365 
0.006840 -0.133135 
0.008461 -0.128639 
0.009979 -0.129512 
0.005702 -0.126859 
0.007036 -0.127734 