# vtk DataFile Version 2.0
Unstructured Grid Example
ASCII
DATASET UNSTRUCTURED_GRID

POINTS 25 float
0.007058 -0.172961 0.000000 
0.992942 -0.172961 0.000000 
1.000000 1.000000 0.000000 
0.000000 1.000000 0.000000 
0.500000 -0.089950 0.000000 
0.975229 0.373596 0.000000 
0.500000 1.000000 0.000000 
0.024771 0.373596 0.000000 
0.500000 0.377351 0.000000 
0.254444 -0.150173 0.000000 
0.500000 0.126030 0.000000 
0.249872 0.098222 0.000000 
0.745556 -0.150173 0.000000 
0.750128 0.098222 0.000000 
0.992545 0.090395 0.000000 
0.738894 0.371206 0.000000 
0.963810 0.667377 0.000000 
0.735166 0.674326 0.000000 
0.750000 1.000000 0.000000 
0.500000 0.679019 0.000000 
0.250000 1.000000 0.000000 
0.264834 0.674326 0.000000 
0.036190 0.667377 0.000000 
0.261106 0.371206 0.000000 
0.007455 0.090395 0.000000 

CELLS 32 128
3  0 9 11 
3  4 10 9 
3  8 11 10 
3  9 10 11 
3  4 12 10 
3  1 13 12 
3  8 10 13 
3  12 13 10 
3  1 14 13 
3  5 15 14 
3  8 13 15 
3  14 15 13 
3  5 16 15 
3  2 17 16 
3  8 15 17 
3  16 17 15 
3  2 18 17 
3  6 19 18 
3  8 17 19 
3  18 19 17 
3  6 20 19 
3  3 21 20 
3  8 19 21 
3  20 21 19 
3  3 22 21 
3  7 23 22 
3  8 21 23 
3  22 23 21 
3  7 24 23 
3  0 11 24 
3  8 23 11 
3  24 11 23 

CELL_TYPES 32
5
5
5
5
5
5
5
5
5
5
5
5
5
5
5
5
5
5
5
5
5
5
5
5
5
5
5
5
5
5
5
5

POINT_DATA 25

SCALARS u_h float 2
LOOKUP_TABLE default
0.007058 -0.172961 
-0.007058 -0.172961 
0.000000 0.000000 
0.000000 0.000000 
0.000000 -0.089950 
-0.024771 -0.126404 
0.000000 0.000000 
0.024771 -0.126404 
0.000000 -0.122649 
0.004444 -0.150173 
0.000000 -0.123970 
-0.000128 -0.151778 
-0.004444 -0.150173 
0.000128 -0.151778 
-0.007455 -0.159605 
-0.011106 -0.128794 
-0.036190 -0.082623 
-0.014834 -0.075674 
0.000000 0.000000 
0.000000 -0.070981 
0.000000 0.000000 
0.014834 -0.075674 
0.036190 -0.082623 
0.011106 -0.128794 
0.007455 -0.159605 

CELL_DATA 32

SCALARS epsilon float 4
LOOKUP_TABLE default
-0.008644 -0.000464 0.000000 0.036626
-0.017932 -0.104812 0.000000 0.139371
0.000512 0.011382 0.000000 0.055325
0.002725 0.001838 0.000000 0.046838
-0.017932 -0.104812 0.000000 -0.139371
-0.008644 -0.000464 0.000000 -0.036626
0.000512 0.011382 0.000000 -0.055325
0.002725 0.001838 0.000000 -0.046838
-0.030841 0.052420 0.000000 -0.015664
-0.053443 0.124758 0.000000 -0.031918
-0.045535 0.086966 0.000000 -0.034579
-0.031219 0.086858 0.000000 -0.037332
-0.054911 0.160552 0.000000 -0.019566
-0.078739 0.282603 0.000000 0.063799
-0.045641 0.190517 0.000000 -0.017678
-0.089322 0.190550 0.000000 -0.019263
0.001037 0.259358 0.000000 0.028066
0.000000 0.245589 0.000000 -0.000000
-0.061089 0.186079 0.000000 -0.007748
-0.059014 0.260335 0.000000 0.022648
0.000000 0.245589 0.000000 -0.000000
0.001037 0.259358 0.000000 -0.028066
-0.061089 0.186079 0.000000 0.007748
-0.059014 0.260335 0.000000 -0.022648
-0.078739 0.282603 0.000000 -0.063799
-0.054911 0.160552 0.000000 0.019566
-0.045641 0.190517 0.000000 0.017678
-0.089322 0.190550 0.000000 0.019263
-0.053443 0.124758 0.000000 0.031918
-0.030841 0.052420 0.000000 0.015664
-0.045535 0.086966 0.000000 0.034579
-0.031219 0.086858 0.000000 0.037332

SCALARS sigma float 4
LOOKUP_TABLE default
-0.250176 -0.182078 -0.117831 0.602630
-1.906934 -4.698056 -1.578336 2.327814
0.066209 0.143470 0.057845 0.906866
0.060425 -0.053682 0.001855 0.765200
-1.906934 -4.698056 -1.578336 -2.327814
-0.250176 -0.182078 -0.117831 -0.602630
0.066209 0.143470 0.057845 -0.906866
0.060425 -0.053682 0.001855 -0.765200
-0.338234 0.980476 0.178549 -0.263626
-0.368162 2.334069 0.559426 -0.395185
-0.481522 1.592560 0.311196 -0.523345
-0.063882 1.738059 0.474288 -0.556560
-0.041992 3.051495 0.872428 -0.207361
0.133388 4.923313 1.512195 0.508173
0.542448 3.734269 1.268607 -0.253713
-0.887557 3.218852 0.664458 -0.300841
2.593582 5.556043 2.593582 0.207213
2.455889 5.309431 2.455889 -0.000000
0.020813 3.475539 1.021356 -0.135621
0.760044 4.839523 1.695687 0.146403
2.455889 5.309431 2.455889 -0.000000
2.593582 5.556043 2.593582 -0.207213
0.020813 3.475539 1.021356 0.135621
0.760044 4.839523 1.695687 -0.146403
0.133388 4.923313 1.512195 -0.508173
-0.041992 3.051495 0.872428 0.207361
0.542448 3.734269 1.268607 0.253713
-0.887557 3.218852 0.664458 0.300841
-0.368162 2.334069 0.559426 0.395185
-0.338234 0.980476 0.178549 0.263626
-0.481522 1.592560 0.311196 0.523345
-0.063882 1.738059 0.474288 0.556560

