# vtk DataFile Version 2.0
Unstructured Grid Example
ASCII
DATASET UNSTRUCTURED_GRID

POINTS 4225 float
0.012100 -0.183201 0.000000 
0.987900 -0.183201 0.000000 
1.000000 1.000000 0.000000 
0.000000 1.000000 0.000000 
0.500000 -0.099961 0.000000 
0.977868 0.369494 0.000000 
0.500000 1.000000 0.000000 
0.022132 0.369494 0.000000 
0.500000 0.371579 0.000000 
0.263566 -0.152882 0.000000 
0.500000 0.115083 0.000000 
0.246118 0.096476 0.000000 
0.736434 -0.152882 0.000000 
0.753882 0.096476 0.000000 
0.995974 0.083950 0.000000 
0.741835 0.365950 0.000000 
0.959122 0.667223 0.000000 
0.731984 0.668801 0.000000 
0.750000 1.000000 0.000000 
0.500000 0.671153 0.000000 
0.250000 1.000000 0.000000 
0.268016 0.668801 0.000000 
0.040878 0.667223 0.000000 
0.258165 0.365950 0.000000 
0.004026 0.083950 0.000000 
0.137654 -0.174017 0.000000 
0.247099 -0.029662 0.000000 
0.126449 -0.046550 0.000000 
0.500000 0.002880 0.000000 
0.371106 -0.006933 0.000000 
0.379131 -0.114573 0.000000 
0.374518 0.234728 0.000000 
0.371377 0.109360 0.000000 
0.500000 0.237894 0.000000 
0.620869 -0.114573 0.000000 
0.628894 -0.006933 0.000000 
0.873551 -0.046550 0.000000 
0.752901 -0.029662 0.000000 
0.862346 -0.174017 0.000000 
0.628623 0.109360 0.000000 
0.625482 0.234728 0.000000 
0.995159 -0.053760 0.000000 
0.875725 0.085898 0.000000 
0.860537 0.363868 0.000000 
0.870011 0.222387 0.000000 
0.988954 0.225545 0.000000 
0.748986 0.227629 0.000000 
0.621517 0.369879 0.000000 
0.966654 0.516313 0.000000 
0.851107 0.511553 0.000000 
0.850591 0.831061 0.000000 
0.845646 0.666824 0.000000 
0.961296 0.823617 0.000000 
0.735165 0.512806 0.000000 
0.618057 0.515268 0.000000 
0.875000 1.000000 0.000000 
0.736180 0.832838 0.000000 
0.500000 0.833612 0.000000 
0.618756 0.833410 0.000000 
0.625000 1.000000 0.000000 
0.616604 0.670487 0.000000 
0.500000 0.516370 0.000000 
0.375000 1.000000 0.000000 
0.381244 0.833410 0.000000 
0.149409 0.831061 0.000000 
0.263820 0.832838 0.000000 
0.125000 1.000000 0.000000 
0.383396 0.670487 0.000000 
0.381943 0.515268 0.000000 
0.038704 0.823617 0.000000 
0.154354 0.666824 0.000000 
0.139463 0.363868 0.000000 
0.148893 0.511553 0.000000 
0.033346 0.516313 0.000000 
0.264835 0.512806 0.000000 
0.378483 0.369879 0.000000 
0.011046 0.225545 0.000000 
0.129989 0.222387 0.000000 
0.124275 0.085898 0.000000 
0.004841 -0.053760 0.000000 
0.251014 0.227629 0.000000 
0.074537 -0.179153 0.000000 
0.131269 -0.111151 0.000000 
0.069762 -0.115980 0.000000 
0.252055 -0.091683 0.000000 
0.192174 -0.103564 0.000000 
0.201113 -0.166013 0.000000 
0.184659 0.024996 0.000000 
0.186821 -0.039630 0.000000 
0.245552 0.032945 0.000000 
0.500000 -0.049570 0.000000 
0.436409 -0.052701 0.000000 
0.438932 -0.103691 0.000000 
0.435030 0.055709 0.000000 
0.435223 0.000333 0.000000 
0.500000 0.057697 0.000000 
0.321419 -0.131858 0.000000 
0.373533 -0.061775 0.000000 
0.311957 -0.075867 0.000000 
0.438126 0.302777 0.000000 
0.437111 0.237062 0.000000 
0.500000 0.303386 0.000000 
0.308218 0.103248 0.000000 
0.372753 0.170867 0.000000 
0.310014 0.166319 0.000000 
0.500000 0.175134 0.000000 
0.436181 0.174010 0.000000 
0.435436 0.113577 0.000000 
0.308289 -0.017758 0.000000 
0.370669 0.050112 0.000000 
0.307440 0.041945 0.000000 
0.561068 -0.103691 0.000000 
0.563591 -0.052701 0.000000 
0.688043 -0.075867 0.000000 
0.626467 -0.061775 0.000000 
0.678581 -0.131858 0.000000 
0.564777 0.000333 0.000000 
0.564970 0.055709 0.000000 
0.930238 -0.115980 0.000000 
0.868731 -0.111151 0.000000 
0.925463 -0.179153 0.000000 
0.754448 0.032945 0.000000 
0.813179 -0.039630 0.000000 
0.815341 0.024996 0.000000 
0.798887 -0.166013 0.000000 
0.807826 -0.103564 0.000000 
0.747945 -0.091683 0.000000 
0.562889 0.237062 0.000000 
0.561874 0.302777 0.000000 
0.564564 0.113577 0.000000 
0.563819 0.174010 0.000000 
0.689986 0.166319 0.000000 
0.627247 0.170867 0.000000 
0.691782 0.103248 0.000000 
0.691711 -0.017758 0.000000 
0.692560 0.041945 0.000000 
0.629331 0.050112 0.000000 
0.991850 -0.119697 0.000000 
0.934304 -0.050915 0.000000 
0.936046 0.083636 0.000000 
0.936348 0.015730 0.000000 
0.996679 0.014358 0.000000 
0.875857 0.019197 0.000000 
0.815083 0.090362 0.000000 
0.919351 0.365282 0.000000 
0.924795 0.293365 0.000000 
0.983663 0.297199 0.000000 
0.805751 0.293508 0.000000 
0.865497 0.292430 0.000000 
0.801381 0.364351 0.000000 
0.993239 0.154442 0.000000 
0.929738 0.222493 0.000000 
0.933672 0.152588 0.000000 
0.623518 0.301039 0.000000 
0.560846 0.371191 0.000000 
0.751902 0.161272 0.000000 
0.687553 0.231352 0.000000 
0.681873 0.367984 0.000000 
0.684766 0.298527 0.000000 
0.745518 0.295791 0.000000 
0.873597 0.153590 0.000000 
0.809781 0.224367 0.000000 
0.813049 0.156729 0.000000 
0.972058 0.442448 0.000000 
0.913890 0.438366 0.000000 
0.904753 0.588693 0.000000 
0.908859 0.512774 0.000000 
0.962144 0.591194 0.000000 
0.855593 0.436854 0.000000 
0.797079 0.437061 0.000000 
0.916987 0.913919 0.000000 
0.906103 0.828418 0.000000 
0.970348 0.905399 0.000000 
0.788999 0.667771 0.000000 
0.846217 0.747785 0.000000 
0.789890 0.749078 0.000000 
0.958408 0.744581 0.000000 
0.902145 0.746090 0.000000 
0.902207 0.666354 0.000000 
0.619633 0.441290 0.000000 
0.559884 0.442306 0.000000 
0.738269 0.438252 0.000000 
0.679117 0.439821 0.000000 
0.675120 0.590773 0.000000 
0.676768 0.514091 0.000000 
0.732916 0.589667 0.000000 
0.847577 0.588143 0.000000 
0.790366 0.588664 0.000000 
0.793252 0.511789 0.000000 
0.937500 1.000000 0.000000 
0.860266 0.915917 0.000000 
0.742018 0.916479 0.000000 
0.801604 0.916369 0.000000 
0.812500 1.000000 0.000000 
0.793895 0.832253 0.000000 
0.732904 0.750013 0.000000 
0.500000 0.916556 0.000000 
0.560771 0.916540 0.000000 
0.562500 1.000000 0.000000 
0.558663 0.751519 0.000000 
0.559459 0.833550 0.000000 
0.500000 0.751640 0.000000 
0.687500 1.000000 0.000000 
0.621439 0.916526 0.000000 
0.681898 0.916510 0.000000 
0.559096 0.516078 0.000000 
0.500000 0.442661 0.000000 
0.674507 0.669739 0.000000 
0.616977 0.591731 0.000000 
0.500000 0.592611 0.000000 
0.558562 0.592376 0.000000 
0.558385 0.670973 0.000000 
0.677725 0.833183 0.000000 
0.617147 0.751205 0.000000 
0.675281 0.750705 0.000000 
0.437500 1.000000 0.000000 
0.439229 0.916540 0.000000 
0.318102 0.916510 0.000000 
0.378561 0.916526 0.000000 
0.312500 1.000000 0.000000 
0.440541 0.833550 0.000000 
0.441337 0.751519 0.000000 
0.083013 0.913919 0.000000 
0.139734 0.915917 0.000000 
0.062500 1.000000 0.000000 
0.267096 0.750013 0.000000 
0.206105 0.832253 0.000000 
0.210110 0.749078 0.000000 
0.187500 1.000000 0.000000 
0.198396 0.916369 0.000000 
0.257982 0.916479 0.000000 
0.440904 0.516078 0.000000 
0.440116 0.442306 0.000000 
0.441615 0.670973 0.000000 
0.441438 0.592376 0.000000 
0.324880 0.590773 0.000000 
0.383023 0.591731 0.000000 
0.325493 0.669739 0.000000 
0.322275 0.833183 0.000000 
0.324719 0.750705 0.000000 
0.382853 0.751205 0.000000 
0.029652 0.905399 0.000000 
0.093897 0.828418 0.000000 
0.097793 0.666354 0.000000 
0.097855 0.746090 0.000000 
0.041592 0.744581 0.000000 
0.153783 0.747785 0.000000 
0.211001 0.667771 0.000000 
0.080649 0.365282 0.000000 
0.086110 0.438366 0.000000 
0.027942 0.442448 0.000000 
0.202921 0.437061 0.000000 
0.144407 0.436854 0.000000 
0.198619 0.364351 0.000000 
0.037856 0.591194 0.000000 
0.091141 0.512774 0.000000 
0.095247 0.588693 0.000000 
0.380367 0.441290 0.000000 
0.439154 0.371191 0.000000 
0.267084 0.589667 0.000000 
0.323232 0.514091 0.000000 
0.318127 0.367984 0.000000 
0.320883 0.439821 0.000000 
0.261731 0.438252 0.000000 
0.152423 0.588143 0.000000 
0.206748 0.511789 0.000000 
0.209634 0.588664 0.000000 
0.016337 0.297199 0.000000 
0.075205 0.293365 0.000000 
0.066328 0.152588 0.000000 
0.070262 0.222493 0.000000 
0.006761 0.154442 0.000000 
0.134503 0.292430 0.000000 
0.194249 0.293508 0.000000 
0.065696 -0.050915 0.000000 
0.008150 -0.119697 0.000000 
0.184917 0.090362 0.000000 
0.124143 0.019197 0.000000 
0.003321 0.014358 0.000000 
0.063652 0.015730 0.000000 
0.063954 0.083636 0.000000 
0.376482 0.301039 0.000000 
0.254482 0.295791 0.000000 
0.315234 0.298527 0.000000 
0.312447 0.231352 0.000000 
0.248098 0.161272 0.000000 
0.126403 0.153590 0.000000 
0.186951 0.156729 0.000000 
0.190219 0.224367 0.000000 
0.043250 -0.181197 0.000000 
0.072190 -0.147811 0.000000 
0.041125 -0.149786 0.000000 
0.134397 -0.142851 0.000000 
0.103295 -0.145574 0.000000 
0.106013 -0.176833 0.000000 
0.098100 -0.081598 0.000000 
0.100557 -0.113812 0.000000 
0.128568 -0.079021 0.000000 
0.256649 -0.122493 0.000000 
0.226713 -0.129547 0.000000 
0.232627 -0.160292 0.000000 
0.219060 -0.066696 0.000000 
0.222241 -0.098243 0.000000 
0.249024 -0.060730 0.000000 
0.169392 -0.170489 0.000000 
0.196245 -0.135082 0.000000 
0.165419 -0.139429 0.000000 
0.214985 0.060888 0.000000 
0.215021 0.028745 0.000000 
0.245622 0.064573 0.000000 
0.156681 -0.043460 0.000000 
0.185392 -0.007397 0.000000 
0.155195 -0.010929 0.000000 
0.246002 0.001549 0.000000 
0.215628 -0.003209 0.000000 
0.216923 -0.035014 0.000000 
0.161832 -0.107801 0.000000 
0.189049 -0.071702 0.000000 
0.158892 -0.075772 0.000000 
0.500000 -0.075002 0.000000 
0.468690 -0.075870 0.000000 
0.469388 -0.100898 0.000000 
0.467789 -0.024346 0.000000 
0.468157 -0.050365 0.000000 
0.500000 -0.023623 0.000000 
0.408802 -0.108280 0.000000 
0.437497 -0.078426 0.000000 
0.406531 -0.082626 0.000000 
0.467552 0.085619 0.000000 
0.467476 0.057190 0.000000 
0.500000 0.086061 0.000000 
0.403041 -0.002758 0.000000 
0.435030 0.027716 0.000000 
0.402747 0.024985 0.000000 
0.500000 0.029977 0.000000 
0.467474 0.029401 0.000000 
0.467570 0.002231 0.000000 
0.293086 -0.142779 0.000000 
0.315631 -0.104182 0.000000 
0.286078 -0.113659 0.000000 
0.375874 -0.088393 0.000000 
0.345572 -0.095625 0.000000 
0.350003 -0.122464 0.000000 
0.340621 -0.040422 0.000000 
0.342547 -0.068300 0.000000 
0.371999 -0.034630 0.000000 
0.435664 -0.026462 0.000000 
0.403708 -0.029922 0.000000 
0.404842 -0.056531 0.000000 
0.469303 0.337035 0.000000 
[...]
POINT_DATA 4225

SCALARS u_h float 2
LOOKUP_TABLE default
0.012100 -0.183201 
-0.012100 -0.183201 
0.000000 0.000000 
0.000000 0.000000 
0.000000 -0.099961 
-0.022132 -0.130506 
0.000000 0.000000 
0.022132 -0.130506 
0.000000 -0.128421 
0.013566 -0.152882 
0.000000 -0.134917 
-0.003882 -0.153524 
-0.013566 -0.152882 
0.003882 -0.153524 
-0.004026 -0.166050 
-0.008165 -0.134050 
-0.040878 -0.082777 
-0.018016 -0.081199 
0.000000 0.000000 
0.000000 -0.078847 
0.000000 0.000000 
0.018016 -0.081199 
0.040878 -0.082777 
0.008165 -0.134050 
0.004026 -0.166050 
0.012654 -0.174017 
-0.002901 -0.154662 
0.001449 -0.171550 
0.000000 -0.122120 
-0.003894 -0.131933 
0.004131 -0.114573 
-0.000482 -0.140272 
-0.003623 -0.140640 
0.000000 -0.137106 
-0.004131 -0.114573 
0.003894 -0.131933 
-0.001449 -0.171550 
0.002901 -0.154662 
-0.012654 -0.174017 
0.003623 -0.140640 
0.000482 -0.140272 
-0.004841 -0.178760 
0.000725 -0.164102 
-0.014463 -0.136132 
-0.004989 -0.152613 
-0.011046 -0.149455 
-0.001014 -0.147371 
-0.003483 -0.130121 
-0.033346 -0.108687 
-0.023893 -0.113447 
-0.024409 -0.043939 
-0.029354 -0.083176 
-0.038704 -0.051383 
-0.014835 -0.112194 
-0.006943 -0.109732 
0.000000 0.000000 
-0.013820 -0.042162 
-0.000000 -0.041388 
-0.006244 -0.041590 
0.000000 0.000000 
-0.008396 -0.079513 
0.000000 -0.108630 
0.000000 0.000000 
0.006244 -0.041590 
0.024409 -0.043939 
0.013820 -0.042162 
0.000000 0.000000 
0.008396 -0.079513 
0.006943 -0.109732 
0.038704 -0.051383 
0.029354 -0.083176 
0.014463 -0.136132 
0.023893 -0.113447 
0.033346 -0.108687 
0.014835 -0.112194 
0.003483 -0.130121 
0.011046 -0.149455 
0.004989 -0.152613 
-0.000725 -0.164102 
0.004841 -0.178760 
0.001014 -0.147371 
0.012037 -0.179153 
0.006269 -0.173651 
0.007262 -0.178480 
0.002055 -0.154183 
0.004674 -0.166064 
0.013613 -0.166013 
-0.002841 -0.162504 
-0.000679 -0.164630 
-0.004448 -0.154555 
0.000000 -0.112070 
-0.001091 -0.115201 
0.001432 -0.103691 
-0.002470 -0.131791 
-0.002277 -0.124667 
0.000000 -0.129803 
0.008919 -0.131858 
-0.001467 -0.124275 
-0.000543 -0.138367 
0.000626 -0.134723 
-0.000389 -0.137938 
0.000000 -0.134114 
-0.004282 -0.146752 
-0.002247 -0.141633 
-0.002486 -0.146181 
0.000000 -0.137366 
-0.001319 -0.138490 
-0.002064 -0.136423 
-0.004211 -0.142758 
-0.004331 -0.137388 
-0.005060 -0.145555 
-0.001432 -0.103691 
0.001091 -0.115201 
0.000543 -0.138367 
0.001467 -0.124275 
-0.008919 -0.131858 
0.002277 -0.124667 
0.002470 -0.131791 
-0.007262 -0.178480 
-0.006269 -0.173651 
-0.012037 -0.179153 
0.004448 -0.154555 
0.000679 -0.164630 
0.002841 -0.162504 
-0.013613 -0.166013 
-0.004674 -0.166064 
-0.002055 -0.154183 
0.000389 -0.137938 
-0.000626 -0.134723 
0.002064 -0.136423 
0.001319 -0.138490 
0.002486 -0.146181 
0.002247 -0.141633 
0.004282 -0.146752 
0.004211 -0.142758 
0.005060 -0.145555 
0.004331 -0.137388 
-0.008150 -0.182197 
-0.003196 -0.175915 
-0.001454 -0.166364 
-0.001152 -0.171770 
-0.003321 -0.173142 
0.000857 -0.168303 
0.002583 -0.159638 
-0.018149 -0.134718 
-0.012705 -0.144135 
-0.016337 -0.140301 
-0.006749 -0.143992 
-0.009503 -0.145070 
-0.011119 -0.135649 
-0.006761 -0.158058 
-0.007762 -0.152507 
-0.003828 -0.159912 
-0.001482 -0.136461 
-0.001654 -0.128809 
0.001902 -0.151228 
0.000053 -0.143648 
-0.005627 -0.132016 
-0.002734 -0.138973 
-0.004482 -0.141709 
-0.001403 -0.158910 
-0.002719 -0.150633 
0.000549 -0.155771 
-0.027942 -0.120052 
-0.023610 -0.124134 
-0.032747 -0.098807 
-0.028641 -0.112226 
-0.037856 -0.096306 
-0.019407 -0.125646 
-0.015421 -0.125439 
-0.020513 -0.023581 
-0.031397 -0.046582 
-0.029652 -0.032101 
-0.023501 -0.082229 
-0.028783 -0.064715 
-0.022610 -0.063422 
-0.041592 -0.067919 
-0.035355 -0.066410 
-0.035293 -0.083646 
-0.005367 -0.121210 
-0.002616 -0.120194 
-0.011731 -0.124248 
-0.008383 -0.122679 
-0.012380 -0.096727 
-0.010732 -0.110909 
-0.017084 -0.097833 
-0.027423 -0.099357 
-0.022134 -0.098836 
-0.019248 -0.113211 
0.000000 0.000000 
-0.014734 -0.021583 
-0.007982 -0.021021 
-0.010896 -0.021131 
0.000000 0.000000 
-0.018605 -0.042747 
-0.017096 -0.062487 
-0.000000 -0.020944 
-0.001729 -0.020960 
0.000000 0.000000 
-0.003837 -0.060981 
-0.003041 -0.041450 
-0.000000 -0.060860 
0.000000 0.000000 
-0.003561 -0.020974 
-0.005602 -0.020990 
-0.003404 -0.108922 
0.000000 -0.119839 
-0.012993 -0.080261 
-0.008023 -0.095769 
0.000000 -0.094889 
-0.003938 -0.095124 
-0.004115 -0.079027 
-0.009775 -0.041817 
-0.007853 -0.061295 
-0.012219 -0.061795 
0.000000 0.000000 
0.001729 -0.020960 
0.005602 -0.020990 
0.003561 -0.020974 
0.000000 0.000000 
0.003041 -0.041450 
0.003837 -0.060981 
0.020513 -0.023581 
0.014734 -0.021583 
0.000000 0.000000 
0.017096 -0.062487 
0.018605 -0.042747 
0.022610 -0.063422 
0.000000 0.000000 
0.010896 -0.021131 
0.007982 -0.021021 
0.003404 -0.108922 
0.002616 -0.120194 
0.004115 -0.079027 
0.003938 -0.095124 
0.012380 -0.096727 
0.008023 -0.095769 
0.012993 -0.080261 
0.009775 -0.041817 
0.012219 -0.061795 
0.007853 -0.061295 
0.029652 -0.032101 
0.031397 -0.046582 
0.035293 -0.083646 
0.035355 -0.066410 
0.041592 -0.067919 
0.028783 -0.064715 
0.023501 -0.082229 
0.018149 -0.134718 
0.023610 -0.124134 
0.027942 -0.120052 
0.015421 -0.125439 
0.019407 -0.125646 
0.011119 -0.135649 
0.037856 -0.096306 
0.028641 -0.112226 
0.032747 -0.098807 
0.005367 -0.121210 
0.001654 -0.128809 
0.017084 -0.097833 
0.010732 -0.110909 
0.005627 -0.132016 
0.008383 -0.122679 
0.011731 -0.124248 
0.027423 -0.099357 
0.019248 -0.113211 
0.022134 -0.098836 
0.016337 -0.140301 
0.012705 -0.144135 
0.003828 -0.159912 
0.007762 -0.152507 
0.006761 -0.158058 
0.009503 -0.145070 
0.006749 -0.143992 
0.003196 -0.175915 
0.008150 -0.182197 
-0.002583 -0.159638 
-0.000857 -0.168303 
0.003321 -0.173142 
0.001152 -0.171770 
0.001454 -0.166364 
0.001482 -0.136461 
0.004482 -0.141709 
0.002734 -0.138973 
-0.000053 -0.143648 
-0.001902 -0.151228 
0.001403 -0.158910 
-0.000549 -0.155771 
0.002719 -0.150633 
0.012000 -0.181197 
0.009690 -0.179061 
0.009875 -0.181036 
0.009397 -0.174101 
0.009545 -0.176824 
0.012263 -0.176833 
0.004350 -0.175348 
0.006807 -0.176312 
0.003568 -0.172771 
0.006649 -0.153743 
0.007963 -0.160797 
0.013877 -0.160292 
0.000310 -0.160446 
0.003491 -0.160743 
-0.000976 -0.154480 
0.013142 -0.170489 
0.008745 -0.166332 
0.009169 -0.170679 
-0.003765 -0.157862 
-0.003729 -0.158755 
-0.004378 -0.154177 
0.000431 -0.168460 
-0.002108 -0.163647 
-0.001055 -0.167179 
-0.003998 -0.154701 
-0.003122 -0.159459 
-0.001827 -0.160014 
0.005582 -0.170301 
0.001549 -0.165452 
0.002642 -0.169522 
0.000000 -0.106252 
-0.000060 -0.107120 
0.000638 -0.100898 
-0.000961 -0.118096 
-0.000593 -0.112865 
0.000000 -0.117373 
0.002552 -0.108280 
-0.000003 -0.109676 
0.000281 -0.113876 
-0.001198 -0.133131 
-0.001274 -0.130310 
0.000000 -0.132689 
-0.003209 -0.127758 
-0.002470 -0.128534 
-0.003503 -0.131265 
0.000000 -0.126273 
-0.001276 -0.126849 
-0.001180 -0.122769 
0.011836 -0.142779 
0.003131 -0.135432 
0.004828 -0.144909 
0.000874 -0.119643 
0.001822 -0.126875 
0.006253 -0.122464 
-0.003129 -0.134172 
-0.001203 -0.130800 
-0.003001 -0.128380 
-0.001836 -0.120212 
-0.002542 -0.123672 
-0.001408 -0.119031 
0.000553 -0.131715 
0.000296 -0.134266 
0.000000 -0.131596 
-0.000489 -0.138940 
0.000113 -0.136666 
0.000253 -0.137529 
0.000000 -0.135952 
0.000039 -0.136132 
-0.000214 -0.137317 
-0.004211 -0.150141 
-0.003484 -0.146700 
-0.003376 -0.149628 
-0.002999 -0.141425 
-0.003355 -0.143918 
-0.004082 -0.143529 
-0.001452 -0.143106 
-0.002466 -0.143783 
-0.001400 -0.141253 
0.000000 -0.136479 
-0.000891 -0.136810 
-0.001065 -0.135301 
-0.000458 -0.137822 
-0.000685 -0.137652 
0.000000 -0.137577 
-0.002936 -0.138232 
-0.001723 -0.137781 
-0.002442 -0.139344 
-0.001197 -0.139707 
-0.001854 -0.139839 
-0.000870 -0.138544 
0.000584 -0.146472 
-0.004251 -0.137020 
-0.002847 -0.140777 
-0.002103 -0.147749 
-0.003743 -0.148783 
-0.002323 -0.134424 
-0.004084 -0.139292 
-0.003306 -0.136510 
-0.003513 -0.134185 
-0.004297 -0.134934 
-0.004747 -0.150280 
-0.004620 -0.149567 
-0.004914 -0.150077 
-0.004829 -0.146362 
-0.004604 -0.142633 
-0.004779 -0.139373 
-0.004861 -0.141245 
-0.004893 -0.144349 
-0.000638 -0.100898 
0.000060 -0.107120 
-0.000281 -0.113876 
0.000003 -0.109676 
-0.002552 -0.108280 
0.000593 -0.112865 
0.000961 -0.118096 
-0.004828 -0.144909 
-0.003131 -0.135432 
-0.011836 -0.142779 
0.003001 -0.128380 
0.001203 -0.130800 
0.003129 -0.134172 
-0.006253 -0.122464 
-0.001822 -0.126875 
-0.000874 -0.119643 
0.001274 -0.130310 
0.001198 -0.133131 
0.001180 -0.122769 
0.001276 -0.126849 
0.003503 -0.131265 
0.002470 -0.128534 
0.003209 -0.127758 
0.001408 -0.119031 
0.002542 -0.123672 
0.001836 -0.120212 
-0.009875 -0.181036 
-0.009690 -0.179061 
-0.012000 -0.181197 
-0.003568 -0.172771 
-0.006807 -0.176312 
-0.004350 -0.175348 
-0.012263 -0.176833 
-0.009545 -0.176824 
-0.009397 -0.174101 
0.004378 -0.154177 
0.003729 -0.158755 
0.003765 -0.157862 
0.001827 -0.160014 
0.003122 -0.159459 
0.003998 -0.154701 
0.001055 -0.167179 
0.002108 -0.163647 
-0.000431 -0.168460 
-0.013877 -0.160292 
-0.007963 -0.160797 
-0.006649 -0.153743 
-0.009169 -0.170679 
-0.008745 -0.166332 
-0.013142 -0.170489 
0.000976 -0.154480 
-0.003491 -0.160743 
-0.000310 -0.160446 
-0.002642 -0.169522 
-0.001549 -0.165452 
-0.005582 -0.170301 
-0.000296 -0.134266 
-0.000553 -0.131715 
0.000214 -0.137317 
-0.000039 -0.136132 
-0.000253 -0.137529 
-0.000113 -0.136666 
0.000489 -0.138940 
0.001065 -0.135301 
0.000891 -0.136810 
0.002442 -0.139344 
0.001723 -0.137781 
0.002936 -0.138232 
0.000685 -0.137652 
0.000458 -0.137822 
0.003376 -0.149628 
0.003484 -0.146700 
0.004211 -0.150141 
0.001400 -0.141253 
0.002466 -0.143783 
0.001452 -0.143106 
0.004082 -0.143529 
0.003355 -0.143918 
0.002999 -0.141425 
0.000870 -0.138544 
0.001854 -0.139839 
0.001197 -0.139707 
-0.000584 -0.146472 
0.003743 -0.148783 
0.002103 -0.147749 
0.002847 -0.140777 
0.004251 -0.137020 
0.004747 -0.150280 
0.004604 -0.142633 
0.004829 -0.146362 
0.004914 -0.150077 
0.004620 -0.149567 
0.002323 -0.134424 
0.004297 -0.134934 
0.003513 -0.134185 
0.003306 -0.136510 
0.004084 -0.139292 
0.004893 -0.144349 
0.004861 -0.141245 
0.004779 -0.139373 
-0.010117 -0.182976 
-0.007693 -0.180365 
-0.003996 -0.177451 
-0.005669 -0.179162 
-0.006333 -0.180788 
-0.005031 -0.177418 
-0.002363 -0.173995 
-0.002671 -0.166557 
-0.002147 -0.169776 
-0.003397 -0.169738 
0.000047 -0.168054 
-0.001018 -0.169208 
-0.000328 -0.165531 
-0.003811 -0.176180 
-0.002187 -0.172701 
-0.002811 -0.175278 
0.002971 -0.161178 
0.003324 -0.156737 
0.000027 -0.170050 
0.001864 -0.165700 
0.001703 -0.162119 
0.002057 -0.164019 
0.001073 -0.166321 
-0.001882 -0.174018 
-0.000148 -0.170317 
-0.000949 -0.172305 
-0.020106 -0.133028 
-0.017252 -0.137945 
-0.019201 -0.135494 
-0.013627 -0.140473 
-0.015394 -0.139565 
-0.016266 -0.135715 
-0.013598 -0.144950 
-0.014467 -0.142640 
-0.011808 -0.147124 
-0.007560 -0.139191 
-0.008917 -0.140044 
-0.009591 -0.134944 
-0.007162 -0.149007 
-0.008068 -0.144731 
-0.005851 -0.148465 
-0.012745 -0.136076 
-0.010384 -0.140608 
-0.011956 -0.140785 
-0.005167 -0.162142 
-0.005221 -0.159394 
-0.003716 -0.163087 
-0.009336 -0.151409 
-0.007118 -0.155499 
-0.008744 -0.153825 
-0.004281 -0.156430 
-0.005635 -0.156327 
-0.006315 -0.152872 
-0.011050 -0.144908 
-0.008592 -0.149035 
-0.010141 -0.148446 
-0.001142 -0.132105 
-0.000815 -0.128474 
-0.000485 -0.138679 
-0.001013 -0.135468 
-0.002537 -0.129370 
-0.001780 -0.132749 
-0.002488 -0.133611 
0.003035 -0.152554 
0.002297 -0.148706 
-0.000398 -0.145515 
0.001025 -0.147344 
0.000535 -0.149511 
0.001330 -0.145172 
0.000343 -0.141869 
-0.006844 -0.133049 
-0.005192 -0.136978 
-0.006317 -0.138140 
-0.003284 -0.134643 
-0.004182 -0.135788 
-0.004509 -0.131020 
-0.002701 -0.144779 
-0.003543 -0.140353 
-0.001933 -0.143192 
-0.000833 -0.140056 
-0.001312 -0.141588 
-0.002050 -0.137651 
-0.002411 -0.163260 
-0.003048 -0.155908 
-0.002559 -0.159721 
-0.001218 -0.162753 
-0.000123 -0.161636 
-0.005552 -0.142953 
-0.001790 -0.149112 
-0.003613 -0.146252 
-0.004666 -0.147514 
-0.003788 -0.151834 
0.002484 -0.155337 
0.000874 -0.159976 
0.001752 -0.157847 
0.001312 -0.153623 
-0.000131 -0.151559 
-0.001938 -0.154859 
-0.000961 -0.153376 
-0.000363 -0.157565 
-0.025060 -0.125389 
-0.022961 -0.127877 
-0.028466 -0.116787 
-0.025765 -0.122470 
-0.030724 -0.114489 
-0.020906 -0.129581 
-0.018903 -0.130616 
-0.036987 -0.090863 
-0.035343 -0.097869 
-0.039597 -0.089695 
-0.026264 -0.113069 
-0.030845 -0.105718 
-0.028334 -0.106394 
-0.035746 -0.102632 
-0.033322 -0.104508 
-0.031006 -0.110806 
-0.013303 -0.130787 
-0.011598 -0.130195 
-0.016964 -0.131092 
-0.015094 -0.131117 
-0.019552 -0.119831 
-0.017381 -0.125708 
-0.021736 -0.119772 
-0.026208 -0.118356 
-0.023960 -0.119314 
-0.021487 -0.125156 
-0.014531 -0.013203 
-0.024759 -0.026532 
-0.020796 -0.020003 
-0.027768 -0.045009 
-0.027087 -0.035487 
-0.023443 -0.033812 
-0.035214 -0.042227 
-0.031151 -0.038243 
-0.035142 -0.048748 
-0.020703 -0.081711 
-0.023390 -0.073090 
-0.020537 -0.072565 
-0.029452 -0.074240 
-0.026371 -0.073653 
-0.026394 -0.082730 
-0.023999 -0.053848 
-0.025621 -0.064015 
-0.027170 -0.054601 
-0.041589 -0.075529 
-0.038739 -0.075614 
-0.038159 -0.083458 
-0.037473 -0.058360 
-0.038577 -0.067275 
-0.040711 -0.059897 
-0.032338 -0.083510 
-0.035710 -0.075314 
-0.032587 -0.074816 
-0.030533 -0.055594 
-0.032053 -0.065523 
-0.034015 -0.056862 
-0.002153 -0.124839 
-0.001071 -0.124543 
-0.004453 -0.125988 
-0.003274 -0.125330 
-0.004595 -0.115272 
-0.003965 -0.120629 
-0.006205 -0.115789 
-0.009984 -0.129425 
-0.008464 -0.128553 
-0.011453 -0.117815 
-0.010013 -0.123478 
-0.013364 -0.118508 
-0.007038 -0.127650 
-0.005704 -0.126777 
-0.015242 -0.089267 
-0.014687 -0.097275 
-0.017747 -0.089793 
-0.008801 -0.110288 
-0.011663 -0.104115 
-0.009573 -0.103552 
-0.016093 -0.105303 
-0.013836 -0.104710 
-0.012742 -0.111559 
-0.006836 -0.121907 
-0.009625 -0.117099 
-0.007878 -0.116410 
-0.034263 -0.091462 
-0.028637 -0.091540 
-0.031465 -0.091647 
-0.030096 -0.099263 
-0.025813 -0.106651 
-0.020353 -0.090319 
-0.018431 -0.105849 
-0.019570 -0.098367 
-0.023049 -0.090814 
-0.025820 -0.091239 
-0.013535 -0.124926 
-0.021549 -0.113465 
-0.017421 -0.119586 
-0.015355 -0.119120 
-0.017006 -0.112764 
-0.024759 -0.099187 
-0.020841 -0.106299 
-0.023308 -0.106590 
0.000000 0.000000 
-0.011215 -0.011331 
-0.007818 -0.010517 
-0.009235 -0.010735 
0.000000 0.000000 
-0.017267 -0.022217 
-0.020302 -0.032850 
-0.004205 -0.010445 
-0.004933 -0.010429 
0.000000 0.000000 
-0.013110 -0.031768 
-0.009356 -0.021058 
-0.011213 -0.031633 
0.000000 0.000000 
-0.005753 -0.010423 
-0.006695 -0.010441 
-0.019768 -0.062919 
-0.017822 -0.072082 
-0.021361 -0.043228 
-0.021048 -0.053277 
-0.015777 -0.052484 
-0.018312 -0.052836 
-0.016104 -0.042410 
-0.012660 -0.021279 
-0.015218 -0.031971 
-0.017590 -0.032298 
-0.000000 -0.010510 
-0.000449 -0.010514 
0.000000 0.000000 
-0.001214 -0.031270 
-0.000858 -0.020953 
-0.000000 -0.031255 
0.000000 0.000000 
-0.000906 -0.010513 
-0.001377 -0.010509 
-0.002008 -0.070113 
-0.001908 -0.060896 
-0.000000 -0.070070 
-0.004612 -0.041510 
-0.003506 -0.051369 
-0.005313 -0.051464 
-0.000000 -0.051278 
-0.001742 -0.051306 
-0.001510 -0.041409 
0.000000 0.000000 
-0.002946 -0.010478 
-0.003547 -0.010462 
-0.001869 -0.010502 
-0.002389 -0.010492 
0.000000 0.000000 
-0.006418 -0.031406 
-0.004548 -0.020981 
-0.005030 -0.031359 
-0.002446 -0.031292 
-0.003712 -0.031321 
-0.002626 -0.020967 
-0.001301 -0.119928 
0.000000 -0.124455 
-0.005149 -0.109269 
-0.003036 -0.114884 
0.000000 -0.114561 
-0.001510 -0.114644 
-0.001694 -0.108707 
-0.015446 -0.080712 
-0.012838 -0.088766 
-0.008311 -0.087910 
-0.010531 -0.088308 
-0.010646 -0.079858 
-0.010161 -0.096217 
-0.007558 -0.103052 
0.000000 -0.087136 
-0.002029 -0.087193 
-0.002047 -0.078897 
-0.001846 -0.102134 
-0.001960 -0.094952 
0.000000 -0.102064 
-0.006225 -0.079234 
-0.004078 -0.087344 
-0.006166 -0.087586 
-0.005608 -0.102637 
-0.005954 -0.095400 
-0.003709 -0.102327 
-0.006740 -0.021002 
-0.007958 -0.041692 
-0.007896 -0.031464 
-0.009485 -0.031537 
-0.011721 -0.041970 
-0.004038 -0.070221 
-0.008250 -0.070623 
-0.006112 -0.070392 
-0.005812 -0.061114 
-0.007186 -0.051594 
-0.015245 -0.071644 
-0.013419 -0.052196 
-0.014584 -0.062116 
-0.012800 -0.071252 
-0.010473 -0.070911 
-0.009147 -0.051757 
-0.009981 -0.061522 
-0.011217 -0.051957 
0.000000 0.000000 
0.000449 -0.010514 
0.001377 -0.010509 
0.000906 -0.010513 
0.000000 0.000000 
0.000858 -0.020953 
0.001214 -0.031270 
0.003547 -0.010462 
0.002946 -0.010478 
0.000000 0.000000 
0.005030 -0.031359 
0.004548 -0.020981 
0.006418 -0.031406 
0.000000 0.000000 
0.002389 -0.010492 
0.001869 -0.010502 
0.001908 -0.060896 
0.002008 -0.070113 
0.001510 -0.041409 
0.001742 -0.051306 
0.005313 -0.051464 
0.003506 -0.051369 
0.004612 -0.041510 
0.002626 -0.020967 
0.003712 -0.031321 
0.002446 -0.031292 
0.014531 -0.013203 
0.011215 -0.011331 
0.000000 0.000000 
0.020302 -0.032850 
0.017267 -0.022217 
0.023443 -0.033812 
0.000000 0.000000 
0.009235 -0.010735 
0.007818 -0.010517 
0.017822 -0.072082 
0.019768 -0.062919 
0.020537 -0.072565 
0.016104 -0.042410 
0.018312 -0.052836 
0.015777 -0.052484 
0.023999 -0.053848 
0.021048 -0.053277 
0.021361 -0.043228 
0.000000 0.000000 
0.004933 -0.010429 
0.004205 -0.010445 
0.006695 -0.010441 
0.005753 -0.010423 
0.000000 0.000000 
0.011213 -0.031633 
0.009356 -0.021058 
0.013110 -0.031768 
0.017590 -0.032298 
0.015218 -0.031971 
0.012660 -0.021279 
0.001301 -0.119928 
0.001071 -0.124543 
0.001694 -0.108707 
0.001510 -0.114644 
0.004595 -0.115272 
0.003036 -0.114884 
0.005149 -0.109269 
0.002047 -0.078897 
0.002029 -0.087193 
0.006166 -0.087586 
0.004078 -0.087344 
0.006225 -0.079234 
0.001960 -0.094952 
0.001846 -0.102134 
0.015242 -0.089267 
0.012838 -0.088766 
0.015446 -0.080712 
0.007558 -0.103052 
0.010161 -0.096217 
0.009573 -0.103552 
0.010646 -0.079858 
0.010531 -0.088308 
0.008311 -0.087910 
0.003709 -0.102327 
0.005954 -0.095400 
0.005608 -0.102637 
0.006740 -0.021002 
0.011721 -0.041970 
0.009485 -0.031537 
0.007896 -0.031464 
0.007958 -0.041692 
0.015245 -0.071644 
0.010473 -0.070911 
0.012800 -0.071252 
0.014584 -0.062116 
0.013419 -0.052196 
0.004038 -0.070221 
0.007186 -0.051594 
0.005812 -0.061114 
0.006112 -0.070392 
0.008250 -0.070623 
0.011217 -0.051957 
0.009981 -0.061522 
0.009147 -0.051757 
0.020796 -0.020003 
0.024759 -0.026532 
0.035142 -0.048748 
0.031151 -0.038243 
0.035214 -0.042227 
0.027087 -0.035487 
0.027768 -0.045009 
0.038159 -0.083458 
0.038739 -0.075614 
0.041589 -0.075529 
0.032587 -0.074816 
0.035710 -0.075314 
0.032338 -0.083510 
0.040711 -0.059897 
0.038577 -0.067275 
0.037473 -0.058360 
0.023390 -0.073090 
0.020703 -0.081711 
0.027170 -0.054601 
0.025621 -0.064015 
0.026394 -0.082730 
0.026371 -0.073653 
0.029452 -0.074240 
0.034015 -0.056862 
0.032053 -0.065523 
0.030533 -0.055594 
0.020106 -0.133028 
0.022961 -0.127877 
0.025060 -0.125389 
0.018903 -0.130616 
0.020906 -0.129581 
0.016266 -0.135715 
0.030724 -0.114489 
0.025765 -0.122470 
0.028466 -0.116787 
0.011598 -0.130195 
0.013303 -0.130787 
0.009591 -0.134944 
0.021736 -0.119772 
0.017381 -0.125708 
0.019552 -0.119831 
0.012745 -0.136076 
0.015094 -0.131117 
0.016964 -0.131092 
0.039597 -0.089695 
0.035343 -0.097869 
0.036987 -0.090863 
0.031006 -0.110806 
0.033322 -0.104508 
0.035746 -0.102632 
0.028334 -0.106394 
0.030845 -0.105718 
0.026264 -0.113069 
0.021487 -0.125156 
0.023960 -0.119314 
0.026208 -0.118356 
0.002153 -0.124839 
0.000815 -0.128474 
0.006205 -0.115789 
0.003965 -0.120629 
0.002537 -0.129370 
0.003274 -0.125330 
0.004453 -0.125988 
0.017747 -0.089793 
0.014687 -0.097275 
0.012742 -0.111559 
0.013836 -0.104710 
0.016093 -0.105303 
0.011663 -0.104115 
0.008801 -0.110288 
0.006844 -0.133049 
0.008464 -0.128553 
0.009984 -0.129425 
0.005704 -0.126777 
0.007038 -0.127650 
0.004509 -0.131020 