# vtk DataFile Version 2.0
Unstructured Grid Example
ASCII
DATASET UNSTRUCTURED_GRID

POINTS 1089 float
0.012096 -0.182937 0.000000 
0.987904 -0.182937 0.000000 
1.000000 1.000000 0.000000 
0.000000 1.000000 0.000000 
0.500000 -0.099845 0.000000 
0.977815 0.369754 0.000000 
0.500000 1.000000 0.000000 
0.022185 0.369754 0.000000 
0.500000 0.371608 0.000000 
0.262683 -0.152523 0.000000 
0.500000 0.115359 0.000000 
0.246188 0.096665 0.000000 
0.737317 -0.152523 0.000000 
0.753812 0.096665 0.000000 
0.995958 0.084361 0.000000 
0.741807 0.366213 0.000000 
0.959310 0.667259 0.000000 
0.732093 0.669012 0.000000 
0.750000 1.000000 0.000000 
0.500000 0.671397 0.000000 
0.250000 1.000000 0.000000 
0.267907 0.669012 0.000000 
0.040690 0.667259 0.000000 
0.258193 0.366213 0.000000 
0.004042 0.084361 0.000000 
0.137443 -0.173516 0.000000 
0.247157 -0.029498 0.000000 
0.126294 -0.046114 0.000000 
0.500000 0.003166 0.000000 
0.371107 -0.006780 0.000000 
0.379261 -0.114433 0.000000 
0.374515 0.234966 0.000000 
0.371386 0.109575 0.000000 
0.500000 0.238120 0.000000 
0.620739 -0.114433 0.000000 
0.628893 -0.006780 0.000000 
0.873706 -0.046114 0.000000 
0.752843 -0.029498 0.000000 
0.862557 -0.173516 0.000000 
0.628614 0.109575 0.000000 
0.625485 0.234966 0.000000 
0.995381 -0.053219 0.000000 
0.875669 0.086193 0.000000 
0.860478 0.364124 0.000000 
0.869924 0.222646 0.000000 
0.988868 0.225795 0.000000 
0.748938 0.227862 0.000000 
0.621520 0.370127 0.000000 
0.966731 0.516408 0.000000 
0.851139 0.511781 0.000000 
0.850896 0.831253 0.000000 
0.845797 0.667028 0.000000 
0.961641 0.823741 0.000000 
0.735183 0.513056 0.000000 
0.618053 0.515501 0.000000 
0.875000 1.000000 0.000000 
0.736329 0.832961 0.000000 
0.500000 0.833771 0.000000 
0.618815 0.833510 0.000000 
0.625000 1.000000 0.000000 
0.616653 0.670681 0.000000 
0.500000 0.516598 0.000000 
0.375000 1.000000 0.000000 
0.381185 0.833510 0.000000 
0.149104 0.831253 0.000000 
0.263671 0.832961 0.000000 
0.125000 1.000000 0.000000 
0.383347 0.670681 0.000000 
0.381947 0.515501 0.000000 
0.038359 0.823741 0.000000 
0.154203 0.667028 0.000000 
0.139522 0.364124 0.000000 
0.148861 0.511781 0.000000 
0.033269 0.516408 0.000000 
0.264817 0.513056 0.000000 
0.378480 0.370127 0.000000 
0.011132 0.225795 0.000000 
0.130076 0.222646 0.000000 
0.124331 0.086193 0.000000 
0.004619 -0.053219 0.000000 
0.251062 0.227862 0.000000 
0.074447 -0.178711 0.000000 
0.130978 -0.110633 0.000000 
0.069494 -0.115503 0.000000 
0.251989 -0.091461 0.000000 
0.191912 -0.103071 0.000000 
0.200649 -0.165467 0.000000 
0.184702 0.025253 0.000000 
0.186773 -0.039287 0.000000 
0.245625 0.033114 0.000000 
0.500000 -0.049315 0.000000 
0.436423 -0.052518 0.000000 
0.439082 -0.103558 0.000000 
0.435023 0.055940 0.000000 
0.435216 0.000543 0.000000 
0.500000 0.057984 0.000000 
0.321208 -0.131828 0.000000 
0.373530 -0.061658 0.000000 
0.311944 -0.075832 0.000000 
0.438103 0.302990 0.000000 
0.437097 0.237294 0.000000 
0.500000 0.303550 0.000000 
0.308257 0.103442 0.000000 
0.372757 0.171098 0.000000 
0.310044 0.166537 0.000000 
0.500000 0.175391 0.000000 
0.436173 0.174253 0.000000 
0.435430 0.113819 0.000000 
0.308326 -0.017642 0.000000 
0.370678 0.050302 0.000000 
0.307483 0.042108 0.000000 
0.560918 -0.103558 0.000000 
0.563577 -0.052518 0.000000 
0.688056 -0.075832 0.000000 
0.626470 -0.061658 0.000000 
0.678792 -0.131828 0.000000 
0.564784 0.000543 0.000000 
0.564977 0.055940 0.000000 
0.930506 -0.115503 0.000000 
0.869022 -0.110633 0.000000 
0.925553 -0.178711 0.000000 
0.754375 0.033114 0.000000 
0.813227 -0.039287 0.000000 
0.815298 0.025253 0.000000 
0.799351 -0.165467 0.000000 
0.808088 -0.103071 0.000000 
0.748011 -0.091461 0.000000 
0.562903 0.237294 0.000000 
0.561897 0.302990 0.000000 
0.564570 0.113819 0.000000 
0.563827 0.174253 0.000000 
0.689956 0.166537 0.000000 
0.627243 0.171098 0.000000 
0.691743 0.103442 0.000000 
0.691674 -0.017642 0.000000 
0.692517 0.042108 0.000000 
0.629322 0.050302 0.000000 
0.992095 -0.119263 0.000000 
0.934511 -0.050457 0.000000 
0.936012 0.083993 0.000000 
0.936418 0.016142 0.000000 
0.996772 0.014867 0.000000 
0.875880 0.019545 0.000000 
0.815007 0.090591 0.000000 
0.919289 0.365528 0.000000 
0.924720 0.293622 0.000000 
0.983587 0.297430 0.000000 
0.805694 0.293760 0.000000 
0.865425 0.292687 0.000000 
0.801334 0.364612 0.000000 
0.993166 0.154756 0.000000 
0.929648 0.222769 0.000000 
0.933589 0.152896 0.000000 
0.623527 0.301282 0.000000 
0.560855 0.371394 0.000000 
0.751841 0.161483 0.000000 
0.687533 0.231589 0.000000 
0.681864 0.368246 0.000000 
0.684754 0.298778 0.000000 
0.745482 0.296041 0.000000 
0.873510 0.153858 0.000000 
0.809709 0.224607 0.000000 
0.812968 0.156959 0.000000 
0.972075 0.442603 0.000000 
0.913879 0.438581 0.000000 
0.904856 0.588858 0.000000 
0.908906 0.512960 0.000000 
0.962275 0.591252 0.000000 
0.855575 0.437099 0.000000 
0.797063 0.437319 0.000000 
0.917482 0.914195 0.000000 
0.906448 0.828617 0.000000 
0.970765 0.905967 0.000000 
0.789133 0.667987 0.000000 
0.846443 0.747985 0.000000 
0.790084 0.749275 0.000000 
0.958664 0.744619 0.000000 
0.902387 0.746262 0.000000 
0.902372 0.666513 0.000000 
0.619617 0.441531 0.000000 
0.559861 0.442511 0.000000 
0.738256 0.438513 0.000000 
0.679106 0.440078 0.000000 
0.675162 0.591000 0.000000 
0.676776 0.514335 0.000000 
0.732976 0.589900 0.000000 
0.847665 0.588357 0.000000 
0.790441 0.588895 0.000000 
0.793277 0.512036 0.000000 
0.937500 1.000000 0.000000 
0.860530 0.916033 0.000000 
0.742103 0.916532 0.000000 
0.801748 0.916438 0.000000 
0.812500 1.000000 0.000000 
0.794118 0.832407 0.000000 
0.733053 0.750191 0.000000 
0.500000 0.916642 0.000000 
0.560790 0.916594 0.000000 
0.562500 1.000000 0.000000 
0.558693 0.751685 0.000000 
0.559488 0.833663 0.000000 
0.500000 0.751853 0.000000 
0.687500 1.000000 0.000000 
0.621473 0.916572 0.000000 
0.681951 0.916557 0.000000 
0.559086 0.516299 0.000000 
0.500000 0.442826 0.000000 
0.674587 0.669940 0.000000 
0.617000 0.591951 0.000000 
0.500000 0.592862 0.000000 
0.558569 0.592599 0.000000 
0.558407 0.671178 0.000000 
0.677821 0.833288 0.000000 
0.617211 0.751358 0.000000 
0.675385 0.750865 0.000000 
0.437500 1.000000 0.000000 
0.439210 0.916594 0.000000 
0.318049 0.916557 0.000000 
0.378527 0.916572 0.000000 
0.312500 1.000000 0.000000 
0.440512 0.833663 0.000000 
0.441307 0.751685 0.000000 
0.082518 0.914195 0.000000 
0.139470 0.916033 0.000000 
0.062500 1.000000 0.000000 
0.266947 0.750191 0.000000 
0.205882 0.832407 0.000000 
0.209916 0.749275 0.000000 
0.187500 1.000000 0.000000 
0.198252 0.916438 0.000000 
0.257897 0.916532 0.000000 
0.440914 0.516299 0.000000 
0.440139 0.442511 0.000000 
0.441593 0.671178 0.000000 
0.441431 0.592599 0.000000 
0.324838 0.591000 0.000000 
0.383000 0.591951 0.000000 
0.325413 0.669940 0.000000 
0.322179 0.833288 0.000000 
0.324615 0.750865 0.000000 
0.382789 0.751358 0.000000 
0.029235 0.905967 0.000000 
0.093552 0.828617 0.000000 
0.097628 0.666513 0.000000 
0.097613 0.746262 0.000000 
0.041336 0.744619 0.000000 
0.153557 0.747985 0.000000 
0.210867 0.667987 0.000000 
0.080711 0.365528 0.000000 
0.086121 0.438581 0.000000 
0.027925 0.442603 0.000000 
0.202937 0.437319 0.000000 
0.144425 0.437099 0.000000 
0.198666 0.364612 0.000000 
0.037725 0.591252 0.000000 
0.091094 0.512960 0.000000 
0.095144 0.588858 0.000000 
0.380383 0.441531 0.000000 
0.439145 0.371394 0.000000 
0.267024 0.589900 0.000000 
0.323224 0.514335 0.000000 
0.318136 0.368246 0.000000 
0.320894 0.440078 0.000000 
0.261744 0.438513 0.000000 
0.152335 0.588357 0.000000 
0.206723 0.512036 0.000000 
0.209559 0.588895 0.000000 
0.016413 0.297430 0.000000 
0.075280 0.293622 0.000000 
0.066411 0.152896 0.000000 
0.070352 0.222769 0.000000 
0.006834 0.154756 0.000000 
0.134575 0.292687 0.000000 
0.194306 0.293760 0.000000 
0.065489 -0.050457 0.000000 
0.007905 -0.119263 0.000000 
0.184993 0.090591 0.000000 
0.124120 0.019545 0.000000 
0.003228 0.014867 0.000000 
0.063582 0.016142 0.000000 
0.063988 0.083993 0.000000 
0.376473 0.301282 0.000000 
0.254518 0.296041 0.000000 
0.315246 0.298778 0.000000 
0.312467 0.231589 0.000000 
0.248159 0.161483 0.000000 
0.126490 0.153858 0.000000 
0.187032 0.156959 0.000000 
0.190291 0.224607 0.000000 
0.043203 -0.180801 0.000000 
0.071976 -0.147344 0.000000 
0.040936 -0.149363 0.000000 
0.134095 -0.142325 0.000000 
0.103043 -0.145076 0.000000 
0.105872 -0.176361 0.000000 
0.097852 -0.081116 0.000000 
0.100278 -0.113311 0.000000 
0.128338 -0.078537 0.000000 
0.256343 -0.122184 0.000000 
0.226300 -0.129051 0.000000 
0.231953 -0.159777 0.000000 
0.219006 -0.066382 0.000000 
0.222056 -0.097843 0.000000 
0.249049 -0.060551 0.000000 
0.169079 -0.169959 0.000000 
0.195835 -0.134530 0.000000 
0.165059 -0.138880 0.000000 
0.215059 0.061090 0.000000 
0.215087 0.028952 0.000000 
0.245694 0.064751 0.000000 
0.156574 -0.043057 0.000000 
0.185400 -0.007106 0.000000 
0.155156 -0.010581 0.000000 
0.246072 0.001712 0.000000 
0.215677 -0.002986 0.000000 
0.216938 -0.034758 0.000000 
0.161540 -0.107279 0.000000 
0.188913 -0.071289 0.000000 
0.158697 -0.075306 0.000000 
0.500000 -0.074793 0.000000 
0.468728 -0.075691 0.000000 
0.469489 -0.100776 0.000000 
0.467788 -0.024113 0.000000 
0.468168 -0.050153 0.000000 
0.500000 -0.023346 0.000000 
0.408963 -0.108139 0.000000 
0.437553 -0.078263 0.000000 
0.406583 -0.082480 0.000000 
0.467546 0.085878 0.000000 
0.467470 0.057448 0.000000 
0.500000 0.086343 0.000000 
0.403036 -0.002577 0.000000 
0.435022 0.027938 0.000000 
0.402743 0.025180 0.000000 
0.500000 0.030265 0.000000 
0.467468 0.029653 0.000000 
0.467565 0.002476 0.000000 
0.292401 -0.142955 0.000000 
0.315538 -0.104206 0.000000 
0.285966 -0.113679 0.000000 
0.375898 -0.088276 0.000000 
0.345545 -0.095562 0.000000 
0.350033 -0.122350 0.000000 
0.340622 -0.040321 0.000000 
0.342530 -0.068229 0.000000 
0.371994 -0.034498 0.000000 
0.435663 -0.026265 0.000000 
0.403704 -0.029757 0.000000 
0.404852 -0.056378 0.000000 
0.469279 0.337199 0.000000 
[...]
POINT_DATA 1089

SCALARS u_h float 2
LOOKUP_TABLE default
0.012096 -0.182937 
-0.012096 -0.182937 
0.000000 0.000000 
0.000000 0.000000 
-0.000000 -0.099845 
-0.022185 -0.130246 
0.000000 0.000000 
0.022185 -0.130246 
0.000000 -0.128392 
0.012683 -0.152523 
0.000000 -0.134641 
-0.003812 -0.153335 
-0.012683 -0.152523 
0.003812 -0.153335 
-0.004042 -0.165639 
-0.008193 -0.133787 
-0.040690 -0.082741 
-0.017907 -0.080988 
0.000000 0.000000 
-0.000000 -0.078603 
0.000000 0.000000 
0.017907 -0.080988 
0.040690 -0.082741 
0.008193 -0.133787 
0.004042 -0.165639 
0.012443 -0.173516 
-0.002843 -0.154498 
0.001294 -0.171114 
0.000000 -0.121834 
-0.003893 -0.131780 
0.004261 -0.114433 
-0.000485 -0.140034 
-0.003614 -0.140425 
0.000000 -0.136880 
-0.004261 -0.114433 
0.003893 -0.131780 
-0.001294 -0.171114 
0.002843 -0.154498 
-0.012443 -0.173516 
0.003614 -0.140425 
0.000485 -0.140034 
-0.004619 -0.178219 
0.000669 -0.163807 
-0.014522 -0.135876 
-0.005076 -0.152354 
-0.011132 -0.149205 
-0.001062 -0.147138 
-0.003480 -0.129873 
-0.033269 -0.108592 
-0.023861 -0.113219 
-0.024104 -0.043747 
-0.029203 -0.082972 
-0.038359 -0.051259 
-0.014817 -0.111944 
-0.006947 -0.109499 
0.000000 0.000000 
-0.013671 -0.042039 
-0.000000 -0.041229 
-0.006185 -0.041490 
0.000000 0.000000 
-0.008347 -0.079319 
0.000000 -0.108402 
0.000000 0.000000 
0.006185 -0.041490 
0.024104 -0.043747 
0.013671 -0.042039 
0.000000 0.000000 
0.008347 -0.079319 
0.006947 -0.109499 
0.038359 -0.051259 
0.029203 -0.082972 
0.014522 -0.135876 
0.023861 -0.113219 
0.033269 -0.108592 
0.014817 -0.111944 
0.003480 -0.129873 
0.011132 -0.149205 
0.005076 -0.152354 
-0.000669 -0.163807 
0.004619 -0.178219 
0.001062 -0.147138 
0.011947 -0.178711 
0.005978 -0.173133 
0.006994 -0.178003 
0.001989 -0.153961 
0.004412 -0.165571 
0.013149 -0.165467 
-0.002798 -0.162247 
-0.000727 -0.164287 
-0.004375 -0.154386 
0.000000 -0.111815 
-0.001077 -0.115018 
0.001582 -0.103558 
-0.002477 -0.131560 
-0.002284 -0.124457 
0.000000 -0.129516 
0.008708 -0.131828 
-0.001470 -0.124158 
-0.000556 -0.138332 
0.000603 -0.134510 
-0.000403 -0.137706 
0.000000 -0.133950 
-0.004243 -0.146558 
-0.002243 -0.141402 
-0.002456 -0.145963 
0.000000 -0.137109 
-0.001327 -0.138247 
-0.002070 -0.136181 
-0.004174 -0.142642 
-0.004322 -0.137198 
-0.005017 -0.145392 
-0.001582 -0.103558 
0.001077 -0.115018 
0.000556 -0.138332 
0.001470 -0.124158 
-0.008708 -0.131828 
0.002284 -0.124457 
0.002477 -0.131560 
-0.006994 -0.178003 
-0.005978 -0.173133 
-0.011947 -0.178711 
0.004375 -0.154386 
0.000727 -0.164287 
0.002798 -0.162247 
-0.013149 -0.165467 
-0.004412 -0.165571 
-0.001989 -0.153961 
0.000403 -0.137706 
-0.000603 -0.134510 
0.002070 -0.136181 
0.001327 -0.138247 
0.002456 -0.145963 
0.002243 -0.141402 
0.004243 -0.146558 
0.004174 -0.142642 
0.005017 -0.145392 
0.004322 -0.137198 
-0.007905 -0.181763 
-0.002989 -0.175457 
-0.001488 -0.166007 
-0.001082 -0.171358 
-0.003228 -0.172633 
0.000880 -0.167955 
0.002507 -0.159409 
-0.018211 -0.134472 
-0.012780 -0.143878 
-0.016413 -0.140070 
-0.006806 -0.143740 
-0.009575 -0.144813 
-0.011166 -0.135388 
-0.006834 -0.157744 
-0.007852 -0.152231 
-0.003911 -0.159604 
-0.001473 -0.136218 
-0.001645 -0.128606 
0.001841 -0.151017 
0.000033 -0.143411 
-0.005636 -0.131754 
-0.002746 -0.138722 
-0.004518 -0.141459 
-0.001490 -0.158642 
-0.002791 -0.150393 
0.000468 -0.155541 
-0.027925 -0.119897 
-0.023621 -0.123919 
-0.032644 -0.098642 
-0.028594 -0.112040 
-0.037725 -0.096248 
-0.019425 -0.125401 
-0.015437 -0.125181 
-0.020018 -0.023305 
-0.031052 -0.046383 
-0.029235 -0.031533 
-0.023367 -0.082013 
-0.028557 -0.064515 
-0.022416 -0.063225 
-0.041336 -0.067881 
-0.035113 -0.066238 
-0.035128 -0.083487 
-0.005383 -0.120969 
-0.002639 -0.119989 
-0.011744 -0.123987 
-0.008394 -0.122422 
-0.012338 -0.096500 
-0.010724 -0.110665 
-0.017024 -0.097600 
-0.027335 -0.099143 
-0.022059 -0.098605 
-0.019223 -0.112964 
0.000000 0.000000 
-0.014470 -0.021467 
-0.007897 -0.020968 
-0.010752 -0.021062 
0.000000 0.000000 
-0.018382 -0.042593 
-0.016947 -0.062309 
-0.000000 -0.020858 
-0.001710 -0.020906 
0.000000 0.000000 
-0.003807 -0.060815 
-0.003012 -0.041337 
-0.000000 -0.060647 
0.000000 0.000000 
-0.003527 -0.020928 
-0.005549 -0.020943 
-0.003414 -0.108701 
0.000000 -0.119674 
-0.012913 -0.080060 
-0.008000 -0.095549 
-0.000000 -0.094638 
-0.003931 -0.094901 
-0.004093 -0.078822 
-0.009679 -0.041712 
-0.007789 -0.061142 
-0.012115 -0.061635 
0.000000 0.000000 
0.001710 -0.020906 
0.005549 -0.020943 
0.003527 -0.020928 
0.000000 0.000000 
0.003012 -0.041337 
0.003807 -0.060815 
0.020018 -0.023305 
0.014470 -0.021467 
0.000000 0.000000 
0.016947 -0.062309 
0.018382 -0.042593 
0.022416 -0.063225 
0.000000 0.000000 
0.010752 -0.021062 
0.007897 -0.020968 
0.003414 -0.108701 
0.002639 -0.119989 
0.004093 -0.078822 
0.003931 -0.094901 
0.012338 -0.096500 
0.008000 -0.095549 
0.012913 -0.080060 
0.009679 -0.041712 
0.012115 -0.061635 
0.007789 -0.061142 
0.029235 -0.031533 
0.031052 -0.046383 
0.035128 -0.083487 
0.035113 -0.066238 
0.041336 -0.067881 
0.028557 -0.064515 
0.023367 -0.082013 
0.018211 -0.134472 
0.023621 -0.123919 
0.027925 -0.119897 
0.015437 -0.125181 
0.019425 -0.125401 
0.011166 -0.135388 
0.037725 -0.096248 
0.028594 -0.112040 
0.032644 -0.098642 
0.005383 -0.120969 
0.001645 -0.128606 
0.017024 -0.097600 
0.010724 -0.110665 
0.005636 -0.131754 
0.008394 -0.122422 
0.011744 -0.123987 
0.027335 -0.099143 
0.019223 -0.112964 
0.022059 -0.098605 
0.016413 -0.140070 
0.012780 -0.143878 
0.003911 -0.159604 
0.007852 -0.152231 
0.006834 -0.157744 
0.009575 -0.144813 
0.006806 -0.143740 
0.002989 -0.175457 
0.007905 -0.181763 
-0.002507 -0.159409 
-0.000880 -0.167955 
0.003228 -0.172633 
0.001082 -0.171358 
0.001488 -0.166007 
0.001473 -0.136218 
0.004518 -0.141459 
0.002746 -0.138722 
-0.000033 -0.143411 
-0.001841 -0.151017 
0.001490 -0.158642 
-0.000468 -0.155541 
0.002791 -0.150393 
0.011953 -0.180801 
0.009476 -0.178594 
0.009686 -0.180613 
0.009095 -0.173575 
0.009293 -0.176326 
0.012122 -0.176361 
0.004102 -0.174866 
0.006528 -0.175811 
0.003338 -0.172287 
0.006343 -0.153434 
0.007550 -0.160301 
0.013203 -0.159777 
0.000256 -0.160132 
0.003306 -0.160343 
-0.000951 -0.154301 
0.012829 -0.169959 
0.008335 -0.165780 
0.008809 -0.170130 
-0.003691 -0.157660 
-0.003663 -0.158548 
-0.004306 -0.153999 
0.000324 -0.168057 
-0.002100 -0.163356 
-0.001094 -0.166831 
-0.003928 -0.154538 
-0.003073 -0.159236 
-0.001812 -0.159758 
0.005290 -0.169779 
0.001413 -0.165039 
0.002447 -0.169056 
0.000000 -0.106043 
-0.000022 -0.106941 
0.000739 -0.100776 
-0.000962 -0.117863 
-0.000582 -0.112653 
0.000000 -0.117096 
0.002713 -0.108139 
0.000053 -0.109513 
0.000333 -0.113730 
-0.001204 -0.132872 
-0.001280 -0.130052 
0.000000 -0.132407 
-0.003214 -0.127577 
-0.002478 -0.128312 
-0.003507 -0.131070 
0.000000 -0.125985 
-0.001282 -0.126597 
-0.001185 -0.122524 
0.011151 -0.142955 
0.003038 -0.135456 
0.004716 -0.144929 
0.000898 -0.119526 
0.001795 -0.126812 
0.006283 -0.122350 
-0.003128 -0.134071 
-0.001220 -0.130729 
-0.003006 -0.128248 
-0.001837 -0.120015 
-0.002546 -0.123507 
-0.001398 -0.118878 
0.000529 -0.131551 
0.000277 -0.134076 
0.000000 -0.131488 
-0.000500 -0.138704 
0.000095 -0.136443 
0.000238 -0.137296 
0.000000 -0.135751 
0.000025 -0.135921 
-0.000225 -0.137089 
-0.004156 -0.149954 
-0.003449 -0.146493 
-0.003325 -0.149427 
-0.002991 -0.141200 
-0.003335 -0.143703 
-0.004060 -0.143325 
-0.001440 -0.142874 
-0.002450 -0.143559 
-0.001400 -0.141018 
0.000000 -0.136210 
-0.000896 -0.136554 
-0.001071 -0.135042 
-0.000466 -0.137582 
-0.000692 -0.137402 
0.000000 -0.137332 
-0.002936 -0.138004 
-0.001729 -0.137537 
-0.002443 -0.139111 
-0.001204 -0.139470 
-0.001858 -0.139602 
-0.000881 -0.138305 
0.000599 -0.146435 
-0.004237 -0.136890 
-0.002825 -0.140695 
-0.002051 -0.147669 
-0.003681 -0.148672 
-0.002328 -0.134186 
-0.004074 -0.139087 
-0.003306 -0.136290 
-0.003514 -0.133976 
-0.004291 -0.134762 
-0.004688 -0.150107 
-0.004556 -0.149432 
-0.004851 -0.149921 
-0.004787 -0.146183 
-0.004579 -0.142443 
-0.004757 -0.139219 
-0.004837 -0.141070 
-0.004851 -0.144208 
-0.000739 -0.100776 
0.000022 -0.106941 
-0.000333 -0.113730 
-0.000053 -0.109513 
-0.002713 -0.108139 
0.000582 -0.112653 
0.000962 -0.117863 
-0.004716 -0.144929 
-0.003038 -0.135456 
-0.011151 -0.142955 
0.003006 -0.128248 
0.001220 -0.130729 
0.003128 -0.134071 
-0.006283 -0.122350 
-0.001795 -0.126812 
-0.000898 -0.119526 
0.001280 -0.130052 
0.001204 -0.132872 
0.001185 -0.122524 
0.001282 -0.126597 
0.003507 -0.131070 
0.002478 -0.128312 
0.003214 -0.127577 
0.001398 -0.118878 
0.002546 -0.123507 
0.001837 -0.120015 
-0.009686 -0.180613 
-0.009476 -0.178594 
-0.011953 -0.180801 
-0.003338 -0.172287 
-0.006528 -0.175811 
-0.004102 -0.174866 
-0.012122 -0.176361 
-0.009293 -0.176326 
-0.009095 -0.173575 
0.004306 -0.153999 
0.003663 -0.158548 
0.003691 -0.157660 
0.001812 -0.159758 
0.003073 -0.159236 
0.003928 -0.154538 
0.001094 -0.166831 
0.002100 -0.163356 
-0.000324 -0.168057 
-0.013203 -0.159777 
-0.007550 -0.160301 
-0.006343 -0.153434 
-0.008809 -0.170130 
-0.008335 -0.165780 
-0.012829 -0.169959 
0.000951 -0.154301 
-0.003306 -0.160343 
-0.000256 -0.160132 
-0.002447 -0.169056 
-0.001413 -0.165039 
-0.005290 -0.169779 
-0.000277 -0.134076 
-0.000529 -0.131551 
0.000225 -0.137089 
-0.000025 -0.135921 
-0.000238 -0.137296 
-0.000095 -0.136443 
0.000500 -0.138704 
0.001071 -0.135042 
0.000896 -0.136554 
0.002443 -0.139111 
0.001729 -0.137537 
0.002936 -0.138004 
0.000692 -0.137402 
0.000466 -0.137582 
0.003325 -0.149427 
0.003449 -0.146493 
0.004156 -0.149954 
0.001400 -0.141018 
0.002450 -0.143559 
0.001440 -0.142874 
0.004060 -0.143325 
0.003335 -0.143703 
0.002991 -0.141200 
0.000881 -0.138305 
0.001858 -0.139602 
0.001204 -0.139470 
-0.000599 -0.146435 
0.003681 -0.148672 
0.002051 -0.147669 
0.002825 -0.140695 
0.004237 -0.136890 
0.004688 -0.150107 
0.004579 -0.142443 
0.004787 -0.146183 
0.004851 -0.149921 
0.004556 -0.149432 
0.002328 -0.134186 
0.004291 -0.134762 
0.003514 -0.133976 
0.003306 -0.136290 
0.004074 -0.139087 
0.004851 -0.144208 
0.004837 -0.141070 
0.004757 -0.139219 
-0.009959 -0.182639 
-0.007432 -0.179914 
-0.003778 -0.176972 
-0.005407 -0.178690 
-0.006074 -0.180281 
-0.004773 -0.176945 
-0.002176 -0.173544 
-0.002697 -0.166172 
-0.002125 -0.169357 
-0.003365 -0.169275 
0.000043 -0.167703 
-0.001006 -0.168824 
-0.000372 -0.165204 
-0.003651 -0.175642 
-0.002104 -0.172251 
-0.002659 -0.174808 
0.002907 -0.160940 
0.003247 -0.156533 
0.000110 -0.169662 
0.001853 -0.165393 
0.001635 -0.161858 
0.002011 -0.163741 
0.001049 -0.166004 
-0.001743 -0.173581 
-0.000098 -0.169936 
-0.000833 -0.171890 
-0.020165 -0.132784 
-0.017317 -0.137698 
-0.019268 -0.135253 
-0.013694 -0.140218 
-0.015460 -0.139313 
-0.016328 -0.135463 
-0.013681 -0.144715 
-0.014542 -0.142389 
-0.011892 -0.146866 
-0.007601 -0.138934 
-0.008968 -0.139788 
-0.009629 -0.134682 
-0.007241 -0.148749 
-0.008134 -0.144477 
-0.005925 -0.148214 
-0.012799 -0.135818 
-0.010443 -0.140352 
-0.012020 -0.140529 
-0.005218 -0.161783 
-0.005300 -0.159075 
-0.003775 -0.162736 
-0.009425 -0.151136 
-0.007206 -0.155206 
-0.008828 -0.153548 
-0.004372 -0.156152 
-0.005725 -0.156037 
-0.006404 -0.152602 
-0.011124 -0.144649 
-0.008675 -0.148772 
-0.010225 -0.148180 
-0.001120 -0.131898 
-0.000809 -0.128325 
-0.000478 -0.138438 
-0.000996 -0.135236 
-0.002529 -0.129138 
-0.001764 -0.132517 
-0.002480 -0.133365 
0.002970 -0.152354 
0.002252 -0.148493 
-0.000432 -0.145281 
0.000985 -0.147120 
0.000481 -0.149288 
0.001305 -0.144944 
0.000336 -0.141631 
-0.006862 -0.132785 
-0.005212 -0.136720 
-0.006349 -0.137882 
-0.003285 -0.134389 
-0.004192 -0.135530 
-0.004511 -0.130763 
-0.002742 -0.144536 
-0.003567 -0.140102 
-0.001962 -0.142949 
-0.000836 -0.139812 
-0.001328 -0.141343 
-0.002051 -0.137402 
-0.002476 -0.162929 
-0.003138 -0.155646 
-0.002645 -0.159431 
-0.001289 -0.162447 
-0.000199 -0.161357 
-0.005599 -0.142702 
-0.001851 -0.148877 
-0.003667 -0.146009 
-0.004731 -0.147268 
-0.003869 -0.151585 
0.002408 -0.155128 
0.000793 -0.159725 
0.001671 -0.157620 
0.001239 -0.153406 
-0.000199 -0.151333 
-0.002024 -0.154612 
-0.001039 -0.153142 
-0.000449 -0.157317 
-0.025075 -0.125188 
-0.022993 -0.127660 
-0.028436 -0.116619 
-0.025766 -0.122279 
-0.030676 -0.114368 
-0.020944 -0.129350 
-0.018945 -0.130373 
-0.036844 -0.090749 
-0.035228 -0.097748 
-0.039438 -0.089650 
-0.026226 -0.112857 
-0.030770 -0.105545 
-0.028268 -0.106192 
-0.035642 -0.102557 
-0.033235 -0.104375 
-0.030947 -0.110658 
-0.013336 -0.130527 
-0.011625 -0.129932 
-0.017004 -0.130841 
-0.015131 -0.130860 
-0.019548 -0.119584 
-0.017399 -0.125456 
-0.021730 -0.119535 
-0.026190 -0.118157 
-0.023949 -0.119092 
-0.021503 -0.124923 
-0.013828 -0.012626 
-0.024296 -0.026224 
-0.020486 -0.018951 
-0.027436 -0.044809 
-0.026679 -0.035267 
-0.023061 -0.033605 
-0.034822 -0.041962 
-0.030739 -0.037998 
-0.034792 -0.048552 
-0.020581 -0.081496 
-0.023226 -0.072883 
-0.020388 -0.072361 
-0.029265 -0.074039 
-0.026194 -0.073446 
-0.026251 -0.082517 
-0.023755 -0.053656 
-0.025409 -0.063814 
-0.026903 -0.054404 
-0.041369 -0.075497 
-0.038532 -0.075496 
-0.037985 -0.083346 
-0.037180 -0.058203 
-0.038331 -0.067143 
-0.040414 -0.059834 
-0.032180 -0.083323 
-0.035509 -0.075151 
-0.032392 -0.074628 
-0.030252 -0.055400 
-0.031818 -0.065333 
-0.033725 -0.056677 
-0.002171 -0.124636 
-0.001094 -0.124385 
-0.004464 -0.125743 
-0.003287 -0.125101 
-0.004612 -0.115046 
-0.003985 -0.120403 
-0.006218 -0.115552 
-0.010005 -0.129161 
-0.008481 -0.128290 
-0.011455 -0.117560 
-0.010025 -0.123217 
-0.013363 -0.118251 
-0.007052 -0.127389 
-0.005715 -0.126521 
-0.015169 -0.089048 
-0.014635 -0.097044 
-0.017663 -0.089570 
-0.008799 -0.110049 
-0.011640 -0.103878 
-0.009557 -0.103320 
-0.016056 -0.105060 
-0.013805 -0.104470 
-0.012729 -0.111310 
-0.006849 -0.121656 
-0.009630 -0.116847 
-0.007886 -0.116164 
-0.034130 -0.091302 
-0.028519 -0.091332 
-0.031340 -0.091457 
-0.030002 -0.099069 
-0.025754 -0.106430 
-0.020258 -0.090094 
-0.018388 -0.105607 
-0.019502 -0.098133 
-0.022946 -0.090590 
-0.025708 -0.091020 
-0.013549 -0.124665 
-0.021521 -0.113225 
-0.017418 -0.119333 
-0.015353 -0.118864 
-0.016984 -0.112515 
-0.024678 -0.098962 
-0.020792 -0.106059 
-0.023255 -0.106358 
0.000000 0.000000 
-0.010898 -0.011136 
-0.007701 -0.010467 
-0.009058 -0.010647 
0.000000 0.000000 
-0.016900 -0.022042 
-0.019983 -0.032679 
-0.004165 -0.010422 
-0.004882 -0.010404 
0.000000 0.000000 
-0.012952 -0.031669 
-0.009245 -0.020999 
-0.011088 -0.031545 
0.000000 0.000000 
-0.005687 -0.010394 
-0.006609 -0.010405 
-0.019596 -0.062730 
-0.017690 -0.071885 
-0.021096 -0.043054 
-0.020832 -0.053097 
-0.015620 -0.052330 
-0.018127 -0.052669 
-0.015920 -0.042273 
-0.012467 -0.021194 
-0.015017 -0.031855 
-0.017336 -0.032159 
-0.000000 -0.010466 
-0.000442 -0.010482 
0.000000 0.000000 
-0.001201 -0.031172 
-0.000847 -0.020887 
-0.000000 -0.031131 
0.000000 0.000000 
-0.000895 -0.010487 
-0.001363 -0.010486 
-0.001995 -0.069908 
-0.001893 -0.060712 
-0.000000 -0.069839 
-0.004569 -0.041406 
-0.003475 -0.051228 
-0.005267 -0.051333 
-0.000000 -0.051090 
-0.001727 -0.051147 
-0.001496 -0.041279 
0.000000 0.000000 
-0.002920 -0.010457 
-0.003515 -0.010440 
-0.001852 -0.010480 
-0.002369 -0.010470 
0.000000 0.000000 
-0.006356 -0.031334 
-0.004506 -0.020936 
-0.004982 -0.031287 
-0.002421 -0.031208 
-0.003676 -0.031246 
-0.002600 -0.020918 
-0.001320 -0.119745 
0.000000 -0.124348 
-0.005157 -0.109043 
-0.003054 -0.114670 
0.000000 -0.114358 
-0.001523 -0.114439 
-0.001701 -0.108486 
-0.015352 -0.080505 
-0.012777 -0.088551 
-0.008275 -0.087701 
-0.010482 -0.088097 
-0.010583 -0.079662 
-0.010129 -0.095995 
-0.007549 -0.102825 
-0.000000 -0.086885 
-0.002022 -0.086963 
-0.002037 -0.078677 
-0.001848 -0.101904 
-0.001957 -0.094719 
-0.000000 -0.101821 
-0.006190 -0.079037 
-0.004063 -0.087127 
-0.006140 -0.087375 
-0.005605 -0.102413 
-0.005939 -0.095180 
-0.003711 -0.102103 
-0.006673 -0.020953 
-0.007882 -0.041591 
-0.007817 -0.031389 
-0.009386 -0.031457 
-0.011600 -0.041858 
-0.004011 -0.070033 
-0.008192 -0.070447 
-0.006070 -0.070213 
-0.005765 -0.060958 
-0.007122 -0.051466 
-0.015132 -0.071454 
-0.013290 -0.052054 
-0.014459 -0.061947 
-0.012706 -0.071070 
-0.010398 -0.070734 
-0.009064 -0.051629 
-0.009898 -0.061367 
-0.011112 -0.051823 
0.000000 0.000000 
0.000442 -0.010482 
0.001363 -0.010486 
0.000895 -0.010487 
0.000000 0.000000 
0.000847 -0.020887 
0.001201 -0.031172 
0.003515 -0.010440 
0.002920 -0.010457 
0.000000 0.000000 
0.004982 -0.031287 
0.004506 -0.020936 
0.006356 -0.031334 
0.000000 0.000000 
0.002369 -0.010470 
0.001852 -0.010480 
0.001893 -0.060712 
0.001995 -0.069908 
0.001496 -0.041279 
0.001727 -0.051147 
0.005267 -0.051333 
0.003475 -0.051228 
0.004569 -0.041406 
0.002600 -0.020918 
0.003676 -0.031246 
0.002421 -0.031208 
0.013828 -0.012626 
0.010898 -0.011136 
0.000000 0.000000 
0.019983 -0.032679 
0.016900 -0.022042 
0.023061 -0.033605 
0.000000 0.000000 
0.009058 -0.010647 
0.007701 -0.010467 
0.017690 -0.071885 
0.019596 -0.062730 
0.020388 -0.072361 
0.015920 -0.042273 
0.018127 -0.052669 
0.015620 -0.052330 
0.023755 -0.053656 
0.020832 -0.053097 
0.021096 -0.043054 
0.000000 0.000000 
0.004882 -0.010404 
0.004165 -0.010422 
0.006609 -0.010405 
0.005687 -0.010394 
0.000000 0.000000 
0.011088 -0.031545 
0.009245 -0.020999 
0.012952 -0.031669 
0.017336 -0.032159 
0.015017 -0.031855 
0.012467 -0.021194 
0.001320 -0.119745 
0.001094 -0.124385 
0.001701 -0.108486 
0.001523 -0.114439 
0.004612 -0.115046 
0.003054 -0.114670 
0.005157 -0.109043 
0.002037 -0.078677 
0.002022 -0.086963 
0.006140 -0.087375 
0.004063 -0.087127 
0.006190 -0.079037 
0.001957 -0.094719 
0.001848 -0.101904 
0.015169 -0.089048 
0.012777 -0.088551 
0.015352 -0.080505 
0.007549 -0.102825 
0.010129 -0.095995 
0.009557 -0.103320 
0.010583 -0.079662 
0.010482 -0.088097 
0.008275 -0.087701 
0.003711 -0.102103 
0.005939 -0.095180 
0.005605 -0.102413 
0.006673 -0.020953 
0.011600 -0.041858 
0.009386 -0.031457 
0.007817 -0.031389 
0.007882 -0.041591 
0.015132 -0.071454 
0.010398 -0.070734 
0.012706 -0.071070 
0.014459 -0.061947 
0.013290 -0.052054 
0.004011 -0.070033 
0.007122 -0.051466 
0.005765 -0.060958 
0.006070 -0.070213 
0.008192 -0.070447 
0.011112 -0.051823 
0.009898 -0.061367 
0.009064 -0.051629 
0.020486 -0.018951 
0.024296 -0.026224 
0.034792 -0.048552 
0.030739 -0.037998 
0.034822 -0.041962 
0.026679 -0.035267 
0.027436 -0.044809 
0.037985 -0.083346 
0.038532 -0.075496 
0.041369 -0.075497 
0.032392 -0.074628 
0.035509 -0.075151 
0.032180 -0.083323 
0.040414 -0.059834 
0.038331 -0.067143 
0.037180 -0.058203 
0.023226 -0.072883 
0.020581 -0.081496 
0.026903 -0.054404 
0.025409 -0.063814 
0.026251 -0.082517 
0.026194 -0.073446 
0.029265 -0.074039 
0.033725 -0.056677 
0.031818 -0.065333 
0.030252 -0.055400 
0.020165 -0.132784 
0.022993 -0.127660 
0.025075 -0.125188 
0.018945 -0.130373 
0.020944 -0.129350 
0.016328 -0.135463 
0.030676 -0.114368 
0.025766 -0.122279 
0.028436 -0.116619 
0.011625 -0.129932 
0.013336 -0.130527 
0.009629 -0.134682 
0.021730 -0.119535 
0.017399 -0.125456 
0.019548 -0.119584 
0.012799 -0.135818 
0.015131 -0.130860 
0.017004 -0.130841 
0.039438 -0.089650 
0.035228 -0.097748 
0.036844 -0.090749 
0.030947 -0.110658 
0.033235 -0.104375 
0.035642 -0.102557 
0.028268 -0.106192 
0.030770 -0.105545 
0.026226 -0.112857 
0.021503 -0.124923 
0.023949 -0.119092 
0.026190 -0.118157 
0.002171 -0.124636 
0.000809 -0.128325 
0.006218 -0.115552 
0.003985 -0.120403 
0.002529 -0.129138 
0.003287 -0.125101 
0.004464 -0.125743 
0.017663 -0.089570 
0.014635 -0.097044 
0.012729 -0.111310 
0.013805 -0.104470 
0.016056 -0.105060 
0.011640 -0.103878 
0.008799 -0.110049 
0.006862 -0.132785 
0.008481 -0.128290 
0.010005 -0.129161 
0.005715 -0.126521 
0.007052 -0.127389 
0.004511 -0.130763 