# vtk DataFile Version 2.0
Unstructured Grid Example
ASCII
DATASET UNSTRUCTURED_GRID

POINTS 9 float
0.011708 -0.152744 0.000000 
0.988292 -0.152744 0.000000 
1.000000 1.000000 0.000000 
0.000000 1.000000 0.000000 
0.500000 -0.060262 0.000000 
0.975770 0.390020 0.000000 
0.500000 1.000000 0.000000 
0.024230 0.390020 0.000000 
0.500000 0.403160 0.000000 

CELLS 8 32
3  0 4 8 
3  4 1 8 
3  1 5 8 
3  5 2 8 
3  2 6 8 
3  6 3 8 
3  3 7 8 
3  7 0 8 

CELL_TYPES 8
5
5
5
5
5
5
5
5

POINT_DATA 9

SCALARS u_h float 2
LOOKUP_TABLE default
0.011708 -0.152744 
-0.011708 -0.152744 
0.000000 0.000000 
0.000000 0.000000 
-0.000000 -0.060262 
-0.024230 -0.109980 
0.000000 0.000000 
0.024230 -0.109980 
-0.000000 -0.096840 

CELL_DATA 8

SCALARS epsilon float 4
LOOKUP_TABLE default
-0.023690 -0.054936 0.000000 0.099724
-0.023690 -0.054936 0.000000 -0.099724
-0.049972 0.081584 0.000000 -0.025151
-0.047667 0.197871 0.000000 0.013883
0.000000 0.175417 0.000000 0.000000
0.000000 0.175417 0.000000 0.000000
-0.047667 0.197871 0.000000 -0.013883
-0.049972 0.081584 0.000000 0.025151

SCALARS sigma float 4
LOOKUP_TABLE default
-1.380753 -2.391228 -0.959128 1.675660
-1.380753 -2.391228 -0.959128 -1.675660
-0.640289 1.437375 0.221935 -0.398156
0.546529 3.857286 1.309544 0.070341
1.754172 3.984510 1.754172 0.000000
1.754172 3.984510 1.754172 0.000000
0.546529 3.857286 1.309544 -0.070341
-0.640289 1.437375 0.221935 0.398156

