# vtk DataFile Version 2.0
Unstructured Grid Example
ASCII
DATASET UNSTRUCTURED_GRID

POINTS 256 float
0.000000 0.000000 0.000000 
0.007812 0.000000 0.000000 
0.007812 0.000000 0.000000 
0.015625 0.000000 0.000000 
0.015625 0.000000 0.000000 
0.023438 0.000000 0.000000 
0.023438 0.000000 0.000000 
0.031250 0.000000 0.000000 
0.046875 0.000000 0.000000 
0.054688 0.000000 0.000000 
0.054688 0.000000 0.000000 
0.062500 0.000000 0.000000 
0.031250 0.000000 0.000000 
0.039062 0.000000 0.000000 
0.039062 0.000000 0.000000 
0.046875 0.000000 0.000000 
0.109375 0.000000 0.000000 
0.117188 0.000000 0.000000 
0.117188 0.000000 0.000000 
0.125000 0.000000 0.000000 
0.093750 0.000000 0.000000 
0.101562 0.000000 0.000000 
0.101562 0.000000 0.000000 
0.109375 0.000000 0.000000 
0.062500 0.000000 0.000000 
0.070312 0.000000 0.000000 
0.070312 0.000000 0.000000 
0.078125 0.000000 0.000000 
0.078125 0.000000 0.000000 
0.085938 0.000000 0.000000 
0.085938 0.000000 0.000000 
0.093750 0.000000 0.000000 
0.234375 0.000000 0.000000 
0.242188 0.000000 0.000000 
0.242188 0.000000 0.000000 
0.250000 0.000000 0.000000 
0.218750 0.000000 0.000000 
0.226562 0.000000 0.000000 
0.226562 0.000000 0.000000 
0.234375 0.000000 0.000000 
0.187500 0.000000 0.000000 
0.195312 0.000000 0.000000 
0.195312 0.000000 0.000000 
0.203125 0.000000 0.000000 
0.203125 0.000000 0.000000 
0.210938 0.000000 0.000000 
0.210938 0.000000 0.000000 
0.218750 0.000000 0.000000 
0.125000 0.000000 0.000000 
0.132812 0.000000 0.000000 
0.132812 0.000000 0.000000 
0.140625 0.000000 0.000000 
0.140625 0.000000 0.000000 
0.148438 0.000000 0.000000 
0.148438 0.000000 0.000000 
0.156250 0.000000 0.000000 
0.171875 0.000000 0.000000 
0.179688 0.000000 0.000000 
0.179688 0.000000 0.000000 
0.187500 0.000000 0.000000 
0.156250 0.000000 0.000000 
0.164062 0.000000 0.000000 
0.164062 0.000000 0.000000 
0.171875 0.000000 0.000000 
0.484375 -7.288492 0.000000 
0.492188 -27.787696 0.000000 
0.492188 31.197261 0.000000 
0.500000 -125.258405 0.000000 
0.468750 -7.459329 0.000000 
0.476562 -13.006610 0.000000 
0.476562 -8.193474 0.000000 
0.484375 -17.085603 0.000000 
0.437500 -4.436973 0.000000 
0.445312 -6.780465 0.000000 
0.445312 -5.105315 0.000000 
0.453125 -7.787272 0.000000 
0.453125 -5.825692 0.000000 
0.460938 -9.028475 0.000000 
0.460938 -6.613339 0.000000 
0.468750 -10.655965 0.000000 
0.375000 0.000000 0.000000 
0.382812 0.000000 0.000000 
0.382812 0.000000 0.000000 
0.390625 0.000000 0.000000 
0.390625 1.649588 0.000000 
0.398438 -3.299176 0.000000 
0.398438 -0.754779 0.000000 
0.406250 -3.439205 0.000000 
0.421875 -3.182419 0.000000 
0.429688 -5.174110 0.000000 
0.429688 -3.802288 0.000000 
0.437500 -5.926062 0.000000 
0.406250 -1.887603 0.000000 
0.414062 -3.857984 0.000000 
0.414062 -2.556065 0.000000 
0.421875 -4.491441 0.000000 
0.250000 0.000000 0.000000 
0.257812 0.000000 0.000000 
0.257812 0.000000 0.000000 
0.265625 0.000000 0.000000 
0.265625 0.000000 0.000000 
0.273438 0.000000 0.000000 
0.273438 0.000000 0.000000 
0.281250 0.000000 0.000000 
0.296875 0.000000 0.000000 
0.304688 0.000000 0.000000 
0.304688 0.000000 0.000000 
0.312500 0.000000 0.000000 
0.281250 0.000000 0.000000 
0.289062 0.000000 0.000000 
0.289062 0.000000 0.000000 
0.296875 0.000000 0.000000 
0.359375 0.000000 0.000000 
0.367188 0.000000 0.000000 
0.367188 0.000000 0.000000 
0.375000 0.000000 0.000000 
0.343750 0.000000 0.000000 
0.351562 0.000000 0.000000 
0.351562 0.000000 0.000000 
0.359375 0.000000 0.000000 
0.312500 0.000000 0.000000 
0.320312 0.000000 0.000000 
0.320312 0.000000 0.000000 
0.328125 0.000000 0.000000 
0.328125 0.000000 0.000000 
0.335938 0.000000 0.000000 
0.335938 0.000000 0.000000 
0.343750 0.000000 0.000000 
0.500000 -125.258405 0.000000 
0.507812 31.197261 0.000000 
0.507812 -27.787696 0.000000 
0.515625 -7.288492 0.000000 
0.515625 -17.085603 0.000000 
0.523438 -8.193474 0.000000 
0.523438 -13.006610 0.000000 
0.531250 -7.459329 0.000000 
0.546875 -7.787272 0.000000 
0.554688 -5.105315 0.000000 
0.554688 -6.780465 0.000000 
0.562500 -4.436973 0.000000 
0.531250 -10.655965 0.000000 
0.539062 -6.613339 0.000000 
0.539062 -9.028475 0.000000 
0.546875 -5.825692 0.000000 
0.609375 0.000000 0.000000 
0.617188 0.000000 0.000000 
0.617188 0.000000 0.000000 
0.625000 0.000000 0.000000 
0.593750 -3.439205 0.000000 
0.601562 -0.754779 0.000000 
0.601562 -3.299176 0.000000 
0.609375 1.649588 0.000000 
0.562500 -5.926062 0.000000 
0.570312 -3.802288 0.000000 
0.570312 -5.174110 0.000000 
0.578125 -3.182419 0.000000 
0.578125 -4.491441 0.000000 
0.585938 -2.556065 0.000000 
0.585938 -3.857984 0.000000 
0.593750 -1.887603 0.000000 
0.734375 0.000000 0.000000 
0.742188 0.000000 0.000000 
0.742188 0.000000 0.000000 
0.750000 0.000000 0.000000 
0.718750 0.000000 0.000000 
0.726562 0.000000 0.000000 
0.726562 0.000000 0.000000 
0.734375 0.000000 0.000000 
0.687500 0.000000 0.000000 
0.695312 0.000000 0.000000 
0.695312 0.000000 0.000000 
0.703125 0.000000 0.000000 
0.703125 0.000000 0.000000 
0.710938 0.000000 0.000000 
0.710938 0.000000 0.000000 
0.718750 0.000000 0.000000 
0.625000 0.000000 0.000000 
0.632812 0.000000 0.000000 
0.632812 0.000000 0.000000 
0.640625 0.000000 0.000000 
0.640625 0.000000 0.000000 
0.648438 0.000000 0.000000 
0.648438 0.000000 0.000000 
0.656250 0.000000 0.000000 
0.671875 0.000000 0.000000 
0.679688 0.000000 0.000000 
0.679688 0.000000 0.000000 
0.687500 0.000000 0.000000 
0.656250 0.000000 0.000000 
0.664062 0.000000 0.000000 
0.664062 0.000000 0.000000 
0.671875 0.000000 0.000000 
0.984375 0.000000 0.000000 
0.992188 0.000000 0.000000 
0.992188 0.000000 0.000000 
1.000000 0.000000 0.000000 
0.968750 0.000000 0.000000 
0.976562 0.000000 0.000000 
0.976562 0.000000 0.000000 
0.984375 0.000000 0.000000 
0.937500 0.000000 0.000000 
0.945312 0.000000 0.000000 
0.945312 0.000000 0.000000 
0.953125 0.000000 0.000000 
0.953125 0.000000 0.000000 
0.960938 0.000000 0.000000 
0.960938 0.000000 0.000000 
0.968750 0.000000 0.000000 
0.875000 0.000000 0.000000 
0.882812 0.000000 0.000000 
0.882812 0.000000 0.000000 
0.890625 0.000000 0.000000 
0.890625 0.000000 0.000000 
0.898438 0.000000 0.000000 
0.898438 0.000000 0.000000 
0.906250 0.000000 0.000000 
0.921875 0.000000 0.000000 
0.929688 0.000000 0.000000 
0.929688 0.000000 0.000000 
0.937500 0.000000 0.000000 
0.906250 0.000000 0.000000 
0.914062 0.000000 0.000000 
0.914062 0.000000 0.000000 
0.921875 0.000000 0.000000 
0.750000 0.000000 0.000000 
0.757812 0.000000 0.000000 
0.757812 0.000000 0.000000 
0.765625 0.000000 0.000000 
0.765625 0.000000 0.000000 
0.773438 0.000000 0.000000 
0.773438 0.000000 0.000000 
0.781250 0.000000 0.000000 
0.796875 0.000000 0.000000 
0.804688 0.000000 0.000000 
0.804688 0.000000 0.000000 
0.812500 0.000000 0.000000 
0.781250 0.000000 0.000000 
0.789062 0.000000 0.000000 
0.789062 0.000000 0.000000 
0.796875 0.000000 0.000000 
0.859375 0.000000 0.000000 
0.867188 0.000000 0.000000 
0.867188 0.000000 0.000000 
0.875000 0.000000 0.000000 
0.843750 0.000000 0.000000 
0.851562 0.000000 0.000000 
0.851562 0.000000 0.000000 
0.859375 0.000000 0.000000 
0.812500 0.000000 0.000000 
0.820312 0.000000 0.000000 
0.820312 0.000000 0.000000 
0.828125 0.000000 0.000000 
0.828125 0.000000 0.000000 
0.835938 0.000000 0.000000 
0.835938 0.000000 0.000000 
0.843750 0.000000 0.000000 

CELLS 128 384
2  0 1 
2  2 3 
2  4 5 
2  6 7 
2  8 9 
2  10 11 
2  12 13 
2  14 15 
2  16 17 
2  18 19 
2  20 21 
2  22 23 
2  24 25 
2  26 27 
2  28 29 
2  30 31 
2  32 33 
2  34 35 
2  36 37 
2  38 39 
2  40 41 
2  42 43 
2  44 45 
2  46 47 
2  48 49 
2  50 51 
2  52 53 
2  54 55 
2  56 57 
2  58 59 
2  60 61 
2  62 63 
2  64 65 
2  66 67 
2  68 69 
2  70 71 
2  72 73 
2  74 75 
2  76 77 
2  78 79 
2  80 81 
2  82 83 
2  84 85 
2  86 87 
2  88 89 
2  90 91 
2  92 93 
2  94 95 
2  96 97 
2  98 99 
2  100 101 
2  102 103 
2  104 105 
2  106 107 
2  108 109 
2  110 111 
2  112 113 
2  114 115 
2  116 117 
2  118 119 
2  120 121 
2  122 123 
2  124 125 
2  126 127 
2  128 129 
2  130 131 
2  132 133 
2  134 135 
2  136 137 
2  138 139 
2  140 141 
2  142 143 
2  144 145 
2  146 147 
2  148 149 
2  150 151 
2  152 153 
2  154 155 
2  156 157 
2  158 159 
2  160 161 
2  162 163 
2  164 165 
2  166 167 
2  168 169 
2  170 171 
2  172 173 
2  174 175 
2  176 177 
2  178 179 
2  180 181 
2  182 183 
2  184 185 
2  186 187 
2  188 189 
2  190 191 
2  192 193 
2  194 195 
2  196 197 
2  198 199 
2  200 201 
2  202 203 
2  204 205 
2  206 207 
2  208 209 
2  210 211 
2  212 213 
2  214 215 
2  216 217 
2  218 219 
2  220 221 
2  222 223 
2  224 225 
2  226 227 
2  228 229 
2  230 231 
2  232 233 
2  234 235 
2  236 237 
2  238 239 
2  240 241 
2  242 243 
2  244 245 
2  246 247 
2  248 249 
2  250 251 
2  252 253 
2  254 255 

CELL_TYPES 128
3
3
3
3
3
3
3
3
3
3
3
3
3
3
3
3
3
3
3
3
3
3
3
3
3
3
3
3
3
3
3
3
3
3
3
3
3
3
3
3
3
3
3
3
3
3
3
3
3
3
3
3
3
3
3
3
3
3
3
3
3
3
3
3
3
3
3
3
3
3
3
3
3
3
3
3
3
3
3
3
3
3
3
3
3
3
3
3
3
3
3
3
3
3
3
3
3
3
3
3
3
3
3
3
3
3
3
3
3
3
3
3
3
3
3
3
3
3
3
3
3
3
3
3
3
3
3
3

POINT_DATA 256

SCALARS lambda_h float 1
LOOKUP_TABLE default
0.000000 
0.000000 
0.000000 
0.000000 
0.000000 
0.000000 
0.000000 
0.000000 
0.000000 
0.000000 
0.000000 
0.000000 
0.000000 
0.000000 
0.000000 
0.000000 
0.000000 
0.000000 
0.000000 
0.000000 
0.000000 
0.000000 
0.000000 
0.000000 
0.000000 
0.000000 
0.000000 
0.000000 
0.000000 
0.000000 
0.000000 
0.000000 
0.000000 
0.000000 
0.000000 
0.000000 
0.000000 
0.000000 
0.000000 
0.000000 
0.000000 
0.000000 
0.000000 
0.000000 
0.000000 
0.000000 
0.000000 
0.000000 
0.000000 
0.000000 
0.000000 
0.000000 
0.000000 
0.000000 
0.000000 
0.000000 
0.000000 
0.000000 
0.000000 
0.000000 
0.000000 
0.000000 
0.000000 
0.000000 
-7.288492 
-27.787696 
31.197261 
-125.258405 
-7.459329 
-13.006610 
-8.193474 
-17.085603 
-4.436973 
-6.780465 
-5.105315 
-7.787272 
-5.825692 
-9.028475 
-6.613339 
-10.655965 
0.000000 
0.000000 
0.000000 
0.000000 
1.649588 
-3.299176 
-0.754779 
-3.439205 
-3.182419 
-5.174110 
-3.802288 
-5.926062 
-1.887603 
-3.857984 
-2.556065 
-4.491441 
0.000000 
0.000000 
0.000000 
0.000000 
0.000000 
0.000000 
0.000000 
0.000000 
0.000000 
0.000000 
0.000000 
0.000000 
0.000000 
0.000000 
0.000000 
0.000000 
0.000000 
0.000000 
0.000000 
0.000000 
0.000000 
0.000000 
0.000000 
0.000000 
0.000000 
0.000000 
0.000000 
0.000000 
0.000000 
0.000000 
0.000000 
0.000000 
-125.258405 
31.197261 
-27.787696 
-7.288492 
-17.085603 
-8.193474 
-13.006610 
-7.459329 
-7.787272 
-5.105315 
-6.780465 
-4.436973 
-10.655965 
-6.613339 
-9.028475 
-5.825692 
0.000000 
0.000000 
0.000000 
0.000000 
-3.439205 
-0.754779 
-3.299176 
1.649588 
-5.926062 
-3.802288 
-5.174110 
-3.182419 
-4.491441 
-2.556065 
-3.857984 
-1.887603 
0.000000 
0.000000 
0.000000 
0.000000 
0.000000 
0.000000 
0.000000 
0.000000 
0.000000 
0.000000 
0.000000 
0.000000 
0.000000 
0.000000 
0.000000 
0.000000 
0.000000 
0.000000 
0.000000 
0.000000 
0.000000 
0.000000 
0.000000 
0.000000 
0.000000 
0.000000 
0.000000 
0.000000 
0.000000 
0.000000 
0.000000 
0.000000 
0.000000 
0.000000 
0.000000 
0.000000 
0.000000 
0.000000 
0.000000 
0.000000 
0.000000 
0.000000 
0.000000 
0.000000 
0.000000 
0.000000 
0.000000 
0.000000 
0.000000 
0.000000 
0.000000 
0.000000 
0.000000 
0.000000 
0.000000 
0.000000 
0.000000 
0.000000 
0.000000 
0.000000 
0.000000 
0.000000 
0.000000 
0.000000 
0.000000 
0.000000 
0.000000 
0.000000 
0.000000 
0.000000 
0.000000 
0.000000 
0.000000 
0.000000 
0.000000 
0.000000 
0.000000 
0.000000 
0.000000 
0.000000 
0.000000 
0.000000 
0.000000 
0.000000 
0.000000 
0.000000 
0.000000 
0.000000 
0.000000 
0.000000 
0.000000 
0.000000 
0.000000 
0.000000 
0.000000 
0.000000 

