# vtk DataFile Version 2.0
Unstructured Grid Example
ASCII
DATASET UNSTRUCTURED_GRID

POINTS 9 float
-0.004680 -0.224582 0.000000 
1.004680 -0.224582 0.000000 
1.000000 1.000000 0.000000 
0.000000 1.000000 0.000000 
0.500000 -0.100000 0.000000 
0.968100 0.343502 0.000000 
0.500000 1.000000 0.000000 
0.031900 0.343502 0.000000 
0.500000 0.351275 0.000000 

CELLS 8 32
3  0 4 8 
3  4 1 8 
3  1 5 8 
3  5 2 8 
3  2 6 8 
3  6 3 8 
3  3 7 8 
3  7 0 8 

CELL_TYPES 8
5
5
5
5
5
5
5
5

POINT_DATA 9

SCALARS u_h float 2
LOOKUP_TABLE default
-0.004680 -0.224582 
0.004680 -0.224582 
0.000000 0.000000 
0.000000 0.000000 
0.000000 -0.100000 
-0.031900 -0.156498 
0.000000 0.000000 
0.031900 -0.156498 
0.000000 -0.148725 

CELL_DATA 8

SCALARS epsilon float 4
LOOKUP_TABLE default
0.009316 -0.064739 0.000000 0.138022
0.009316 -0.064739 0.000000 -0.138022
-0.064519 0.126083 0.000000 -0.045329
-0.063677 0.267637 0.000000 0.026233
0.000000 0.255536 0.000000 -0.000000
0.000000 0.255536 0.000000 -0.000000
-0.063677 0.267637 0.000000 -0.026233
-0.064519 0.126083 0.000000 0.045329

SCALARS sigma float 4
LOOKUP_TABLE default
-0.834900 -2.757705 -0.986980 2.242761
-0.834900 -2.757705 -0.986980 -2.242761
-0.640198 2.446227 0.496162 -0.684576
0.613636 5.636679 1.717120 0.321621
2.292570 6.052385 2.292570 -0.000000
2.292570 6.052385 2.292570 -0.000000
0.613636 5.636679 1.717120 -0.321621
-0.640198 2.446227 0.496162 0.684576

