# vtk DataFile Version 2.0
Unstructured Grid Example
ASCII
DATASET UNSTRUCTURED_GRID

POINTS 4225 float
0.009588 -0.262021 0.000000 
0.990412 -0.262021 0.000000 
1.000000 1.000000 0.000000 
0.000000 1.000000 0.000000 
0.500000 -0.100000 0.000000 
0.961718 0.311839 0.000000 
0.500000 1.000000 0.000000 
0.038282 0.311839 0.000000 
0.500000 0.314804 0.000000 
0.262138 -0.247017 0.000000 
0.500000 0.043076 0.000000 
0.249964 0.017578 0.000000 
0.737862 -0.247017 0.000000 
0.750036 0.017578 0.000000 
0.985930 0.010624 0.000000 
0.734136 0.307978 0.000000 
0.944240 0.632684 0.000000 
0.726953 0.638386 0.000000 
0.750000 1.000000 0.000000 
0.500000 0.641060 0.000000 
0.250000 1.000000 0.000000 
0.273047 0.638386 0.000000 
0.055760 0.632684 0.000000 
0.265864 0.307978 0.000000 
0.014070 0.010624 0.000000 
0.135149 -0.259389 0.000000 
0.248756 -0.117106 0.000000 
0.129928 -0.129516 0.000000 
0.500000 -0.062663 0.000000 
0.367297 -0.087875 0.000000 
0.384402 -0.210390 0.000000 
0.376992 0.166650 0.000000 
0.371399 0.033678 0.000000 
0.500000 0.170871 0.000000 
0.615598 -0.210390 0.000000 
0.632703 -0.087875 0.000000 
0.870072 -0.129516 0.000000 
0.751244 -0.117106 0.000000 
0.864851 -0.259389 0.000000 
0.628601 0.033678 0.000000 
0.623008 0.166650 0.000000 
0.990669 -0.130952 0.000000 
0.868158 0.008614 0.000000 
0.848267 0.305511 0.000000 
0.859465 0.153435 0.000000 
0.975145 0.158827 0.000000 
0.742638 0.158234 0.000000 
0.618022 0.312693 0.000000 
0.949832 0.469475 0.000000 
0.838958 0.465779 0.000000 
0.846767 0.814935 0.000000 
0.836240 0.635294 0.000000 
0.952312 0.803380 0.000000 
0.727833 0.468069 0.000000 
0.614736 0.471135 0.000000 
0.875000 1.000000 0.000000 
0.734533 0.817093 0.000000 
0.500000 0.817845 0.000000 
0.618114 0.817664 0.000000 
0.625000 1.000000 0.000000 
0.614461 0.640345 0.000000 
0.500000 0.472447 0.000000 
0.375000 1.000000 0.000000 
0.381886 0.817664 0.000000 
0.153233 0.814935 0.000000 
0.265467 0.817093 0.000000 
0.125000 1.000000 0.000000 
0.385539 0.640345 0.000000 
0.385264 0.471135 0.000000 
0.047688 0.803380 0.000000 
0.163760 0.635294 0.000000 
0.151733 0.305511 0.000000 
0.161042 0.465779 0.000000 
0.050168 0.469475 0.000000 
0.272167 0.468069 0.000000 
0.381978 0.312693 0.000000 
0.024855 0.158827 0.000000 
0.140535 0.153435 0.000000 
0.131842 0.008614 0.000000 
0.009331 -0.130952 0.000000 
0.257362 0.158234 0.000000 
0.072079 -0.261299 0.000000 
0.132030 -0.195723 0.000000 
0.070624 -0.197534 0.000000 
0.253252 -0.183058 0.000000 
0.193061 -0.191304 0.000000 
0.198644 -0.255025 0.000000 
0.189041 -0.057331 0.000000 
0.189661 -0.125123 0.000000 
0.248106 -0.050263 0.000000 
0.500000 -0.101347 0.000000 
0.429555 -0.119073 0.000000 
0.431624 -0.168376 0.000000 
0.433031 -0.017604 0.000000 
0.431030 -0.070685 0.000000 
0.500000 -0.013230 0.000000 
0.324890 -0.233574 0.000000 
0.369339 -0.147396 0.000000 
0.311995 -0.169271 0.000000 
0.439606 0.240249 0.000000 
0.438198 0.169737 0.000000 
0.500000 0.241033 0.000000 
0.309914 0.025299 0.000000 
0.374206 0.098538 0.000000 
0.313135 0.092658 0.000000 
0.500000 0.104717 0.000000 
0.436635 0.103030 0.000000 
0.434918 0.040446 0.000000 
0.307499 -0.104659 0.000000 
0.368838 -0.028193 0.000000 
0.307635 -0.040167 0.000000 
0.568376 -0.168376 0.000000 
0.570445 -0.119073 0.000000 
0.688005 -0.169271 0.000000 
0.630661 -0.147396 0.000000 
0.675110 -0.233574 0.000000 
0.568970 -0.070685 0.000000 
0.566969 -0.017604 0.000000 
0.929376 -0.197534 0.000000 
0.867970 -0.195723 0.000000 
0.927921 -0.261299 0.000000 
0.751894 -0.050263 0.000000 
0.810339 -0.125123 0.000000 
0.810959 -0.057331 0.000000 
0.801356 -0.255025 0.000000 
0.806939 -0.191304 0.000000 
0.746748 -0.183058 0.000000 
0.561802 0.169737 0.000000 
0.560394 0.240249 0.000000 
0.565082 0.040446 0.000000 
0.563365 0.103030 0.000000 
0.686865 0.092658 0.000000 
0.625794 0.098538 0.000000 
0.690086 0.025299 0.000000 
0.692501 -0.104659 0.000000 
0.692365 -0.040167 0.000000 
0.631162 -0.028193 0.000000 
0.990819 -0.197975 0.000000 
0.930302 -0.131153 0.000000 
0.927107 0.008151 0.000000 
0.929652 -0.062480 0.000000 
0.989156 -0.061222 0.000000 
0.870169 -0.061304 0.000000 
0.809209 0.011828 0.000000 
0.904984 0.307071 0.000000 
0.911261 0.229968 0.000000 
0.968498 0.234744 0.000000 
0.796313 0.229418 0.000000 
0.853903 0.228508 0.000000 
0.791383 0.306100 0.000000 
0.981126 0.084077 0.000000 
0.917403 0.154453 0.000000 
0.922869 0.080503 0.000000 
0.620376 0.238054 0.000000 
0.559163 0.314312 0.000000 
0.746715 0.086920 0.000000 
0.683287 0.162463 0.000000 
0.676370 0.310396 0.000000 
0.679699 0.235002 0.000000 
0.738308 0.231853 0.000000 
0.864407 0.080173 0.000000 
0.801274 0.154947 0.000000 
0.805763 0.082499 0.000000 
0.955303 0.390006 0.000000 
0.899130 0.385837 0.000000 
0.890973 0.548874 0.000000 
0.894254 0.466382 0.000000 
0.945896 0.550318 0.000000 
0.843107 0.384560 0.000000 
0.786980 0.385127 0.000000 
0.915118 0.905235 0.000000 
0.900097 0.811221 0.000000 
0.966449 0.893994 0.000000 
0.781999 0.636977 0.000000 
0.839327 0.723869 0.000000 
0.785057 0.725751 0.000000 
0.945867 0.716842 0.000000 
0.892566 0.720812 0.000000 
0.890058 0.633557 0.000000 
0.616084 0.390443 0.000000 
0.558161 0.391679 0.000000 
0.730517 0.386708 0.000000 
0.673564 0.388653 0.000000 
0.670630 0.553404 0.000000 
0.671556 0.469705 0.000000 
0.726502 0.552010 0.000000 
0.836424 0.549306 0.000000 
0.781721 0.550542 0.000000 
0.783581 0.466590 0.000000 
0.937500 1.000000 0.000000 
0.859213 0.907615 0.000000 
0.741600 0.908309 0.000000 
0.800948 0.908167 0.000000 
0.812500 1.000000 0.000000 
0.791403 0.816431 0.000000 
0.729570 0.726908 0.000000 
0.500000 0.908387 0.000000 
0.560700 0.908378 0.000000 
0.562500 1.000000 0.000000 
0.558017 0.728506 0.000000 
0.559157 0.817793 0.000000 
0.500000 0.728621 0.000000 
0.687500 1.000000 0.000000 
0.621285 0.908367 0.000000 
0.681636 0.908350 0.000000 
0.557485 0.472100 0.000000 
0.500000 0.392113 0.000000 
0.671063 0.639510 0.000000 
0.614144 0.554537 0.000000 
0.500000 0.555543 0.000000 
0.557195 0.555277 0.000000 
0.557359 0.640870 0.000000 
0.676657 0.817447 0.000000 
0.615787 0.728192 0.000000 
0.673058 0.727673 0.000000 
0.437500 1.000000 0.000000 
0.439300 0.908378 0.000000 
0.318364 0.908350 0.000000 
0.378715 0.908367 0.000000 
0.312500 1.000000 0.000000 
0.440843 0.817793 0.000000 
0.441983 0.728506 0.000000 
0.084882 0.905235 0.000000 
0.140787 0.907615 0.000000 
0.062500 1.000000 0.000000 
0.270430 0.726908 0.000000 
0.208597 0.816431 0.000000 
0.214943 0.725751 0.000000 
0.187500 1.000000 0.000000 
0.199052 0.908167 0.000000 
0.258400 0.908309 0.000000 
0.442515 0.472100 0.000000 
0.441839 0.391679 0.000000 
0.442641 0.640870 0.000000 
0.442805 0.555277 0.000000 
0.329370 0.553404 0.000000 
0.385856 0.554537 0.000000 
0.328937 0.639510 0.000000 
0.323343 0.817447 0.000000 
0.326942 0.727673 0.000000 
0.384213 0.728192 0.000000 
0.033551 0.893994 0.000000 
0.099903 0.811221 0.000000 
0.109942 0.633557 0.000000 
0.107434 0.720812 0.000000 
0.054133 0.716842 0.000000 
0.160673 0.723869 0.000000 
0.218001 0.636977 0.000000 
0.095016 0.307071 0.000000 
0.100870 0.385837 0.000000 
0.044697 0.390006 0.000000 
0.213020 0.385127 0.000000 
0.156893 0.384560 0.000000 
0.208617 0.306100 0.000000 
0.054104 0.550318 0.000000 
0.105746 0.466382 0.000000 
0.109027 0.548874 0.000000 
0.383916 0.390443 0.000000 
0.440837 0.314312 0.000000 
0.273498 0.552010 0.000000 
0.328444 0.469705 0.000000 
0.323630 0.310396 0.000000 
0.326436 0.388653 0.000000 
0.269483 0.386708 0.000000 
0.163576 0.549306 0.000000 
0.216419 0.466590 0.000000 
0.218279 0.550542 0.000000 
0.031502 0.234744 0.000000 
0.088739 0.229968 0.000000 
0.077131 0.080503 0.000000 
0.082597 0.154453 0.000000 
0.018874 0.084077 0.000000 
0.146097 0.228508 0.000000 
0.203687 0.229418 0.000000 
0.069698 -0.131153 0.000000 
0.009181 -0.197975 0.000000 
0.190791 0.011828 0.000000 
0.129831 -0.061304 0.000000 
0.010844 -0.061222 0.000000 
0.070348 -0.062480 0.000000 
0.072893 0.008151 0.000000 
0.379624 0.238054 0.000000 
0.261692 0.231853 0.000000 
0.320301 0.235002 0.000000 
0.316713 0.162463 0.000000 
0.253285 0.086920 0.000000 
0.135593 0.080173 0.000000 
0.194237 0.082499 0.000000 
0.198726 0.154947 0.000000 
0.040776 -0.261709 0.000000 
0.071384 -0.229755 0.000000 
0.040344 -0.230122 0.000000 
0.133569 -0.227912 0.000000 
0.102466 -0.229075 0.000000 
0.103541 -0.260579 0.000000 
0.100429 -0.164047 0.000000 
0.101352 -0.196882 0.000000 
0.130765 -0.162899 0.000000 
0.257221 -0.215420 0.000000 
0.226570 -0.220043 0.000000 
0.230425 -0.251563 0.000000 
0.220850 -0.154887 0.000000 
0.223298 -0.187748 0.000000 
0.250444 -0.150224 0.000000 
0.166866 -0.257584 0.000000 
0.195683 -0.223545 0.000000 
0.164659 -0.226116 0.000000 
0.219193 -0.020054 0.000000 
0.218567 -0.054194 0.000000 
0.248796 -0.016497 0.000000 
0.159871 -0.127718 0.000000 
0.189017 -0.091400 0.000000 
0.159370 -0.093906 0.000000 
0.248037 -0.083785 0.000000 
0.218559 -0.088047 0.000000 
0.219286 -0.121622 0.000000 
0.162617 -0.193911 0.000000 
0.191016 -0.158454 0.000000 
0.160974 -0.161078 0.000000 
0.500000 -0.111930 0.000000 
0.461440 -0.125009 0.000000 
0.456601 -0.143399 0.000000 
0.464195 -0.087111 0.000000 
0.463156 -0.107103 0.000000 
0.500000 -0.083829 0.000000 
0.409158 -0.190842 0.000000 
0.429828 -0.142658 0.000000 
0.401319 -0.161099 0.000000 
0.466839 0.013319 0.000000 
0.466291 -0.014366 0.000000 
0.500000 0.014185 0.000000 
0.398487 -0.078832 0.000000 
0.432031 -0.044785 0.000000 
0.399402 -0.051015 0.000000 
0.500000 -0.038953 0.000000 
0.465685 -0.040486 0.000000 
0.465000 -0.064824 0.000000 
0.293681 -0.241142 0.000000 
0.317214 -0.201661 0.000000 
0.287501 -0.209419 0.000000 
0.373984 -0.178270 0.000000 
0.346104 -0.191562 0.000000 
0.355425 -0.223703 0.000000 
0.338071 -0.127927 0.000000 
0.340736 -0.159499 0.000000 
0.367560 -0.117454 0.000000 
0.430124 -0.095358 0.000000 
0.398030 -0.106115 0.000000 
[...]
POINT_DATA 4225

SCALARS u_h float 2
LOOKUP_TABLE default
0.009588 -0.262021 
-0.009588 -0.262021 
0.000000 0.000000 
0.000000 0.000000 
-0.000000 -0.100000 
-0.038282 -0.188161 
0.000000 0.000000 
0.038282 -0.188161 
-0.000000 -0.185196 
0.012138 -0.247017 
-0.000000 -0.206924 
-0.000036 -0.232422 
-0.012138 -0.247017 
0.000036 -0.232422 
-0.014070 -0.239376 
-0.015864 -0.192022 
-0.055760 -0.117316 
-0.023047 -0.111614 
0.000000 0.000000 
-0.000000 -0.108940 
0.000000 0.000000 
0.023047 -0.111614 
0.055760 -0.117316 
0.015864 -0.192022 
0.014070 -0.239376 
0.010149 -0.259389 
-0.001244 -0.242106 
0.004928 -0.254516 
-0.000000 -0.187663 
-0.007703 -0.212875 
0.009402 -0.210390 
0.001992 -0.208350 
-0.003601 -0.216322 
-0.000000 -0.204129 
-0.009402 -0.210390 
0.007703 -0.212875 
-0.004928 -0.254516 
0.001244 -0.242106 
-0.010149 -0.259389 
0.003601 -0.216322 
-0.001992 -0.208350 
-0.009331 -0.255952 
-0.006842 -0.241386 
-0.026733 -0.194489 
-0.015535 -0.221565 
-0.024855 -0.216173 
-0.007362 -0.216766 
-0.006978 -0.187307 
-0.050168 -0.155525 
-0.036042 -0.159221 
-0.028233 -0.060065 
-0.038760 -0.114706 
-0.047688 -0.071620 
-0.022167 -0.156931 
-0.010264 -0.153865 
0.000000 0.000000 
-0.015467 -0.057907 
-0.000000 -0.057155 
-0.006886 -0.057336 
0.000000 0.000000 
-0.010539 -0.109655 
-0.000000 -0.152553 
0.000000 0.000000 
0.006886 -0.057336 
0.028233 -0.060065 
0.015467 -0.057907 
0.000000 0.000000 
0.010539 -0.109655 
0.010264 -0.153865 
0.047688 -0.071620 
0.038760 -0.114706 
0.026733 -0.194489 
0.036042 -0.159221 
0.050168 -0.155525 
0.022167 -0.156931 
0.006978 -0.187307 
0.024855 -0.216173 
0.015535 -0.221565 
0.006842 -0.241386 
0.009331 -0.255952 
0.007362 -0.216766 
0.009579 -0.261299 
0.007030 -0.258223 
0.008124 -0.260034 
0.003252 -0.245558 
0.005561 -0.253804 
0.011144 -0.255025 
0.001541 -0.244831 
0.002161 -0.250123 
-0.001894 -0.237763 
-0.000000 -0.163847 
-0.007945 -0.181573 
-0.005876 -0.168376 
-0.004469 -0.205104 
-0.006470 -0.195685 
-0.000000 -0.200730 
0.012390 -0.233574 
-0.005661 -0.209896 
-0.000505 -0.231771 
0.002106 -0.197251 
0.000698 -0.205263 
-0.000000 -0.196467 
-0.002586 -0.224701 
-0.000794 -0.213962 
0.000635 -0.219842 
-0.000000 -0.207783 
-0.000865 -0.209470 
-0.002582 -0.209554 
-0.005001 -0.229659 
-0.006162 -0.215693 
-0.004865 -0.227667 
0.005876 -0.168376 
0.007945 -0.181573 
0.000505 -0.231771 
0.005661 -0.209896 
-0.012390 -0.233574 
0.006470 -0.195685 
0.004469 -0.205104 
-0.008124 -0.260034 
-0.007030 -0.258223 
-0.009579 -0.261299 
0.001894 -0.237763 
-0.002161 -0.250123 
-0.001541 -0.244831 
-0.011144 -0.255025 
-0.005561 -0.253804 
-0.003252 -0.245558 
-0.000698 -0.205263 
-0.002106 -0.197251 
0.002582 -0.209554 
0.000865 -0.209470 
-0.000635 -0.219842 
0.000794 -0.213962 
0.002586 -0.224701 
0.005001 -0.229659 
0.004865 -0.227667 
0.006162 -0.215693 
-0.009181 -0.260475 
-0.007198 -0.256153 
-0.010393 -0.241849 
-0.007848 -0.249980 
-0.010844 -0.248722 
-0.004831 -0.248804 
-0.003291 -0.238172 
-0.032516 -0.192929 
-0.026239 -0.207532 
-0.031502 -0.202756 
-0.016187 -0.208082 
-0.021097 -0.208992 
-0.021117 -0.193900 
-0.018874 -0.228423 
-0.020097 -0.220547 
-0.014631 -0.231997 
-0.004624 -0.199446 
-0.003337 -0.185688 
-0.003285 -0.225580 
-0.004213 -0.212537 
-0.011130 -0.189604 
-0.007801 -0.202498 
-0.011692 -0.205647 
-0.010593 -0.232327 
-0.011226 -0.220053 
-0.006737 -0.230001 
-0.044697 -0.172494 
-0.038370 -0.176663 
-0.046527 -0.138626 
-0.043246 -0.158618 
-0.054104 -0.137182 
-0.031893 -0.177940 
-0.025520 -0.177373 
-0.022382 -0.032265 
-0.037403 -0.063779 
-0.033551 -0.043506 
-0.030501 -0.113023 
-0.035673 -0.088631 
-0.027443 -0.086749 
-0.054133 -0.095658 
-0.044934 -0.091688 
-0.047442 -0.116443 
-0.008916 -0.172057 
-0.004339 -0.170821 
-0.019483 -0.175792 
-0.013936 -0.173847 
-0.016870 -0.134096 
-0.015944 -0.155295 
-0.023498 -0.135490 
-0.038576 -0.138194 
-0.030779 -0.136958 
-0.028919 -0.158410 
0.000000 0.000000 
-0.015787 -0.029885 
-0.008400 -0.029191 
-0.011552 -0.029333 
0.000000 0.000000 
-0.021097 -0.058569 
-0.020430 -0.085592 
-0.000000 -0.029113 
-0.001800 -0.029122 
0.000000 0.000000 
-0.004483 -0.083994 
-0.003343 -0.057207 
-0.000000 -0.083879 
0.000000 0.000000 
-0.003715 -0.029133 
-0.005864 -0.029150 
-0.005015 -0.152900 
-0.000000 -0.170387 
-0.016437 -0.110490 
-0.010856 -0.132963 
-0.000000 -0.131957 
-0.005305 -0.132223 
-0.005141 -0.109130 
-0.010843 -0.057553 
-0.009213 -0.084308 
-0.014442 -0.084827 
0.000000 0.000000 
0.001800 -0.029122 
0.005864 -0.029150 
0.003715 -0.029133 
0.000000 0.000000 
0.003343 -0.057207 
0.004483 -0.083994 
0.022382 -0.032265 
0.015787 -0.029885 
0.000000 0.000000 
0.020430 -0.085592 
0.021097 -0.058569 
0.027443 -0.086749 
0.000000 0.000000 
0.011552 -0.029333 
0.008400 -0.029191 
0.005015 -0.152900 
0.004339 -0.170821 
0.005141 -0.109130 
0.005305 -0.132223 
0.016870 -0.134096 
0.010856 -0.132963 
0.016437 -0.110490 
0.010843 -0.057553 
0.014442 -0.084827 
0.009213 -0.084308 
0.033551 -0.043506 
0.037403 -0.063779 
0.047442 -0.116443 
0.044934 -0.091688 
0.054133 -0.095658 
0.035673 -0.088631 
0.030501 -0.113023 
0.032516 -0.192929 
0.038370 -0.176663 
0.044697 -0.172494 
0.025520 -0.177373 
0.031893 -0.177940 
0.021117 -0.193900 
0.054104 -0.137182 
0.043246 -0.158618 
0.046527 -0.138626 
0.008916 -0.172057 
0.003337 -0.185688 
0.023498 -0.135490 
0.015944 -0.155295 
0.011130 -0.189604 
0.013936 -0.173847 
0.019483 -0.175792 
0.038576 -0.138194 
0.028919 -0.158410 
0.030779 -0.136958 
0.031502 -0.202756 
0.026239 -0.207532 
0.014631 -0.231997 
0.020097 -0.220547 
0.018874 -0.228423 
0.021097 -0.208992 
0.016187 -0.208082 
0.007198 -0.256153 
0.009181 -0.260475 
0.003291 -0.238172 
0.004831 -0.248804 
0.010844 -0.248722 
0.007848 -0.249980 
0.010393 -0.241849 
0.004624 -0.199446 
0.011692 -0.205647 
0.007801 -0.202498 
0.004213 -0.212537 
0.003285 -0.225580 
0.010593 -0.232327 
0.006737 -0.230001 
0.011226 -0.220053 
0.009526 -0.261709 
0.008884 -0.261005 
0.009094 -0.261372 
0.008569 -0.259162 
0.008716 -0.260325 
0.009791 -0.260579 
0.006679 -0.257797 
0.007602 -0.259382 
0.005765 -0.256649 
0.007221 -0.246670 
0.007820 -0.251293 
0.011675 -0.251563 
0.002100 -0.248637 
0.004548 -0.250248 
0.000444 -0.243974 
0.010616 -0.257584 
0.008183 -0.254795 
0.008409 -0.257366 
0.000443 -0.238804 
-0.000183 -0.241694 
-0.001204 -0.235247 
0.003621 -0.252718 
0.001517 -0.247650 
0.003120 -0.250156 
-0.001963 -0.240035 
-0.000191 -0.244297 
0.000536 -0.246622 
0.006367 -0.256411 
0.003516 -0.252204 
0.004724 -0.254828 
-0.000000 -0.143180 
-0.007310 -0.156259 
-0.012149 -0.143399 
-0.004555 -0.180861 
-0.005594 -0.169603 
-0.000000 -0.177579 
0.002908 -0.190842 
-0.007672 -0.173908 
-0.004931 -0.192349 
-0.001911 -0.205431 
-0.002459 -0.201866 
-0.000000 -0.204565 
-0.007763 -0.203832 
-0.005469 -0.201035 
-0.006848 -0.207265 
-0.000000 -0.195203 
-0.003065 -0.196736 
-0.003750 -0.189824 
0.012431 -0.241142 
0.004714 -0.232911 
0.006251 -0.240669 
-0.001016 -0.209520 
0.002354 -0.222812 
0.011675 -0.223703 
-0.005679 -0.221677 
-0.003014 -0.221999 
-0.007440 -0.211204 
-0.007376 -0.189108 
-0.008220 -0.199865 
-0.007673 -0.195793 
0.001344 -0.191405 
0.001023 -0.196662 
-0.000000 -0.191254 
0.001242 -0.206607 
0.001423 -0.201715 
0.002294 -0.202840 
-0.000000 -0.200774 
0.000677 -0.201011 
0.000308 -0.204416 
-0.001455 -0.228748 
-0.001048 -0.222550 
0.000083 -0.226022 
-0.002206 -0.215540 
-0.001830 -0.218982 
-0.003331 -0.220472 
0.001362 -0.213969 
-0.000252 -0.216829 
0.000611 -0.211568 
-0.000000 -0.207958 
-0.000938 -0.208493 
-0.001407 -0.207598 
-0.000084 -0.206833 
-0.000499 -0.208212 
-0.000000 -0.206484 
-0.003346 -0.212568 
-0.001703 -0.210051 
-0.002155 -0.212476 
0.000146 -0.209480 
-0.000988 -0.211442 
-0.000064 -0.207860 
0.001591 -0.239501 
-0.006640 -0.221704 
-0.003558 -0.230651 
-0.001459 -0.238039 
-0.003129 -0.236473 
-0.003504 -0.207925 
-0.004941 -0.216350 
-0.004549 -0.211715 
-0.005735 -0.209931 
-0.007151 -0.214471 
-0.002690 -0.231064 
-0.003718 -0.234832 
-0.003499 -0.233060 
-0.003898 -0.226372 
-0.004692 -0.221368 
-0.006550 -0.221817 
-0.005816 -0.221769 
-0.005316 -0.228713 
0.012149 -0.143399 
0.007310 -0.156259 
0.004931 -0.192349 
0.007672 -0.173908 
-0.002908 -0.190842 
0.005594 -0.169603 
0.004555 -0.180861 
-0.006251 -0.240669 
-0.004714 -0.232911 
-0.012431 -0.241142 
0.007440 -0.211204 
0.003014 -0.221999 
0.005679 -0.221677 
-0.011675 -0.223703 
-0.002354 -0.222812 
0.001016 -0.209520 
0.002459 -0.201866 
0.001911 -0.205431 
0.003750 -0.189824 
0.003065 -0.196736 
0.006848 -0.207265 
0.005469 -0.201035 
0.007763 -0.203832 
0.007673 -0.195793 
0.008220 -0.199865 
0.007376 -0.189108 
-0.009094 -0.261372 
-0.008884 -0.261005 
-0.009526 -0.261709 
-0.005765 -0.256649 
-0.007602 -0.259382 
-0.006679 -0.257797 
-0.009791 -0.260579 
-0.008716 -0.260325 
-0.008569 -0.259162 
0.001204 -0.235247 
0.000183 -0.241694 
-0.000443 -0.238804 
-0.000536 -0.246622 
0.000191 -0.244297 
0.001963 -0.240035 
-0.003120 -0.250156 
-0.001517 -0.247650 
-0.003621 -0.252718 
-0.011675 -0.251563 
-0.007820 -0.251293 
-0.007221 -0.246670 
-0.008409 -0.257366 
-0.008183 -0.254795 
-0.010616 -0.257584 
-0.000444 -0.243974 
-0.004548 -0.250248 
-0.002100 -0.248637 
-0.004724 -0.254828 
-0.003516 -0.252204 
-0.006367 -0.256411 
-0.001023 -0.196662 
-0.001344 -0.191405 
-0.000308 -0.204416 
-0.000677 -0.201011 
-0.002294 -0.202840 
-0.001423 -0.201715 
-0.001242 -0.206607 
0.001407 -0.207598 
0.000938 -0.208493 
0.002155 -0.212476 
0.001703 -0.210051 
0.003346 -0.212568 
0.000499 -0.208212 
0.000084 -0.206833 
-0.000083 -0.226022 
0.001048 -0.222550 
0.001455 -0.228748 
-0.000611 -0.211568 
0.000252 -0.216829 
-0.001362 -0.213969 
0.003331 -0.220472 
0.001830 -0.218982 
0.002206 -0.215540 
0.000064 -0.207860 
0.000988 -0.211442 
-0.000146 -0.209480 
-0.001591 -0.239501 
0.003129 -0.236473 
0.001459 -0.238039 
0.003558 -0.230651 
0.006640 -0.221704 
0.002690 -0.231064 
0.004692 -0.221368 
0.003898 -0.226372 
0.003499 -0.233060 
0.003718 -0.234832 
0.003504 -0.207925 
0.007151 -0.214471 
0.005735 -0.209931 
0.004549 -0.211715 
0.004941 -0.216350 
0.005316 -0.228713 
0.005816 -0.221769 
0.006550 -0.221817 
-0.009355 -0.261606 
-0.008638 -0.260340 
-0.008249 -0.256218 
-0.008309 -0.258611 
-0.009131 -0.258584 
-0.007511 -0.258403 
-0.006108 -0.255625 
-0.012193 -0.240999 
-0.010530 -0.245548 
-0.012242 -0.244277 
-0.007252 -0.246062 
-0.008887 -0.246142 
-0.008618 -0.241971 
-0.009882 -0.252639 
-0.009317 -0.249634 
-0.008564 -0.253208 
-0.002161 -0.241676 
-0.001572 -0.235591 
-0.004607 -0.251886 
-0.003221 -0.247190 
-0.005061 -0.240114 
-0.003888 -0.243842 
-0.005589 -0.245300 
-0.007291 -0.253330 
-0.006367 -0.249719 
-0.005988 -0.252917 
-0.035412 -0.191027 
-0.032149 -0.198498 
-0.034909 -0.195613 
-0.026651 -0.201553 
-0.029393 -0.200432 
-0.029615 -0.194038 
-0.028128 -0.209607 
-0.028859 -0.205623 
-0.025604 -0.212402 
-0.016194 -0.200342 
-0.018686 -0.201277 
-0.018434 -0.193073 
-0.018273 -0.215512 
-0.018603 -0.208779 
-0.015936 -0.215178 
-0.023892 -0.194406 
-0.021276 -0.201860 
-0.023938 -0.201989 
-0.016296 -0.234077 
-0.016716 -0.230661 
-0.014272 -0.236026 
-0.022449 -0.218838 
-0.019464 -0.224927 
-0.021748 -0.222448 
-0.015075 -0.227183 
-0.017244 -0.226468 
-0.017791 -0.221420 
-0.023648 -0.208614 
-0.020672 -0.215233 
-0.023118 -0.214235 
-0.002746 -0.191898 
-0.001648 -0.185269 
-0.003335 -0.204308 
-0.003294 -0.198199 
-0.005104 -0.186383 
-0.004234 -0.192706 
-0.005844 -0.193774 
-0.001492 -0.229221 
-0.001831 -0.222812 
-0.005682 -0.214711 
-0.003716 -0.219058 
-0.005264 -0.221443 
-0.002404 -0.216518 
-0.002980 -0.210372 
-0.013425 -0.190837 
-0.011590 -0.197814 
-0.013822 -0.199156 
-0.007599 -0.195035 
-0.009514 -0.196411 
-0.008982 -0.188402 
-0.009523 -0.211510 
-0.009661 -0.204111 
-0.007678 -0.209737 
-0.004574 -0.206021 
-0.006023 -0.207870 
-0.006122 -0.200910 
-0.012326 -0.237128 
-0.012951 -0.227166 
-0.012594 -0.232528 
-0.010419 -0.237457 
-0.008532 -0.237064 
-0.013876 -0.207004 
-0.009222 -0.218582 
-0.011533 -0.213077 
-0.013680 -0.214333 
-0.013340 -0.221078 
-0.003101 -0.232010 
-0.006668 -0.235994 
-0.004845 -0.234291 
-0.004938 -0.228011 
-0.007003 -0.223549 
-0.010882 -0.226499 
-0.008889 -0.225265 
-0.008633 -0.231463 
-0.041577 -0.180490 
-0.038577 -0.183204 
-0.044320 -0.166439 
-0.041568 -0.175013 
-0.047585 -0.164175 
-0.035531 -0.185010 
-0.032464 -0.186056 
-0.051398 -0.127917 
-0.050396 -0.138230 
-0.055272 -0.127452 
-0.039656 -0.159155 
-0.045129 -0.148878 
-0.041355 -0.149141 
-0.052370 -0.146533 
-0.048818 -0.148069 
-0.046764 -0.157464 
-0.023413 -0.185936 
-0.020535 -0.185184 
-0.029404 -0.186478 
-0.026378 -0.186401 
-0.030724 -0.168681 
-0.028677 -0.177831 
-0.034130 -0.168860 
-0.040966 -0.167872 
-0.037556 -0.168632 
-0.035135 -0.177593 
-0.014964 -0.017883 
-0.027464 -0.035936 
-0.021535 -0.025981 
-0.032553 -0.061511 
-0.031008 -0.048449 
-0.026424 -0.046268 
-0.041868 -0.058287 
-0.036349 -0.052284 
-0.042601 -0.067147 
-0.026665 -0.112282 
-0.029358 -0.100160 
-0.025566 -0.099450 
-0.037691 -0.101995 
-0.033407 -0.101001 
-0.034544 -0.113835 
-0.028435 -0.073590 
-0.031402 -0.087570 
-0.032563 -0.074632 
-0.055435 -0.106736 
-0.051181 -0.105693 
-0.051706 -0.117090 
-0.046890 -0.080856 
-0.049650 -0.093652 
-0.051643 -0.083997 
-0.043089 -0.115602 
-0.046699 -0.104419 
-0.042155 -0.103147 
-0.037086 -0.076114 
-0.040217 -0.089994 
-0.041928 -0.078171 
-0.003876 -0.178653 
-0.001926 -0.178288 
-0.008011 -0.180061 
-0.005895 -0.179256 
-0.007154 -0.162691 
-0.006582 -0.171350 
-0.009674 -0.163316 
-0.017765 -0.184236 
-0.015122 -0.183176 
-0.017945 -0.165804 
-0.016643 -0.174830 
-0.020967 -0.166689 
-0.012615 -0.182081 
-0.010246 -0.181021 
-0.020089 -0.123179 
-0.020101 -0.134770 
-0.023522 -0.123842 
-0.013041 -0.154536 
-0.016560 -0.145014 
-0.013547 -0.144331 
-0.023029 -0.146527 
-0.019719 -0.145756 
-0.018985 -0.156107 
-0.011363 -0.172905 
-0.015058 -0.164913 
-0.012303 -0.164069 
-0.047337 -0.127828 
-0.039014 -0.126767 
-0.043180 -0.127395 
-0.042563 -0.138564 
-0.037553 -0.149006 
-0.027143 -0.124553 
-0.026486 -0.147289 
-0.027061 -0.136230 
-0.030948 -0.125296 
-0.034917 -0.126047 
-0.022447 -0.176665 
-0.032450 -0.158939 
-0.027377 -0.168201 
-0.024116 -0.167511 
-0.025483 -0.157718 
-0.034630 -0.137632 
-0.030077 -0.147997 
-0.033778 -0.148593 
0.000000 0.000000 
-0.011577 -0.015781 
-0.008067 -0.014797 
-0.009539 -0.015078 
0.000000 0.000000 
-0.018642 -0.030638 
-0.022615 -0.045070 
-0.004303 -0.014632 
-0.005059 -0.014628 
0.000000 0.000000 
-0.014284 -0.043785 
-0.009878 -0.029239 
-0.012159 -0.043637 
0.000000 0.000000 
-0.005912 -0.014638 
-0.006896 -0.014682 
-0.023793 -0.086106 
-0.022028 -0.098846 
-0.024438 -0.059154 
-0.024697 -0.072854 
-0.018239 -0.071920 
-0.021314 -0.072320 
-0.018129 -0.058179 
-0.013485 -0.029518 
-0.016677 -0.044017 
-0.019417 -0.044402 
-0.000000 -0.014679 
-0.000457 -0.014680 
0.000000 0.000000 
-0.001297 -0.043290 
-0.000893 -0.029117 
-0.000000 -0.043281 
0.000000 0.000000 
-0.000921 -0.014679 
-0.001401 -0.014676 
-0.002421 -0.096683 
-0.002226 -0.083912 
-0.000000 -0.096641 
-0.005077 -0.057261 
-0.003970 -0.070783 
-0.006026 -0.070874 
-0.000000 -0.070702 
-0.001971 -0.070726 
-0.001659 -0.057172 
0.000000 0.000000 
-0.003004 -0.014652 
-0.003623 -0.014642 
-0.001902 -0.014670 
-0.002434 -0.014662 
0.000000 0.000000 
-0.006892 -0.043409 
-0.004752 -0.029140 
-0.005390 -0.043366 
-0.002614 -0.043307 
-0.003972 -0.043332 
-0.002736 -0.029127 
-0.002156 -0.170496 
-0.000000 -0.178178 
-0.007596 -0.153312 
-0.004721 -0.162224 
-0.000000 -0.161835 
-0.002346 -0.161935 
-0.002493 -0.152644 
-0.019642 -0.111017 
-0.016839 -0.122575 
-0.010819 -0.121588 
-0.013755 -0.122041 
-0.013411 -0.110036 
-0.013793 -0.133488 
-0.010665 -0.143736 
-0.000000 -0.120728 
-0.002626 -0.120790 
-0.002554 -0.108992 
-0.002591 -0.142661 
-0.002637 -0.132028 
-0.000000 -0.142580 
-0.007792 -0.109352 
-0.005283 -0.120956 
-0.008004 -0.121224 
-0.007895 -0.143248 
-0.008035 -0.132538 
-0.005213 -0.142886 
-0.007072 -0.029165 
-0.008799 -0.057432 
-0.008501 -0.043465 
-0.010246 -0.043537 
-0.013053 -0.057707 
-0.004874 -0.096793 
-0.010005 -0.097211 
-0.007392 -0.096969 
-0.006802 -0.084126 
-0.008169 -0.070999 
-0.018728 -0.098330 
-0.015427 -0.071609 
-0.017324 -0.085173 
-0.015643 -0.097890 
-0.012745 -0.097518 
-0.010428 -0.071160 
-0.011749 -0.084541 
-0.012836 -0.071360 
0.000000 0.000000 
0.000457 -0.014680 
0.001401 -0.014676 
0.000921 -0.014679 
0.000000 0.000000 
0.000893 -0.029117 
0.001297 -0.043290 
0.003623 -0.014642 
0.003004 -0.014652 
0.000000 0.000000 
0.005390 -0.043366 
0.004752 -0.029140 
0.006892 -0.043409 
0.000000 0.000000 
0.002434 -0.014662 
0.001902 -0.014670 
0.002226 -0.083912 
0.002421 -0.096683 
0.001659 -0.057172 
0.001971 -0.070726 
0.006026 -0.070874 
0.003970 -0.070783 
0.005077 -0.057261 
0.002736 -0.029127 
0.003972 -0.043332 
0.002614 -0.043307 
0.014964 -0.017883 
0.011577 -0.015781 
0.000000 0.000000 
0.022615 -0.045070 
0.018642 -0.030638 
0.026424 -0.046268 
0.000000 0.000000 
0.009539 -0.015078 
0.008067 -0.014797 
0.022028 -0.098846 
0.023793 -0.086106 
0.025566 -0.099450 
0.018129 -0.058179 
0.021314 -0.072320 
0.018239 -0.071920 
0.028435 -0.073590 
0.024697 -0.072854 
0.024438 -0.059154 
0.000000 0.000000 
0.005059 -0.014628 
0.004303 -0.014632 
0.006896 -0.014682 
0.005912 -0.014638 
0.000000 0.000000 
0.012159 -0.043637 
0.009878 -0.029239 
0.014284 -0.043785 
0.019417 -0.044402 
0.016677 -0.044017 
0.013485 -0.029518 
0.002156 -0.170496 
0.001926 -0.178288 
0.002493 -0.152644 
0.002346 -0.161935 
0.007154 -0.162691 
0.004721 -0.162224 
0.007596 -0.153312 
0.002554 -0.108992 
0.002626 -0.120790 
0.008004 -0.121224 
0.005283 -0.120956 
0.007792 -0.109352 
0.002637 -0.132028 
0.002591 -0.142661 
0.020089 -0.123179 
0.016839 -0.122575 
0.019642 -0.111017 
0.010665 -0.143736 
0.013793 -0.133488 
0.013547 -0.144331 
0.013411 -0.110036 
0.013755 -0.122041 
0.010819 -0.121588 
0.005213 -0.142886 
0.008035 -0.132538 
0.007895 -0.143248 
0.007072 -0.029165 
0.013053 -0.057707 
0.010246 -0.043537 
0.008501 -0.043465 
0.008799 -0.057432 
0.018728 -0.098330 
0.012745 -0.097518 
0.015643 -0.097890 
0.017324 -0.085173 
0.015427 -0.071609 
0.004874 -0.096793 
0.008169 -0.070999 
0.006802 -0.084126 
0.007392 -0.096969 
0.010005 -0.097211 
0.012836 -0.071360 
0.011749 -0.084541 
0.010428 -0.071160 
0.021535 -0.025981 
0.027464 -0.035936 
0.042601 -0.067147 
0.036349 -0.052284 
0.041868 -0.058287 
0.031008 -0.048449 
0.032553 -0.061511 
0.051706 -0.117090 
0.051181 -0.105693 
0.055435 -0.106736 
0.042155 -0.103147 
0.046699 -0.104419 
0.043089 -0.115602 
0.051643 -0.083997 
0.049650 -0.093652 
0.046890 -0.080856 
0.029358 -0.100160 
0.026665 -0.112282 
0.032563 -0.074632 
0.031402 -0.087570 
0.034544 -0.113835 
0.033407 -0.101001 
0.037691 -0.101995 
0.041928 -0.078171 
0.040217 -0.089994 
0.037086 -0.076114 
0.035412 -0.191027 
0.038577 -0.183204 
0.041577 -0.180490 
0.032464 -0.186056 
0.035531 -0.185010 
0.029615 -0.194038 
0.047585 -0.164175 
0.041568 -0.175013 
0.044320 -0.166439 
0.020535 -0.185184 
0.023413 -0.185936 
0.018434 -0.193073 
0.034130 -0.168860 
0.028677 -0.177831 
0.030724 -0.168681 
0.023892 -0.194406 
0.026378 -0.186401 
0.029404 -0.186478 
0.055272 -0.127452 
0.050396 -0.138230 
0.051398 -0.127917 
0.046764 -0.157464 
0.048818 -0.148069 
0.052370 -0.146533 
0.041355 -0.149141 
0.045129 -0.148878 
0.039656 -0.159155 
0.035135 -0.177593 
0.037556 -0.168632 
0.040966 -0.167872 
0.003876 -0.178653 
0.001648 -0.185269 
0.009674 -0.163316 
0.006582 -0.171350 
0.005104 -0.186383 
0.005895 -0.179256 
0.008011 -0.180061 
0.023522 -0.123842 
0.020101 -0.134770 
0.018985 -0.156107 
0.019719 -0.145756 
0.023029 -0.146527 
0.016560 -0.145014 
0.013041 -0.154536 
0.013425 -0.190837 
0.015122 -0.183176 
0.017765 -0.184236 
0.010246 -0.181021 