# vtk DataFile Version 2.0
Unstructured Grid Example
ASCII
DATASET UNSTRUCTURED_GRID

POINTS 16641 float
0.008994 -0.261957 0.000000 
0.991006 -0.261957 0.000000 
1.000000 1.000000 0.000000 
0.000000 1.000000 0.000000 
0.500000 -0.100000 0.000000 
0.961529 0.311576 0.000000 
0.500000 1.000000 0.000000 
0.038471 0.311576 0.000000 
0.500000 0.314312 0.000000 
0.261645 -0.247586 0.000000 
0.500000 0.041952 0.000000 
0.249985 0.017069 0.000000 
0.738355 -0.247586 0.000000 
0.750015 0.017069 0.000000 
0.985934 0.010473 0.000000 
0.733982 0.307567 0.000000 
0.944007 0.632519 0.000000 
0.726803 0.638170 0.000000 
0.750000 1.000000 0.000000 
0.500000 0.640806 0.000000 
0.250000 1.000000 0.000000 
0.273197 0.638170 0.000000 
0.055993 0.632519 0.000000 
0.266018 0.307567 0.000000 
0.014066 0.010473 0.000000 
0.134653 -0.259699 0.000000 
0.248566 -0.117644 0.000000 
0.129747 -0.129840 0.000000 
0.500000 -0.064472 0.000000 
0.367154 -0.088659 0.000000 
0.384189 -0.211303 0.000000 
0.377102 0.165966 0.000000 
0.371479 0.032848 0.000000 
0.500000 0.170086 0.000000 
0.615811 -0.211303 0.000000 
0.632846 -0.088659 0.000000 
0.870253 -0.129840 0.000000 
0.751434 -0.117644 0.000000 
0.865347 -0.259699 0.000000 
0.628521 0.032848 0.000000 
0.622898 0.165966 0.000000 
0.990863 -0.131042 0.000000 
0.868147 0.008293 0.000000 
0.848094 0.305208 0.000000 
0.859338 0.153114 0.000000 
0.975031 0.158631 0.000000 
0.742508 0.157754 0.000000 
0.617920 0.312173 0.000000 
0.949615 0.469271 0.000000 
0.838763 0.465518 0.000000 
0.846563 0.814804 0.000000 
0.836037 0.635090 0.000000 
0.952040 0.803236 0.000000 
0.727677 0.467751 0.000000 
0.614651 0.470766 0.000000 
0.875000 1.000000 0.000000 
0.734422 0.816989 0.000000 
0.500000 0.817727 0.000000 
0.618063 0.817559 0.000000 
0.625000 1.000000 0.000000 
0.614384 0.640112 0.000000 
0.500000 0.472054 0.000000 
0.375000 1.000000 0.000000 
0.381937 0.817559 0.000000 
0.153437 0.814804 0.000000 
0.265578 0.816989 0.000000 
0.125000 1.000000 0.000000 
0.385616 0.640112 0.000000 
0.385349 0.470766 0.000000 
0.047960 0.803236 0.000000 
0.163963 0.635090 0.000000 
0.151906 0.305208 0.000000 
0.161237 0.465518 0.000000 
0.050385 0.469271 0.000000 
0.272323 0.467751 0.000000 
0.382080 0.312173 0.000000 
0.024969 0.158631 0.000000 
0.140662 0.153114 0.000000 
0.131853 0.008293 0.000000 
0.009137 -0.131042 0.000000 
0.257492 0.157754 0.000000 
0.071553 -0.261477 0.000000 
0.131706 -0.196044 0.000000 
0.070293 -0.197726 0.000000 
0.252950 -0.183631 0.000000 
0.192749 -0.191747 0.000000 
0.198157 -0.255458 0.000000 
0.188966 -0.057751 0.000000 
0.189481 -0.125558 0.000000 
0.248030 -0.050780 0.000000 
0.500000 -0.104252 0.000000 
0.429317 -0.120224 0.000000 
0.430674 -0.169326 0.000000 
0.433110 -0.018795 0.000000 
0.431078 -0.071986 0.000000 
0.500000 -0.014612 0.000000 
0.324405 -0.234326 0.000000 
0.368875 -0.148049 0.000000 
0.311653 -0.169961 0.000000 
0.439670 0.239604 0.000000 
0.438265 0.168977 0.000000 
0.500000 0.240384 0.000000 
0.309960 0.024658 0.000000 
0.374308 0.097773 0.000000 
0.313236 0.092037 0.000000 
0.500000 0.103780 0.000000 
0.436706 0.102140 0.000000 
0.434994 0.039410 0.000000 
0.307292 -0.105283 0.000000 
0.368856 -0.029045 0.000000 
0.307582 -0.040801 0.000000 
0.569326 -0.169326 0.000000 
0.570683 -0.120224 0.000000 
0.688347 -0.169961 0.000000 
0.631125 -0.148049 0.000000 
0.675595 -0.234326 0.000000 
0.568922 -0.071986 0.000000 
0.566890 -0.018795 0.000000 
0.929707 -0.197726 0.000000 
0.868294 -0.196044 0.000000 
0.928447 -0.261477 0.000000 
0.751970 -0.050780 0.000000 
0.810519 -0.125558 0.000000 
0.811034 -0.057751 0.000000 
0.801843 -0.255458 0.000000 
0.807251 -0.191747 0.000000 
0.747050 -0.183631 0.000000 
0.561735 0.168977 0.000000 
0.560330 0.239604 0.000000 
0.565006 0.039410 0.000000 
0.563294 0.102140 0.000000 
0.686764 0.092037 0.000000 
0.625692 0.097773 0.000000 
0.690040 0.024658 0.000000 
0.692708 -0.105283 0.000000 
0.692418 -0.040801 0.000000 
0.631144 -0.029045 0.000000 
0.991158 -0.198008 0.000000 
0.930487 -0.131358 0.000000 
0.927101 0.007916 0.000000 
0.929729 -0.062700 0.000000 
0.989243 -0.061347 0.000000 
0.870243 -0.061626 0.000000 
0.809196 0.011418 0.000000 
0.904805 0.306808 0.000000 
0.911100 0.229703 0.000000 
0.968343 0.234524 0.000000 
0.796157 0.229041 0.000000 
0.853744 0.228193 0.000000 
0.791217 0.305747 0.000000 
0.981064 0.083903 0.000000 
0.917280 0.154196 0.000000 
0.922796 0.080256 0.000000 
0.620268 0.237454 0.000000 
0.559106 0.313766 0.000000 
0.746626 0.086420 0.000000 
0.683161 0.161883 0.000000 
0.676237 0.309926 0.000000 
0.679564 0.234474 0.000000 
0.738159 0.231403 0.000000 
0.864330 0.079851 0.000000 
0.801146 0.154553 0.000000 
0.805681 0.082096 0.000000 
0.955101 0.389783 0.000000 
0.898937 0.385585 0.000000 
0.890760 0.548660 0.000000 
0.894049 0.466148 0.000000 
0.945670 0.550134 0.000000 
0.842921 0.384275 0.000000 
0.786805 0.384803 0.000000 
0.914853 0.905115 0.000000 
0.899846 0.811059 0.000000 
0.966107 0.893726 0.000000 
0.781818 0.636767 0.000000 
0.839119 0.723697 0.000000 
0.784882 0.725585 0.000000 
0.945623 0.716695 0.000000 
0.892336 0.720633 0.000000 
0.889838 0.633362 0.000000 
0.615993 0.390001 0.000000 
0.558118 0.391221 0.000000 
0.730360 0.386342 0.000000 
0.673435 0.388244 0.000000 
0.670509 0.553119 0.000000 
0.671431 0.469359 0.000000 
0.726347 0.551742 0.000000 
0.836225 0.549072 0.000000 
0.781540 0.550292 0.000000 
0.783403 0.466301 0.000000 
0.937500 1.000000 0.000000 
0.859066 0.907550 0.000000 
0.741537 0.908262 0.000000 
0.800856 0.908116 0.000000 
0.812500 1.000000 0.000000 
0.791251 0.816319 0.000000 
0.729431 0.726745 0.000000 
0.500000 0.908332 0.000000 
0.560685 0.908327 0.000000 
0.562500 1.000000 0.000000 
0.557983 0.728331 0.000000 
0.559132 0.817683 0.000000 
0.500000 0.728437 0.000000 
0.687500 1.000000 0.000000 
0.621257 0.908318 0.000000 
0.681592 0.908303 0.000000 
0.557443 0.471717 0.000000 
0.500000 0.391655 0.000000 
0.670948 0.639285 0.000000 
0.614062 0.554237 0.000000 
0.500000 0.555219 0.000000 
0.557154 0.554964 0.000000 
0.557320 0.640628 0.000000 
0.676578 0.817344 0.000000 
0.615719 0.728024 0.000000 
0.672956 0.727510 0.000000 
0.437500 1.000000 0.000000 
0.439315 0.908327 0.000000 
0.318408 0.908303 0.000000 
0.378743 0.908318 0.000000 
0.312500 1.000000 0.000000 
0.440868 0.817683 0.000000 
0.442017 0.728331 0.000000 
0.085147 0.905115 0.000000 
0.140934 0.907550 0.000000 
0.062500 1.000000 0.000000 
0.270569 0.726745 0.000000 
0.208749 0.816319 0.000000 
0.215118 0.725585 0.000000 
0.187500 1.000000 0.000000 
0.199144 0.908116 0.000000 
0.258463 0.908262 0.000000 
0.442557 0.471717 0.000000 
0.441882 0.391221 0.000000 
0.442680 0.640628 0.000000 
0.442846 0.554964 0.000000 
0.329491 0.553119 0.000000 
0.385938 0.554237 0.000000 
0.329052 0.639285 0.000000 
0.323422 0.817344 0.000000 
0.327044 0.727510 0.000000 
0.384281 0.728024 0.000000 
0.033893 0.893726 0.000000 
0.100154 0.811059 0.000000 
0.110162 0.633362 0.000000 
0.107664 0.720633 0.000000 
0.054377 0.716695 0.000000 
0.160881 0.723697 0.000000 
0.218182 0.636767 0.000000 
0.095195 0.306808 0.000000 
0.101063 0.385585 0.000000 
0.044899 0.389783 0.000000 
0.213195 0.384803 0.000000 
0.157079 0.384275 0.000000 
0.208783 0.305747 0.000000 
0.054330 0.550134 0.000000 
0.105951 0.466148 0.000000 
0.109240 0.548660 0.000000 
0.384007 0.390001 0.000000 
0.440894 0.313766 0.000000 
0.273653 0.551742 0.000000 
0.328569 0.469359 0.000000 
0.323763 0.309926 0.000000 
0.326565 0.388244 0.000000 
0.269640 0.386342 0.000000 
0.163775 0.549072 0.000000 
0.216597 0.466301 0.000000 
0.218460 0.550292 0.000000 
0.031657 0.234524 0.000000 
0.088900 0.229703 0.000000 
0.077204 0.080256 0.000000 
0.082720 0.154196 0.000000 
0.018936 0.083903 0.000000 
0.146256 0.228193 0.000000 
0.203843 0.229041 0.000000 
0.069513 -0.131358 0.000000 
0.008842 -0.198008 0.000000 
0.190804 0.011418 0.000000 
0.129757 -0.061626 0.000000 
0.010757 -0.061347 0.000000 
0.070271 -0.062700 0.000000 
0.072899 0.007916 0.000000 
0.379732 0.237454 0.000000 
0.261841 0.231403 0.000000 
0.320436 0.234474 0.000000 
0.316839 0.161883 0.000000 
0.253374 0.086420 0.000000 
0.135670 0.079851 0.000000 
0.194319 0.082096 0.000000 
0.198854 0.154553 0.000000 
0.040220 -0.261799 0.000000 
0.070960 -0.229943 0.000000 
0.039914 -0.230225 0.000000 
0.133160 -0.228229 0.000000 
0.102049 -0.229330 0.000000 
0.103034 -0.260827 0.000000 
0.100179 -0.164309 0.000000 
0.101023 -0.197141 0.000000 
0.130517 -0.163223 0.000000 
0.256841 -0.215997 0.000000 
0.226181 -0.220547 0.000000 
0.229936 -0.252061 0.000000 
0.220609 -0.155387 0.000000 
0.222992 -0.188254 0.000000 
0.250199 -0.150780 0.000000 
0.166377 -0.257955 0.000000 
0.195287 -0.223984 0.000000 
0.164257 -0.226493 0.000000 
0.219165 -0.020516 0.000000 
0.218491 -0.054662 0.000000 
0.248772 -0.017009 0.000000 
0.159691 -0.128098 0.000000 
0.188891 -0.091828 0.000000 
0.159246 -0.094282 0.000000 
0.247904 -0.084309 0.000000 
0.218430 -0.088524 0.000000 
0.219103 -0.122110 0.000000 
0.162299 -0.194293 0.000000 
0.190774 -0.158895 0.000000 
0.160730 -0.161461 0.000000 
0.500000 -0.116417 0.000000 
0.460991 -0.126727 0.000000 
0.455184 -0.144816 0.000000 
0.464283 -0.088933 0.000000 
0.463157 -0.109017 0.000000 
0.500000 -0.086019 0.000000 
0.408566 -0.191434 0.000000 
0.429204 -0.143625 0.000000 
0.400686 -0.161740 0.000000 
0.466890 0.012109 0.000000 
0.466349 -0.015699 0.000000 
0.500000 0.012944 0.000000 
0.398437 -0.079824 0.000000 
0.432105 -0.046045 0.000000 
0.399425 -0.052037 0.000000 
0.500000 -0.040514 0.000000 
0.465755 -0.041964 0.000000 
0.465085 -0.066471 0.000000 
0.293185 -0.241794 0.000000 
0.316845 -0.202409 0.000000 
0.287131 -0.210078 0.000000 
0.373412 -0.178953 0.000000 
0.345689 -0.192364 0.000000 
0.355009 -0.224578 0.000000 
0.337760 -0.128590 0.000000 
0.340328 -0.160194 0.000000 
0.367273 -0.118170 0.000000 
0.430091 -0.096635 0.000000 
0.397847 -0.107024 0.000000 
[...]
POINT_DATA 16641

SCALARS u_h float 2
LOOKUP_TABLE default
0.008994 -0.261957 
-0.008994 -0.261957 
0.000000 0.000000 
0.000000 0.000000 
0.000000 -0.100000 
-0.038471 -0.188424 
0.000000 0.000000 
0.038471 -0.188424 
0.000000 -0.185688 
0.011645 -0.247586 
0.000000 -0.208048 
-0.000015 -0.232931 
-0.011645 -0.247586 
0.000015 -0.232931 
-0.014066 -0.239527 
-0.016018 -0.192433 
-0.055993 -0.117481 
-0.023197 -0.111830 
0.000000 0.000000 
0.000000 -0.109194 
0.000000 0.000000 
0.023197 -0.111830 
0.055993 -0.117481 
0.016018 -0.192433 
0.014066 -0.239527 
0.009653 -0.259699 
-0.001434 -0.242644 
0.004747 -0.254840 
0.000000 -0.189472 
-0.007846 -0.213659 
0.009189 -0.211303 
0.002102 -0.209034 
-0.003521 -0.217152 
0.000000 -0.204914 
-0.009189 -0.211303 
0.007846 -0.213659 
-0.004747 -0.254840 
0.001434 -0.242644 
-0.009653 -0.259699 
0.003521 -0.217152 
-0.002102 -0.209034 
-0.009137 -0.256042 
-0.006853 -0.241707 
-0.026906 -0.194792 
-0.015662 -0.221886 
-0.024969 -0.216369 
-0.007492 -0.217246 
-0.007080 -0.187827 
-0.050385 -0.155729 
-0.036237 -0.159482 
-0.028437 -0.060196 
-0.038963 -0.114910 
-0.047960 -0.071764 
-0.022323 -0.157249 
-0.010349 -0.154234 
0.000000 0.000000 
-0.015578 -0.058011 
0.000000 -0.057273 
-0.006937 -0.057441 
0.000000 0.000000 
-0.010616 -0.109888 
0.000000 -0.152946 
0.000000 0.000000 
0.006937 -0.057441 
0.028437 -0.060196 
0.015578 -0.058011 
0.000000 0.000000 
0.010616 -0.109888 
0.010349 -0.154234 
0.047960 -0.071764 
0.038963 -0.114910 
0.026906 -0.194792 
0.036237 -0.159482 
0.050385 -0.155729 
0.022323 -0.157249 
0.007080 -0.187827 
0.024969 -0.216369 
0.015662 -0.221886 
0.006853 -0.241707 
0.009137 -0.256042 
0.007492 -0.217246 
0.009053 -0.261477 
0.006706 -0.258544 
0.007793 -0.260226 
0.002950 -0.246131 
0.005249 -0.254247 
0.010657 -0.255458 
0.001466 -0.245251 
0.001981 -0.250558 
-0.001970 -0.238280 
0.000000 -0.166752 
-0.008183 -0.182724 
-0.006826 -0.169326 
-0.004390 -0.206295 
-0.006422 -0.196986 
0.000000 -0.202112 
0.011905 -0.234326 
-0.006125 -0.210549 
-0.000847 -0.232461 
0.002170 -0.197896 
0.000765 -0.206023 
0.000000 -0.197116 
-0.002540 -0.225342 
-0.000692 -0.214727 
0.000736 -0.220463 
0.000000 -0.208720 
-0.000794 -0.210360 
-0.002506 -0.210590 
-0.005208 -0.230283 
-0.006144 -0.216545 
-0.004918 -0.228301 
0.006826 -0.169326 
0.008183 -0.182724 
0.000847 -0.232461 
0.006125 -0.210549 
-0.011905 -0.234326 
0.006422 -0.196986 
0.004390 -0.206295 
-0.007793 -0.260226 
-0.006706 -0.258544 
-0.009053 -0.261477 
0.001970 -0.238280 
-0.001981 -0.250558 
-0.001466 -0.245251 
-0.010657 -0.255458 
-0.005249 -0.254247 
-0.002950 -0.246131 
-0.000765 -0.206023 
-0.002170 -0.197896 
0.002506 -0.210590 
0.000794 -0.210360 
-0.000736 -0.220463 
0.000692 -0.214727 
0.002540 -0.225342 
0.005208 -0.230283 
0.004918 -0.228301 
0.006144 -0.216545 
-0.008842 -0.260508 
-0.007013 -0.256358 
-0.010399 -0.242084 
-0.007771 -0.250200 
-0.010757 -0.248847 
-0.004757 -0.249126 
-0.003304 -0.238582 
-0.032695 -0.193192 
-0.026400 -0.207797 
-0.031657 -0.202976 
-0.016343 -0.208459 
-0.021256 -0.209307 
-0.021283 -0.194253 
-0.018936 -0.228597 
-0.020220 -0.220804 
-0.014704 -0.232244 
-0.004732 -0.200046 
-0.003394 -0.186234 
-0.003374 -0.226080 
-0.004339 -0.213117 
-0.011263 -0.190074 
-0.007936 -0.203026 
-0.011841 -0.206097 
-0.010670 -0.232649 
-0.011354 -0.220447 
-0.006819 -0.230404 
-0.044899 -0.172717 
-0.038563 -0.176915 
-0.046740 -0.138840 
-0.043451 -0.158852 
-0.054330 -0.137366 
-0.032079 -0.178225 
-0.025695 -0.177697 
-0.022647 -0.032385 
-0.037654 -0.063941 
-0.033893 -0.043774 
-0.030682 -0.113233 
-0.035881 -0.088803 
-0.027618 -0.086915 
-0.054377 -0.095805 
-0.045164 -0.091867 
-0.047662 -0.116638 
-0.009007 -0.172499 
-0.004382 -0.171279 
-0.019640 -0.176158 
-0.014065 -0.174256 
-0.016991 -0.134381 
-0.016069 -0.155641 
-0.023653 -0.135758 
-0.038775 -0.138428 
-0.030960 -0.137208 
-0.029097 -0.158699 
0.000000 0.000000 
-0.015934 -0.029950 
-0.008463 -0.029238 
-0.011644 -0.029384 
0.000000 0.000000 
-0.021249 -0.058681 
-0.020569 -0.085755 
0.000000 -0.029168 
-0.001815 -0.029173 
0.000000 0.000000 
-0.004517 -0.084169 
-0.003368 -0.057317 
0.000000 -0.084063 
0.000000 0.000000 
-0.003743 -0.029182 
-0.005908 -0.029197 
-0.005057 -0.153283 
0.000000 -0.170845 
-0.016552 -0.110715 
-0.010938 -0.133263 
0.000000 -0.132281 
-0.005346 -0.132536 
-0.005180 -0.109372 
-0.010922 -0.057656 
-0.009281 -0.084476 
-0.014544 -0.084990 
0.000000 0.000000 
0.001815 -0.029173 
0.005908 -0.029197 
0.003743 -0.029182 
0.000000 0.000000 
0.003368 -0.057317 
0.004517 -0.084169 
0.022647 -0.032385 
0.015934 -0.029950 
0.000000 0.000000 
0.020569 -0.085755 
0.021249 -0.058681 
0.027618 -0.086915 
0.000000 0.000000 
0.011644 -0.029384 
0.008463 -0.029238 
0.005057 -0.153283 
0.004382 -0.171279 
0.005180 -0.109372 
0.005346 -0.132536 
0.016991 -0.134381 
0.010938 -0.133263 
0.016552 -0.110715 
0.010922 -0.057656 
0.014544 -0.084990 
0.009281 -0.084476 
0.033893 -0.043774 
0.037654 -0.063941 
0.047662 -0.116638 
0.045164 -0.091867 
0.054377 -0.095805 
0.035881 -0.088803 
0.030682 -0.113233 
0.032695 -0.193192 
0.038563 -0.176915 
0.044899 -0.172717 
0.025695 -0.177697 
0.032079 -0.178225 
0.021283 -0.194253 
0.054330 -0.137366 
0.043451 -0.158852 
0.046740 -0.138840 
0.009007 -0.172499 
0.003394 -0.186234 
0.023653 -0.135758 
0.016069 -0.155641 
0.011263 -0.190074 
0.014065 -0.174256 
0.019640 -0.176158 
0.038775 -0.138428 
0.029097 -0.158699 
0.030960 -0.137208 
0.031657 -0.202976 
0.026400 -0.207797 
0.014704 -0.232244 
0.020220 -0.220804 
0.018936 -0.228597 
0.021256 -0.209307 
0.016343 -0.208459 
0.007013 -0.256358 
0.008842 -0.260508 
0.003304 -0.238582 
0.004757 -0.249126 
0.010757 -0.248847 
0.007771 -0.250200 
0.010399 -0.242084 
0.004732 -0.200046 
0.011841 -0.206097 
0.007936 -0.203026 
0.004339 -0.213117 
0.003374 -0.226080 
0.010670 -0.232649 
0.006819 -0.230404 
0.011354 -0.220447 
0.008970 -0.261799 
0.008460 -0.261193 
0.008664 -0.261475 
0.008160 -0.259479 
0.008299 -0.260580 
0.009284 -0.260827 
0.006429 -0.258059 
0.007273 -0.259641 
0.005517 -0.256973 
0.006841 -0.247247 
0.007431 -0.251797 
0.011186 -0.252061 
0.001859 -0.249137 
0.004242 -0.250754 
0.000199 -0.244530 
0.010127 -0.257955 
0.007787 -0.255234 
0.008007 -0.257743 
0.000415 -0.239266 
-0.000259 -0.242162 
-0.001228 -0.235759 
0.003441 -0.253098 
0.001391 -0.248078 
0.002996 -0.250532 
-0.002096 -0.240559 
-0.000320 -0.244774 
0.000353 -0.247110 
0.006049 -0.256793 
0.003274 -0.252645 
0.004480 -0.255211 
0.000000 -0.147667 
-0.007759 -0.157977 
-0.013566 -0.144816 
-0.004467 -0.182683 
-0.005593 -0.171517 
0.000000 -0.179769 
0.002316 -0.191434 
-0.008296 -0.174875 
-0.005564 -0.192990 
-0.001860 -0.206641 
-0.002401 -0.203199 
0.000000 -0.205806 
-0.007813 -0.204824 
-0.005395 -0.202295 
-0.006825 -0.208287 
0.000000 -0.196764 
-0.002995 -0.198214 
-0.003665 -0.191471 
0.011935 -0.241794 
0.004345 -0.233659 
0.005881 -0.241328 
-0.001588 -0.210203 
0.001939 -0.223614 
0.011259 -0.224578 
-0.005990 -0.222340 
-0.003422 -0.222694 
-0.007727 -0.211920 
-0.007409 -0.190385 
-0.008403 -0.200774 
-0.008068 -0.196572 
0.001380 -0.191997 
0.001058 -0.197313 
0.000000 -0.191832 
0.001334 -0.207334 
0.001488 -0.202416 
0.002384 -0.203516 
0.000000 -0.201490 
0.000712 -0.201725 
0.000343 -0.205196 
-0.001423 -0.229317 
-0.000970 -0.223185 
0.000151 -0.226588 
-0.002112 -0.216340 
-0.001742 -0.219696 
-0.003267 -0.221201 
0.001477 -0.214633 
-0.000147 -0.217521 
0.000718 -0.212293 
0.000000 -0.208983 
-0.000897 -0.209503 
-0.001362 -0.208701 
-0.000047 -0.207684 
-0.000460 -0.209139 
0.000000 -0.207342 
-0.003260 -0.213506 
-0.001630 -0.211012 
-0.002064 -0.213363 
0.000238 -0.210261 
-0.000896 -0.212276 
0.000004 -0.208684 
0.001280 -0.240140 
-0.006836 -0.222381 
-0.003846 -0.231293 
-0.001720 -0.238646 
-0.003329 -0.237055 
-0.003426 -0.209039 
-0.004884 -0.217199 
-0.004471 -0.212698 
-0.005676 -0.210945 
-0.007196 -0.215302 
-0.002704 -0.231634 
-0.003852 -0.235403 
-0.003569 -0.233629 
-0.003894 -0.227013 
-0.004663 -0.222101 
-0.006647 -0.222521 
-0.005840 -0.222494 
-0.005441 -0.229339 
0.013566 -0.144816 
0.007759 -0.157977 
0.005564 -0.192990 
0.008296 -0.174875 
-0.002316 -0.191434 
0.005593 -0.171517 
0.004467 -0.182683 
-0.005881 -0.241328 
-0.004345 -0.233659 
-0.011935 -0.241794 
0.007727 -0.211920 
0.003422 -0.222694 
0.005990 -0.222340 
-0.011259 -0.224578 
-0.001939 -0.223614 
0.001588 -0.210203 
0.002401 -0.203199 
0.001860 -0.206641 
0.003665 -0.191471 
0.002995 -0.198214 
0.006825 -0.208287 
0.005395 -0.202295 
0.007813 -0.204824 
0.008068 -0.196572 
0.008403 -0.200774 
0.007409 -0.190385 
-0.008664 -0.261475 
-0.008460 -0.261193 
-0.008970 -0.261799 
-0.005517 -0.256973 
-0.007273 -0.259641 
-0.006429 -0.258059 
-0.009284 -0.260827 
-0.008299 -0.260580 
-0.008160 -0.259479 
0.001228 -0.235759 
0.000259 -0.242162 
-0.000415 -0.239266 
-0.000353 -0.247110 
0.000320 -0.244774 
0.002096 -0.240559 
-0.002996 -0.250532 
-0.001391 -0.248078 
-0.003441 -0.253098 
-0.011186 -0.252061 
-0.007431 -0.251797 
-0.006841 -0.247247 
-0.008007 -0.257743 
-0.007787 -0.255234 
-0.010127 -0.257955 
-0.000199 -0.244530 
-0.004242 -0.250754 
-0.001859 -0.249137 
-0.004480 -0.255211 
-0.003274 -0.252645 
-0.006049 -0.256793 
-0.001058 -0.197313 
-0.001380 -0.191997 
-0.000343 -0.205196 
-0.000712 -0.201725 
-0.002384 -0.203516 
-0.001488 -0.202416 
-0.001334 -0.207334 
0.001362 -0.208701 
0.000897 -0.209503 
0.002064 -0.213363 
0.001630 -0.211012 
0.003260 -0.213506 
0.000460 -0.209139 
0.000047 -0.207684 
-0.000151 -0.226588 
0.000970 -0.223185 
0.001423 -0.229317 
-0.000718 -0.212293 
0.000147 -0.217521 
-0.001477 -0.214633 
0.003267 -0.221201 
0.001742 -0.219696 
0.002112 -0.216340 
-0.000004 -0.208684 
0.000896 -0.212276 
-0.000238 -0.210261 
-0.001280 -0.240140 
0.003329 -0.237055 
0.001720 -0.238646 
0.003846 -0.231293 
0.006836 -0.222381 
0.002704 -0.231634 
0.004663 -0.222101 
0.003894 -0.227013 
0.003569 -0.233629 
0.003852 -0.235403 
0.003426 -0.209039 
0.007196 -0.215302 
0.005676 -0.210945 
0.004471 -0.212698 
0.004884 -0.217199 
0.005441 -0.229339 
0.005840 -0.222494 
0.006647 -0.222521 
-0.008915 -0.261592 
-0.008306 -0.260455 
-0.008061 -0.256362 
-0.008055 -0.258740 
-0.008871 -0.258650 
-0.007259 -0.258601 
-0.005925 -0.255890 
-0.012195 -0.241191 
-0.010493 -0.245730 
-0.012199 -0.244416 
-0.007222 -0.246337 
-0.008854 -0.246369 
-0.008627 -0.242248 
-0.009745 -0.252748 
-0.009235 -0.249805 
-0.008433 -0.253366 
-0.002132 -0.242091 
-0.001588 -0.236049 
-0.004483 -0.252209 
-0.003147 -0.247561 
-0.005073 -0.240479 
-0.003859 -0.244210 
-0.005560 -0.245621 
-0.007163 -0.253543 
-0.006292 -0.249990 
-0.005863 -0.253185 
-0.035595 -0.191278 
-0.032324 -0.198747 
-0.035081 -0.195850 
-0.026822 -0.201838 
-0.029567 -0.200697 
-0.029792 -0.194319 
-0.028264 -0.209815 
-0.029019 -0.205866 
-0.025745 -0.212638 
-0.016353 -0.200740 
-0.018849 -0.201643 
-0.018594 -0.193455 
-0.018419 -0.215831 
-0.018761 -0.209123 
-0.016081 -0.215530 
-0.024062 -0.194733 
-0.021442 -0.202197 
-0.024107 -0.202299 
-0.016327 -0.234239 
-0.016784 -0.230871 
-0.014309 -0.236227 
-0.022569 -0.219065 
-0.019559 -0.225146 
-0.021838 -0.222634 
-0.015177 -0.227470 
-0.017344 -0.226720 
-0.017917 -0.221709 
-0.023809 -0.208903 
-0.020817 -0.215523 
-0.023262 -0.214497 
-0.002807 -0.192492 
-0.001677 -0.185809 
-0.003444 -0.204949 
-0.003382 -0.198827 
-0.005185 -0.186921 
-0.004319 -0.193288 
-0.005949 -0.194334 
-0.001551 -0.229727 
-0.001926 -0.223370 
-0.005811 -0.215240 
-0.003831 -0.219603 
-0.005376 -0.221935 
-0.002520 -0.217121 
-0.003100 -0.211005 
-0.013570 -0.191278 
-0.011736 -0.198280 
-0.013975 -0.199587 
-0.007721 -0.195567 
-0.009649 -0.196910 
-0.009101 -0.188900 
-0.009664 -0.211976 
-0.009805 -0.204599 
-0.007816 -0.210247 
-0.004697 -0.206621 
-0.006155 -0.208425 
-0.006245 -0.201476 
-0.012367 -0.237369 
-0.013055 -0.227487 
-0.012669 -0.232811 
-0.010463 -0.237738 
-0.008579 -0.237385 
-0.014029 -0.207417 
-0.009351 -0.219017 
-0.011676 -0.213502 
-0.013825 -0.214720 
-0.013468 -0.221434 
-0.003155 -0.232464 
-0.006716 -0.236357 
-0.004895 -0.234699 
-0.005023 -0.228461 
-0.007112 -0.223992 
-0.010988 -0.226859 
-0.008996 -0.225665 
-0.008713 -0.231825 
-0.041770 -0.180729 
-0.038765 -0.183450 
-0.044524 -0.166667 
-0.041764 -0.175251 
-0.047794 -0.164388 
-0.035717 -0.185268 
-0.032648 -0.186331 
-0.051620 -0.128109 
-0.050615 -0.138431 
-0.055501 -0.127627 
-0.039856 -0.159403 
-0.045338 -0.149102 
-0.041558 -0.149377 
-0.052592 -0.146727 
-0.049033 -0.148279 
-0.046974 -0.157683 
-0.023584 -0.186275 
-0.020699 -0.185548 
-0.029585 -0.186773 
-0.026554 -0.186717 
-0.030909 -0.168970 
-0.028859 -0.178134 
-0.034320 -0.169133 
-0.041166 -0.168115 
-0.037752 -0.168890 
-0.035324 -0.177860 
-0.015294 -0.018045 
-0.027791 -0.036118 
-0.021867 -0.026580 
-0.032784 -0.061656 
-0.031273 -0.048597 
-0.026651 -0.046390 
-0.042169 -0.058456 
-0.036640 -0.052467 
-0.042864 -0.067322 
-0.026831 -0.112495 
-0.029537 -0.100349 
-0.025729 -0.099638 
-0.037897 -0.102184 
-0.033600 -0.101190 
-0.034737 -0.114042 
-0.028623 -0.073737 
-0.031595 -0.087739 
-0.032772 -0.074786 
-0.055673 -0.106891 
-0.051411 -0.105870 
-0.051932 -0.117274 
-0.047136 -0.081028 
-0.049886 -0.093824 
-0.051898 -0.084139 
-0.043302 -0.115802 
-0.046923 -0.104605 
-0.042371 -0.103336 
-0.037312 -0.076277 
-0.040437 -0.090170 
-0.042167 -0.078342 
-0.003923 -0.179154 
-0.001945 -0.178784 
-0.008106 -0.180543 
-0.005967 -0.179751 
-0.007219 -0.163105 
-0.006650 -0.171803 
-0.009762 -0.163721 
-0.017921 -0.184625 
-0.015267 -0.183591 
-0.018088 -0.166164 
-0.016787 -0.175218 
-0.021124 -0.167032 
-0.012746 -0.182521 
-0.010361 -0.181484 
-0.020226 -0.123427 
-0.020240 -0.135047 
-0.023674 -0.124085 
-0.013147 -0.154895 
-0.016683 -0.145329 
-0.013651 -0.144657 
-0.023184 -0.146820 
-0.019859 -0.146061 
-0.019127 -0.156440 
-0.011473 -0.173332 
-0.015184 -0.165291 
-0.012411 -0.164462 
-0.047554 -0.128033 
-0.039216 -0.126987 
-0.043389 -0.127608 
-0.042769 -0.138788 
-0.037750 -0.149253 
-0.027310 -0.124790 
-0.026654 -0.147571 
-0.027229 -0.136489 
-0.031129 -0.125527 
-0.035109 -0.126272 
-0.022614 -0.177010 
-0.032637 -0.159214 
-0.027554 -0.168507 
-0.024284 -0.167835 
-0.025651 -0.158021 
-0.034821 -0.137874 
-0.030257 -0.148267 
-0.033968 -0.148852 
0.000000 0.000000 
-0.011754 -0.015837 
-0.008148 -0.014823 
-0.009652 -0.015111 
0.000000 0.000000 
-0.018838 -0.030722 
-0.022802 -0.045172 
-0.004335 -0.014653 
-0.005098 -0.014649 
0.000000 0.000000 
-0.014391 -0.043862 
-0.009954 -0.029287 
-0.012249 -0.043712 
0.000000 0.000000 
-0.005961 -0.014660 
-0.006957 -0.014705 
-0.023950 -0.086270 
-0.022173 -0.099036 
-0.024616 -0.059274 
-0.024864 -0.072994 
-0.018367 -0.072054 
-0.021461 -0.072456 
-0.018260 -0.058286 
-0.013600 -0.029573 
-0.016805 -0.044098 
-0.019571 -0.044491 
0.000000 -0.014706 
-0.000461 -0.014706 
0.000000 0.000000 
-0.001307 -0.043372 
-0.000900 -0.029170 
0.000000 -0.043366 
0.000000 0.000000 
-0.000929 -0.014704 
-0.001412 -0.014699 
-0.002440 -0.096896 
-0.002243 -0.084091 
0.000000 -0.096859 
-0.005115 -0.057368 
-0.004000 -0.070925 
-0.006071 -0.071013 
0.000000 -0.070852 
-0.001986 -0.070872 
-0.001672 -0.057285 
0.000000 0.000000 
-0.003026 -0.014675 
-0.003650 -0.014663 
-0.001917 -0.014693 
-0.002452 -0.014685 
0.000000 0.000000 
-0.006943 -0.043484 
-0.004787 -0.029188 
-0.005431 -0.043442 
-0.002634 -0.043387 
-0.004002 -0.043410 
-0.002757 -0.029177 
-0.002175 -0.170955 
0.000000 -0.178662 
-0.007660 -0.153689 
-0.004763 -0.162644 
0.000000 -0.162261 
-0.002366 -0.162359 
-0.002513 -0.153032 
-0.019775 -0.111237 
-0.016957 -0.122830 
-0.010900 -0.121855 
-0.013855 -0.122302 
-0.013508 -0.110264 
-0.013896 -0.133781 
-0.010749 -0.144070 
0.000000 -0.121017 
-0.002646 -0.121072 
-0.002574 -0.109239 
-0.002612 -0.143014 
-0.002658 -0.132346 
0.000000 -0.142939 
-0.007850 -0.109589 
-0.005324 -0.121233 
-0.008065 -0.121496 
-0.007958 -0.143589 
-0.008097 -0.132844 
-0.005255 -0.143233 
-0.007125 -0.029212 
-0.008863 -0.057536 
-0.008563 -0.043539 
-0.010321 -0.043611 
-0.013148 -0.057810 
-0.004911 -0.097001 
-0.010078 -0.097411 
-0.007447 -0.097173 
-0.006852 -0.084297 
-0.008229 -0.071135 
-0.018856 -0.098522 
-0.015536 -0.071741 
-0.017445 -0.085335 
-0.015753 -0.098084 
-0.012836 -0.097715 
-0.010504 -0.071294 
-0.011834 -0.084706 
-0.012928 -0.071493 
0.000000 0.000000 
0.000461 -0.014706 
0.001412 -0.014699 
0.000929 -0.014704 
0.000000 0.000000 
0.000900 -0.029170 
0.001307 -0.043372 
0.003650 -0.014663 
0.003026 -0.014675 
0.000000 0.000000 
0.005431 -0.043442 
0.004787 -0.029188 
0.006943 -0.043484 
0.000000 0.000000 
0.002452 -0.014685 
0.001917 -0.014693 
0.002243 -0.084091 
0.002440 -0.096896 
0.001672 -0.057285 
0.001986 -0.070872 
0.006071 -0.071013 
0.004000 -0.070925 
0.005115 -0.057368 
0.002757 -0.029177 
0.004002 -0.043410 
0.002634 -0.043387 
0.015294 -0.018045 
0.011754 -0.015837 
0.000000 0.000000 
0.022802 -0.045172 
0.018838 -0.030722 
0.026651 -0.046390 
0.000000 0.000000 
0.009652 -0.015111 
0.008148 -0.014823 
0.022173 -0.099036 
0.023950 -0.086270 
0.025729 -0.099638 
0.018260 -0.058286 
0.021461 -0.072456 
0.018367 -0.072054 
0.028623 -0.073737 
0.024864 -0.072994 
0.024616 -0.059274 
0.000000 0.000000 
0.005098 -0.014649 
0.004335 -0.014653 
0.006957 -0.014705 
0.005961 -0.014660 
0.000000 0.000000 
0.012249 -0.043712 
0.009954 -0.029287 
0.014391 -0.043862 
0.019571 -0.044491 
0.016805 -0.044098 
0.013600 -0.029573 
0.002175 -0.170955 
0.001945 -0.178784 
0.002513 -0.153032 
0.002366 -0.162359 
0.007219 -0.163105 
0.004763 -0.162644 
0.007660 -0.153689 
0.002574 -0.109239 
0.002646 -0.121072 
0.008065 -0.121496 
0.005324 -0.121233 
0.007850 -0.109589 
0.002658 -0.132346 
0.002612 -0.143014 
0.020226 -0.123427 
0.016957 -0.122830 
0.019775 -0.111237 
0.010749 -0.144070 
0.013896 -0.133781 
0.013651 -0.144657 
0.013508 -0.110264 
0.013855 -0.122302 
0.010900 -0.121855 
0.005255 -0.143233 
0.008097 -0.132844 
0.007958 -0.143589 
0.007125 -0.029212 
0.013148 -0.057810 
0.010321 -0.043611 
0.008563 -0.043539 
0.008863 -0.057536 
0.018856 -0.098522 
0.012836 -0.097715 
0.015753 -0.098084 
0.017445 -0.085335 
0.015536 -0.071741 
0.004911 -0.097001 
0.008229 -0.071135 
0.006852 -0.084297 
0.007447 -0.097173 
0.010078 -0.097411 
0.012928 -0.071493 
0.011834 -0.084706 
0.010504 -0.071294 
0.021867 -0.026580 
0.027791 -0.036118 
0.042864 -0.067322 
0.036640 -0.052467 
0.042169 -0.058456 
0.031273 -0.048597 
0.032784 -0.061656 
0.051932 -0.117274 
0.051411 -0.105870 
0.055673 -0.106891 
0.042371 -0.103336 
0.046923 -0.104605 
0.043302 -0.115802 
0.051898 -0.084139 
0.049886 -0.093824 
0.047136 -0.081028 
0.029537 -0.100349 
0.026831 -0.112495 
0.032772 -0.074786 
0.031595 -0.087739 
0.034737 -0.114042 
0.033600 -0.101190 
0.037897 -0.102184 
0.042167 -0.078342 
0.040437 -0.090170 
0.037312 -0.076277 
0.035595 -0.191278 
0.038765 -0.183450 
0.041770 -0.180729 
0.032648 -0.186331 
0.035717 -0.185268 
0.029792 -0.194319 
0.047794 -0.164388 
0.041764 -0.175251 
0.044524 -0.166667 
0.020699 -0.185548 
0.023584 -0.186275 
0.018594 -0.193455 
0.034320 -0.169133 
0.028859 -0.178134 
0.030909 -0.168970 
0.024062 -0.194733 
0.026554 -0.186717 
0.029585 -0.186773 
0.055501 -0.127627 
0.050615 -0.138431 
0.051620 -0.128109 
0.046974 -0.157683 
0.049033 -0.148279 
0.052592 -0.146727 
0.041558 -0.149377 
0.045338 -0.149102 
0.039856 -0.159403 
0.035324 -0.177860 
0.037752 -0.168890 
0.041166 -0.168115 
0.003923 -0.179154 
0.001677 -0.185809 
0.009762 -0.163721 
0.006650 -0.171803 
0.005185 -0.186921 
0.005967 -0.179751 
0.008106 -0.180543 
0.023674 -0.124085 
0.020240 -0.135047 
0.019127 -0.156440 
0.019859 -0.146061 
0.023184 -0.146820 
0.016683 -0.145329 
0.013147 -0.154895 
0.013570 -0.191278 
0.015267 -0.183591 
0.017921 -0.184625 
0.010361 -0.181484 
0.012746 -0.182521 
0.009101 -0.188900 