# vtk DataFile Version 2.0
Unstructured Grid Example
ASCII
DATASET UNSTRUCTURED_GRID

POINTS 32 float
0.000000 0.000000 0.000000 
0.062500 0.000000 0.000000 
0.062500 0.000000 0.000000 
0.125000 0.000000 0.000000 
0.125000 0.000000 0.000000 
0.187500 0.000000 0.000000 
0.187500 6.047355 0.000000 
0.250000 -12.094709 0.000000 
0.375000 -4.080895 0.000000 
0.437500 -3.282621 0.000000 
0.437500 -3.608999 0.000000 
0.500000 -3.428138 0.000000 
0.250000 -7.035420 0.000000 
0.312500 -4.071224 0.000000 
0.312500 -6.303775 0.000000 
0.375000 -2.570318 0.000000 
0.500000 -3.428138 0.000000 
0.562500 -3.608999 0.000000 
0.562500 -3.282621 0.000000 
0.625000 -4.080895 0.000000 
0.625000 -2.570318 0.000000 
0.687500 -6.303775 0.000000 
0.687500 -4.071224 0.000000 
0.750000 -7.035420 0.000000 
0.875000 0.000000 0.000000 
0.937500 0.000000 0.000000 
0.937500 0.000000 0.000000 
1.000000 0.000000 0.000000 
0.750000 -12.094709 0.000000 
0.812500 6.047355 0.000000 
0.812500 0.000000 0.000000 
0.875000 0.000000 0.000000 

CELLS 16 48
2  0 1 
2  2 3 
2  4 5 
2  6 7 
2  8 9 
2  10 11 
2  12 13 
2  14 15 
2  16 17 
2  18 19 
2  20 21 
2  22 23 
2  24 25 
2  26 27 
2  28 29 
2  30 31 

CELL_TYPES 16
3
3
3
3
3
3
3
3
3
3
3
3
3
3
3
3

POINT_DATA 32

SCALARS lambda_h float 1
LOOKUP_TABLE default
0.000000 
0.000000 
0.000000 
0.000000 
0.000000 
0.000000 
6.047355 
-12.094709 
-4.080895 
-3.282621 
-3.608999 
-3.428138 
-7.035420 
-4.071224 
-6.303775 
-2.570318 
-3.428138 
-3.608999 
-3.282621 
-4.080895 
-2.570318 
-6.303775 
-4.071224 
-7.035420 
0.000000 
0.000000 
0.000000 
0.000000 
-12.094709 
6.047355 
0.000000 
0.000000 

