# vtk DataFile Version 2.0
Unstructured Grid Example
ASCII
DATASET UNSTRUCTURED_GRID

POINTS 16 float
0.000000 0.000000 0.000000 
0.125000 0.000000 0.000000 
0.125000 0.000000 0.000000 
0.250000 0.000000 0.000000 
0.250000 6.533208 0.000000 
0.375000 -13.066417 0.000000 
0.375000 -8.735316 0.000000 
0.500000 -2.128993 0.000000 
0.500000 -2.128993 0.000000 
0.625000 -8.735316 0.000000 
0.625000 -13.066417 0.000000 
0.750000 6.533208 0.000000 
0.750000 0.000000 0.000000 
0.875000 0.000000 0.000000 
0.875000 0.000000 0.000000 
1.000000 0.000000 0.000000 

CELLS 8 24
2  0 1 
2  2 3 
2  4 5 
2  6 7 
2  8 9 
2  10 11 
2  12 13 
2  14 15 

CELL_TYPES 8
3
3
3
3
3
3
3
3

POINT_DATA 16

SCALARS lambda_h float 1
LOOKUP_TABLE default
0.000000 
0.000000 
0.000000 
0.000000 
6.533208 
-13.066417 
-8.735316 
-2.128993 
-2.128993 
-8.735316 
-13.066417 
6.533208 
0.000000 
0.000000 
0.000000 
0.000000 

