# vtk DataFile Version 2.0
Unstructured Grid Example
ASCII
DATASET UNSTRUCTURED_GRID

POINTS 128 float
0.000000 0.000000 0.000000 
0.015625 0.000000 0.000000 
0.015625 0.000000 0.000000 
0.031250 0.000000 0.000000 
0.031250 0.000000 0.000000 
0.046875 0.000000 0.000000 
0.046875 0.000000 0.000000 
0.062500 0.000000 0.000000 
0.093750 0.000000 0.000000 
0.109375 0.000000 0.000000 
0.109375 0.000000 0.000000 
0.125000 0.000000 0.000000 
0.062500 0.000000 0.000000 
0.078125 0.000000 0.000000 
0.078125 0.000000 0.000000 
0.093750 0.000000 0.000000 
0.218750 0.000000 0.000000 
0.234375 0.000000 0.000000 
0.234375 14.079649 0.000000 
0.250000 -28.159297 0.000000 
0.187500 0.000000 0.000000 
0.203125 0.000000 0.000000 
0.203125 0.000000 0.000000 
0.218750 0.000000 0.000000 
0.125000 0.000000 0.000000 
0.140625 0.000000 0.000000 
0.140625 0.000000 0.000000 
0.156250 0.000000 0.000000 
0.156250 0.000000 0.000000 
0.171875 0.000000 0.000000 
0.171875 0.000000 0.000000 
0.187500 0.000000 0.000000 
0.468750 -3.610148 0.000000 
0.484375 -3.583427 0.000000 
0.484375 -3.613254 0.000000 
0.500000 -3.550494 0.000000 
0.437500 -3.674824 0.000000 
0.453125 -3.591873 0.000000 
0.453125 -3.637806 0.000000 
0.468750 -3.582959 0.000000 
0.375000 -3.972205 0.000000 
0.390625 -3.716187 0.000000 
0.390625 -3.867290 0.000000 
0.406250 -3.669999 0.000000 
0.406250 -3.786245 0.000000 
0.421875 -3.634798 0.000000 
0.421875 -3.723387 0.000000 
0.437500 -3.609067 0.000000 
0.250000 -20.918599 0.000000 
0.265625 -0.401748 0.000000 
0.265625 -8.739789 0.000000 
0.281250 -4.242518 0.000000 
0.281250 -6.441480 0.000000 
0.296875 -4.341864 0.000000 
0.296875 -5.459137 0.000000 
0.312500 -4.206935 0.000000 
0.343750 -4.292691 0.000000 
0.359375 -3.850959 0.000000 
0.359375 -4.109540 0.000000 
0.375000 -3.775529 0.000000 
0.312500 -4.903978 0.000000 
0.328125 -4.065052 0.000000 
0.328125 -4.543941 0.000000 
0.343750 -3.946200 0.000000 
0.500000 -3.550494 0.000000 
0.515625 -3.613254 0.000000 
0.515625 -3.583427 0.000000 
0.531250 -3.610148 0.000000 
0.531250 -3.582959 0.000000 
0.546875 -3.637806 0.000000 
0.546875 -3.591873 0.000000 
0.562500 -3.674824 0.000000 
0.593750 -3.669999 0.000000 
0.609375 -3.867290 0.000000 
0.609375 -3.716187 0.000000 
0.625000 -3.972205 0.000000 
0.562500 -3.609067 0.000000 
0.578125 -3.723387 0.000000 
0.578125 -3.634798 0.000000 
0.593750 -3.786245 0.000000 
0.718750 -4.242518 0.000000 
0.734375 -8.739789 0.000000 
0.734375 -0.401748 0.000000 
0.750000 -20.918599 0.000000 
0.687500 -4.206935 0.000000 
0.703125 -5.459137 0.000000 
0.703125 -4.341864 0.000000 
0.718750 -6.441480 0.000000 
0.625000 -3.775529 0.000000 
0.640625 -4.109540 0.000000 
0.640625 -3.850959 0.000000 
0.656250 -4.292691 0.000000 
0.656250 -3.946200 0.000000 
0.671875 -4.543941 0.000000 
0.671875 -4.065052 0.000000 
0.687500 -4.903978 0.000000 
0.968750 0.000000 0.000000 
0.984375 0.000000 0.000000 
0.984375 0.000000 0.000000 
1.000000 0.000000 0.000000 
0.937500 0.000000 0.000000 
0.953125 0.000000 0.000000 
0.953125 0.000000 0.000000 
0.968750 0.000000 0.000000 
0.875000 0.000000 0.000000 
0.890625 0.000000 0.000000 
0.890625 0.000000 0.000000 
0.906250 0.000000 0.000000 
0.906250 0.000000 0.000000 
0.921875 0.000000 0.000000 
0.921875 0.000000 0.000000 
0.937500 0.000000 0.000000 
0.750000 -28.159297 0.000000 
0.765625 14.079649 0.000000 
0.765625 0.000000 0.000000 
0.781250 0.000000 0.000000 
0.781250 0.000000 0.000000 
0.796875 0.000000 0.000000 
0.796875 0.000000 0.000000 
0.812500 0.000000 0.000000 
0.843750 0.000000 0.000000 
0.859375 0.000000 0.000000 
0.859375 0.000000 0.000000 
0.875000 0.000000 0.000000 
0.812500 0.000000 0.000000 
0.828125 0.000000 0.000000 
0.828125 0.000000 0.000000 
0.843750 0.000000 0.000000 

CELLS 64 192
2  0 1 
2  2 3 
2  4 5 
2  6 7 
2  8 9 
2  10 11 
2  12 13 
2  14 15 
2  16 17 
2  18 19 
2  20 21 
2  22 23 
2  24 25 
2  26 27 
2  28 29 
2  30 31 
2  32 33 
2  34 35 
2  36 37 
2  38 39 
2  40 41 
2  42 43 
2  44 45 
2  46 47 
2  48 49 
2  50 51 
2  52 53 
2  54 55 
2  56 57 
2  58 59 
2  60 61 
2  62 63 
2  64 65 
2  66 67 
2  68 69 
2  70 71 
2  72 73 
2  74 75 
2  76 77 
2  78 79 
2  80 81 
2  82 83 
2  84 85 
2  86 87 
2  88 89 
2  90 91 
2  92 93 
2  94 95 
2  96 97 
2  98 99 
2  100 101 
2  102 103 
2  104 105 
2  106 107 
2  108 109 
2  110 111 
2  112 113 
2  114 115 
2  116 117 
2  118 119 
2  120 121 
2  122 123 
2  124 125 
2  126 127 

CELL_TYPES 64
3
3
3
3
3
3
3
3
3
3
3
3
3
3
3
3
3
3
3
3
3
3
3
3
3
3
3
3
3
3
3
3
3
3
3
3
3
3
3
3
3
3
3
3
3
3
3
3
3
3
3
3
3
3
3
3
3
3
3
3
3
3
3
3

POINT_DATA 128

SCALARS lambda_h float 1
LOOKUP_TABLE default
0.000000 
0.000000 
0.000000 
0.000000 
0.000000 
0.000000 
0.000000 
0.000000 
0.000000 
0.000000 
0.000000 
0.000000 
0.000000 
0.000000 
0.000000 
0.000000 
0.000000 
0.000000 
14.079649 
-28.159297 
0.000000 
0.000000 
0.000000 
0.000000 
0.000000 
0.000000 
0.000000 
0.000000 
0.000000 
0.000000 
0.000000 
0.000000 
-3.610148 
-3.583427 
-3.613254 
-3.550494 
-3.674824 
-3.591873 
-3.637806 
-3.582959 
-3.972205 
-3.716187 
-3.867290 
-3.669999 
-3.786245 
-3.634798 
-3.723387 
-3.609067 
-20.918599 
-0.401748 
-8.739789 
-4.242518 
-6.441480 
-4.341864 
-5.459137 
-4.206935 
-4.292691 
-3.850959 
-4.109540 
-3.775529 
-4.903978 
-4.065052 
-4.543941 
-3.946200 
-3.550494 
-3.613254 
-3.583427 
-3.610148 
-3.582959 
-3.637806 
-3.591873 
-3.674824 
-3.669999 
-3.867290 
-3.716187 
-3.972205 
-3.609067 
-3.723387 
-3.634798 
-3.786245 
-4.242518 
-8.739789 
-0.401748 
-20.918599 
-4.206935 
-5.459137 
-4.341864 
-6.441480 
-3.775529 
-4.109540 
-3.850959 
-4.292691 
-3.946200 
-4.543941 
-4.065052 
-4.903978 
0.000000 
0.000000 
0.000000 
0.000000 
0.000000 
0.000000 
0.000000 
0.000000 
0.000000 
0.000000 
0.000000 
0.000000 
0.000000 
0.000000 
0.000000 
0.000000 
-28.159297 
14.079649 
0.000000 
0.000000 
0.000000 
0.000000 
0.000000 
0.000000 
0.000000 
0.000000 
0.000000 
0.000000 
0.000000 
0.000000 
0.000000 
0.000000 

