# vtk DataFile Version 2.0
Unstructured Grid Example
ASCII
DATASET UNSTRUCTURED_GRID

POINTS 256 float
0.000000 0.000000 0.000000 
0.007812 0.000000 0.000000 
0.007812 0.000000 0.000000 
0.015625 0.000000 0.000000 
0.015625 0.000000 0.000000 
0.023438 0.000000 0.000000 
0.023438 0.000000 0.000000 
0.031250 0.000000 0.000000 
0.046875 0.000000 0.000000 
0.054688 0.000000 0.000000 
0.054688 0.000000 0.000000 
0.062500 0.000000 0.000000 
0.031250 0.000000 0.000000 
0.039062 0.000000 0.000000 
0.039062 0.000000 0.000000 
0.046875 0.000000 0.000000 
0.109375 0.000000 0.000000 
0.117188 0.000000 0.000000 
0.117188 0.000000 0.000000 
0.125000 0.000000 0.000000 
0.093750 0.000000 0.000000 
0.101562 0.000000 0.000000 
0.101562 0.000000 0.000000 
0.109375 0.000000 0.000000 
0.062500 0.000000 0.000000 
0.070312 0.000000 0.000000 
0.070312 0.000000 0.000000 
0.078125 0.000000 0.000000 
0.078125 0.000000 0.000000 
0.085938 0.000000 0.000000 
0.085938 0.000000 0.000000 
0.093750 0.000000 0.000000 
0.234375 18.326214 0.000000 
0.242188 -36.652428 0.000000 
0.242188 -26.793122 0.000000 
0.250000 -1.392398 0.000000 
0.218750 0.000000 0.000000 
0.226562 0.000000 0.000000 
0.226562 0.000000 0.000000 
0.234375 0.000000 0.000000 
0.187500 0.000000 0.000000 
0.195312 0.000000 0.000000 
0.195312 0.000000 0.000000 
0.203125 0.000000 0.000000 
0.203125 0.000000 0.000000 
0.210938 0.000000 0.000000 
0.210938 0.000000 0.000000 
0.218750 0.000000 0.000000 
0.125000 0.000000 0.000000 
0.132812 0.000000 0.000000 
0.132812 0.000000 0.000000 
0.140625 0.000000 0.000000 
0.140625 0.000000 0.000000 
0.148438 0.000000 0.000000 
0.148438 0.000000 0.000000 
0.156250 0.000000 0.000000 
0.171875 0.000000 0.000000 
0.179688 0.000000 0.000000 
0.179688 0.000000 0.000000 
0.187500 0.000000 0.000000 
0.156250 0.000000 0.000000 
0.164062 0.000000 0.000000 
0.164062 0.000000 0.000000 
0.171875 0.000000 0.000000 
0.484375 -3.570514 0.000000 
0.492188 -3.564874 0.000000 
0.492188 -3.578472 0.000000 
0.500000 -3.543319 0.000000 
0.468750 -3.584276 0.000000 
0.476562 -3.566721 0.000000 
0.476562 -3.576511 0.000000 
0.484375 -3.564696 0.000000 
0.437500 -3.635765 0.000000 
0.445312 -3.593725 0.000000 
0.445312 -3.619548 0.000000 
0.453125 -3.584118 0.000000 
0.453125 -3.605667 0.000000 
0.460938 -3.576451 0.000000 
0.460938 -3.593955 0.000000 
0.468750 -3.570659 0.000000 
0.375000 -3.885300 0.000000 
0.382812 -3.759448 0.000000 
0.382812 -3.838224 0.000000 
0.390625 -3.727749 0.000000 
0.390625 -3.796926 0.000000 
0.398438 -3.699869 0.000000 
0.398438 -3.760637 0.000000 
0.406250 -3.675391 0.000000 
0.421875 -3.676059 0.000000 
0.429688 -3.619175 0.000000 
0.429688 -3.654521 0.000000 
0.437500 -3.605367 0.000000 
0.406250 -3.728726 0.000000 
0.414062 -3.653967 0.000000 
0.414062 -3.700676 0.000000 
0.421875 -3.635308 0.000000 
0.250000 -12.031809 0.000000 
0.257812 -5.514299 0.000000 
0.257812 -8.750040 0.000000 
0.265625 -5.560327 0.000000 
0.265625 -7.284424 0.000000 
0.273438 -5.301846 0.000000 
0.273438 -6.422613 0.000000 
0.281250 -5.042890 0.000000 
0.296875 -5.107887 0.000000 
0.304688 -4.482220 0.000000 
0.304688 -4.859968 0.000000 
0.312500 -4.352391 0.000000 
0.281250 -5.843504 0.000000 
0.289062 -4.821384 0.000000 
0.289062 -5.424850 0.000000 
0.296875 -4.636572 0.000000 
0.359375 -4.000828 0.000000 
0.367188 -3.836428 0.000000 
0.367188 -3.939107 0.000000 
0.375000 -3.795471 0.000000 
0.343750 -4.154410 0.000000 
0.351562 -3.936285 0.000000 
0.351562 -4.071959 0.000000 
0.359375 -3.883062 0.000000 
0.312500 -4.661225 0.000000 
0.320312 -4.242299 0.000000 
0.320312 -4.498800 0.000000 
0.328125 -4.148223 0.000000 
0.328125 -4.363983 0.000000 
0.335938 -4.067280 0.000000 
0.335938 -4.250660 0.000000 
0.343750 -3.997223 0.000000 
0.500000 -3.543319 0.000000 
0.507812 -3.578472 0.000000 
0.507812 -3.564874 0.000000 
0.515625 -3.570514 0.000000 
0.515625 -3.564696 0.000000 
0.523438 -3.576511 0.000000 
0.523438 -3.566721 0.000000 
0.531250 -3.584276 0.000000 
0.546875 -3.584118 0.000000 
0.554688 -3.619548 0.000000 
0.554688 -3.593725 0.000000 
0.562500 -3.635765 0.000000 
0.531250 -3.570659 0.000000 
0.539062 -3.593955 0.000000 
0.539062 -3.576451 0.000000 
0.546875 -3.605667 0.000000 
0.609375 -3.727749 0.000000 
0.617188 -3.838224 0.000000 
0.617188 -3.759448 0.000000 
0.625000 -3.885300 0.000000 
0.593750 -3.675391 0.000000 
0.601562 -3.760637 0.000000 
0.601562 -3.699869 0.000000 
0.609375 -3.796926 0.000000 
0.562500 -3.605367 0.000000 
0.570312 -3.654521 0.000000 
0.570312 -3.619175 0.000000 
0.578125 -3.676059 0.000000 
0.578125 -3.635308 0.000000 
0.585938 -3.700676 0.000000 
0.585938 -3.653967 0.000000 
0.593750 -3.728726 0.000000 
0.734375 -5.560327 0.000000 
0.742188 -8.750040 0.000000 
0.742188 -5.514299 0.000000 
0.750000 -12.031809 0.000000 
0.718750 -5.042890 0.000000 
0.726562 -6.422613 0.000000 
0.726562 -5.301846 0.000000 
0.734375 -7.284424 0.000000 
0.687500 -4.352391 0.000000 
0.695312 -4.859968 0.000000 
0.695312 -4.482220 0.000000 
0.703125 -5.107887 0.000000 
0.703125 -4.636572 0.000000 
0.710938 -5.424850 0.000000 
0.710938 -4.821384 0.000000 
0.718750 -5.843504 0.000000 
0.625000 -3.795471 0.000000 
0.632812 -3.939107 0.000000 
0.632812 -3.836428 0.000000 
0.640625 -4.000828 0.000000 
0.640625 -3.883062 0.000000 
0.648438 -4.071959 0.000000 
0.648438 -3.936285 0.000000 
0.656250 -4.154410 0.000000 
0.671875 -4.148223 0.000000 
0.679688 -4.498800 0.000000 
0.679688 -4.242299 0.000000 
0.687500 -4.661225 0.000000 
0.656250 -3.997223 0.000000 
0.664062 -4.250660 0.000000 
0.664062 -4.067280 0.000000 
0.671875 -4.363983 0.000000 
0.984375 0.000000 0.000000 
0.992188 0.000000 0.000000 
0.992188 0.000000 0.000000 
1.000000 0.000000 0.000000 
0.968750 0.000000 0.000000 
0.976562 0.000000 0.000000 
0.976562 0.000000 0.000000 
0.984375 0.000000 0.000000 
0.937500 0.000000 0.000000 
0.945312 0.000000 0.000000 
0.945312 0.000000 0.000000 
0.953125 0.000000 0.000000 
0.953125 0.000000 0.000000 
0.960938 0.000000 0.000000 
0.960938 0.000000 0.000000 
0.968750 0.000000 0.000000 
0.875000 0.000000 0.000000 
0.882812 0.000000 0.000000 
0.882812 0.000000 0.000000 
0.890625 0.000000 0.000000 
0.890625 0.000000 0.000000 
0.898438 0.000000 0.000000 
0.898438 0.000000 0.000000 
0.906250 0.000000 0.000000 
0.921875 0.000000 0.000000 
0.929688 0.000000 0.000000 
0.929688 0.000000 0.000000 
0.937500 0.000000 0.000000 
0.906250 0.000000 0.000000 
0.914062 0.000000 0.000000 
0.914062 0.000000 0.000000 
0.921875 0.000000 0.000000 
0.750000 -1.392398 0.000000 
0.757812 -26.793122 0.000000 
0.757812 -36.652428 0.000000 
0.765625 18.326214 0.000000 
0.765625 0.000000 0.000000 
0.773438 0.000000 0.000000 
0.773438 0.000000 0.000000 
0.781250 0.000000 0.000000 
0.796875 0.000000 0.000000 
0.804688 0.000000 0.000000 
0.804688 0.000000 0.000000 
0.812500 0.000000 0.000000 
0.781250 0.000000 0.000000 
0.789062 0.000000 0.000000 
0.789062 0.000000 0.000000 
0.796875 0.000000 0.000000 
0.859375 0.000000 0.000000 
0.867188 0.000000 0.000000 
0.867188 0.000000 0.000000 
0.875000 0.000000 0.000000 
0.843750 0.000000 0.000000 
0.851562 0.000000 0.000000 
0.851562 0.000000 0.000000 
0.859375 0.000000 0.000000 
0.812500 0.000000 0.000000 
0.820312 0.000000 0.000000 
0.820312 0.000000 0.000000 
0.828125 0.000000 0.000000 
0.828125 0.000000 0.000000 
0.835938 0.000000 0.000000 
0.835938 0.000000 0.000000 
0.843750 0.000000 0.000000 

CELLS 128 384
2  0 1 
2  2 3 
2  4 5 
2  6 7 
2  8 9 
2  10 11 
2  12 13 
2  14 15 
2  16 17 
2  18 19 
2  20 21 
2  22 23 
2  24 25 
2  26 27 
2  28 29 
2  30 31 
2  32 33 
2  34 35 
2  36 37 
2  38 39 
2  40 41 
2  42 43 
2  44 45 
2  46 47 
2  48 49 
2  50 51 
2  52 53 
2  54 55 
2  56 57 
2  58 59 
2  60 61 
2  62 63 
2  64 65 
2  66 67 
2  68 69 
2  70 71 
2  72 73 
2  74 75 
2  76 77 
2  78 79 
2  80 81 
2  82 83 
2  84 85 
2  86 87 
2  88 89 
2  90 91 
2  92 93 
2  94 95 
2  96 97 
2  98 99 
2  100 101 
2  102 103 
2  104 105 
2  106 107 
2  108 109 
2  110 111 
2  112 113 
2  114 115 
2  116 117 
2  118 119 
2  120 121 
2  122 123 
2  124 125 
2  126 127 
2  128 129 
2  130 131 
2  132 133 
2  134 135 
2  136 137 
2  138 139 
2  140 141 
2  142 143 
2  144 145 
2  146 147 
2  148 149 
2  150 151 
2  152 153 
2  154 155 
2  156 157 
2  158 159 
2  160 161 
2  162 163 
2  164 165 
2  166 167 
2  168 169 
2  170 171 
2  172 173 
2  174 175 
2  176 177 
2  178 179 
2  180 181 
2  182 183 
2  184 185 
2  186 187 
2  188 189 
2  190 191 
2  192 193 
2  194 195 
2  196 197 
2  198 199 
2  200 201 
2  202 203 
2  204 205 
2  206 207 
2  208 209 
2  210 211 
2  212 213 
2  214 215 
2  216 217 
2  218 219 
2  220 221 
2  222 223 
2  224 225 
2  226 227 
2  228 229 
2  230 231 
2  232 233 
2  234 235 
2  236 237 
2  238 239 
2  240 241 
2  242 243 
2  244 245 
2  246 247 
2  248 249 
2  250 251 
2  252 253 
2  254 255 

CELL_TYPES 128
3
3
3
3
3
3
3
3
3
3
3
3
3
3
3
3
3
3
3
3
3
3
3
3
3
3
3
3
3
3
3
3
3
3
3
3
3
3
3
3
3
3
3
3
3
3
3
3
3
3
3
3
3
3
3
3
3
3
3
3
3
3
3
3
3
3
3
3
3
3
3
3
3
3
3
3
3
3
3
3
3
3
3
3
3
3
3
3
3
3
3
3
3
3
3
3
3
3
3
3
3
3
3
3
3
3
3
3
3
3
3
3
3
3
3
3
3
3
3
3
3
3
3
3
3
3
3
3

POINT_DATA 256

SCALARS lambda_h float 1
LOOKUP_TABLE default
0.000000 
0.000000 
0.000000 
0.000000 
0.000000 
0.000000 
0.000000 
0.000000 
0.000000 
0.000000 
0.000000 
0.000000 
0.000000 
0.000000 
0.000000 
0.000000 
0.000000 
0.000000 
0.000000 
0.000000 
0.000000 
0.000000 
0.000000 
0.000000 
0.000000 
0.000000 
0.000000 
0.000000 
0.000000 
0.000000 
0.000000 
0.000000 
18.326214 
-36.652428 
-26.793122 
-1.392398 
0.000000 
0.000000 
0.000000 
0.000000 
0.000000 
0.000000 
0.000000 
0.000000 
0.000000 
0.000000 
0.000000 
0.000000 
0.000000 
0.000000 
0.000000 
0.000000 
0.000000 
0.000000 
0.000000 
0.000000 
0.000000 
0.000000 
0.000000 
0.000000 
0.000000 
0.000000 
0.000000 
0.000000 
-3.570514 
-3.564874 
-3.578472 
-3.543319 
-3.584276 
-3.566721 
-3.576511 
-3.564696 
-3.635765 
-3.593725 
-3.619548 
-3.584118 
-3.605667 
-3.576451 
-3.593955 
-3.570659 
-3.885300 
-3.759448 
-3.838224 
-3.727749 
-3.796926 
-3.699869 
-3.760637 
-3.675391 
-3.676059 
-3.619175 
-3.654521 
-3.605367 
-3.728726 
-3.653967 
-3.700676 
-3.635308 
-12.031809 
-5.514299 
-8.750040 
-5.560327 
-7.284424 
-5.301846 
-6.422613 
-5.042890 
-5.107887 
-4.482220 
-4.859968 
-4.352391 
-5.843504 
-4.821384 
-5.424850 
-4.636572 
-4.000828 
-3.836428 
-3.939107 
-3.795471 
-4.154410 
-3.936285 
-4.071959 
-3.883062 
-4.661225 
-4.242299 
-4.498800 
-4.148223 
-4.363983 
-4.067280 
-4.250660 
-3.997223 
-3.543319 
-3.578472 
-3.564874 
-3.570514 
-3.564696 
-3.576511 
-3.566721 
-3.584276 
-3.584118 
-3.619548 
-3.593725 
-3.635765 
-3.570659 
-3.593955 
-3.576451 
-3.605667 
-3.727749 
-3.838224 
-3.759448 
-3.885300 
-3.675391 
-3.760637 
-3.699869 
-3.796926 
-3.605367 
-3.654521 
-3.619175 
-3.676059 
-3.635308 
-3.700676 
-3.653967 
-3.728726 
-5.560327 
-8.750040 
-5.514299 
-12.031809 
-5.042890 
-6.422613 
-5.301846 
-7.284424 
-4.352391 
-4.859968 
-4.482220 
-5.107887 
-4.636572 
-5.424850 
-4.821384 
-5.843504 
-3.795471 
-3.939107 
-3.836428 
-4.000828 
-3.883062 
-4.071959 
-3.936285 
-4.154410 
-4.148223 
-4.498800 
-4.242299 
-4.661225 
-3.997223 
-4.250660 
-4.067280 
-4.363983 
0.000000 
0.000000 
0.000000 
0.000000 
0.000000 
0.000000 
0.000000 
0.000000 
0.000000 
0.000000 
0.000000 
0.000000 
0.000000 
0.000000 
0.000000 
0.000000 
0.000000 
0.000000 
0.000000 
0.000000 
0.000000 
0.000000 
0.000000 
0.000000 
0.000000 
0.000000 
0.000000 
0.000000 
0.000000 
0.000000 
0.000000 
0.000000 
-1.392398 
-26.793122 
-36.652428 
18.326214 
0.000000 
0.000000 
0.000000 
0.000000 
0.000000 
0.000000 
0.000000 
0.000000 
0.000000 
0.000000 
0.000000 
0.000000 
0.000000 
0.000000 
0.000000 
0.000000 
0.000000 
0.000000 
0.000000 
0.000000 
0.000000 
0.000000 
0.000000 
0.000000 
0.000000 
0.000000 
0.000000 
0.000000 

