# vtk DataFile Version 2.0
Unstructured Grid Example
ASCII
DATASET UNSTRUCTURED_GRID

POINTS 4225 float
0.018439 -0.165649 0.000000 
0.981561 -0.165649 0.000000 
1.000000 1.000000 0.000000 
0.000000 1.000000 0.000000 
0.500000 -0.100000 0.000000 
0.982028 0.382678 0.000000 
0.500000 1.000000 0.000000 
0.017972 0.382678 0.000000 
0.500000 0.383824 0.000000 
0.264042 -0.100000 0.000000 
0.500000 0.128818 0.000000 
0.246300 0.117753 0.000000 
0.735958 -0.100000 0.000000 
0.753700 0.117753 0.000000 
0.999342 0.101740 0.000000 
0.743525 0.379188 0.000000 
0.963484 0.674444 0.000000 
0.734047 0.675343 0.000000 
0.750000 1.000000 0.000000 
0.500000 0.677405 0.000000 
0.250000 1.000000 0.000000 
0.265953 0.675343 0.000000 
0.036516 0.674444 0.000000 
0.256475 0.379188 0.000000 
0.000658 0.101740 0.000000 
0.144052 -0.148552 0.000000 
0.248217 -0.000303 0.000000 
0.125400 -0.022897 0.000000 
0.500000 0.012348 0.000000 
0.375476 0.010764 0.000000 
0.379093 -0.100000 0.000000 
0.374717 0.249818 0.000000 
0.373292 0.126306 0.000000 
0.500000 0.251891 0.000000 
0.620907 -0.100000 0.000000 
0.624524 0.010764 0.000000 
0.874600 -0.022897 0.000000 
0.751783 -0.000303 0.000000 
0.855948 -0.148552 0.000000 
0.626708 0.126306 0.000000 
0.625283 0.249818 0.000000 
0.995718 -0.036110 0.000000 
0.878146 0.106155 0.000000 
0.863533 0.377275 0.000000 
0.872717 0.239080 0.000000 
0.992852 0.241513 0.000000 
0.749943 0.244336 0.000000 
0.622141 0.382488 0.000000 
0.971045 0.526517 0.000000 
0.854362 0.521740 0.000000 
0.853016 0.834384 0.000000 
0.848874 0.673686 0.000000 
0.964967 0.827830 0.000000 
0.737231 0.522761 0.000000 
0.619020 0.524909 0.000000 
0.875000 1.000000 0.000000 
0.737623 0.835895 0.000000 
0.500000 0.836550 0.000000 
0.619430 0.836376 0.000000 
0.625000 1.000000 0.000000 
0.617592 0.676819 0.000000 
0.500000 0.525856 0.000000 
0.375000 1.000000 0.000000 
0.380570 0.836376 0.000000 
0.146984 0.834384 0.000000 
0.262377 0.835895 0.000000 
0.125000 1.000000 0.000000 
0.382408 0.676819 0.000000 
0.380980 0.524909 0.000000 
0.035033 0.827830 0.000000 
0.151126 0.673686 0.000000 
0.136467 0.377275 0.000000 
0.145638 0.521740 0.000000 
0.028955 0.526517 0.000000 
0.262769 0.522761 0.000000 
0.377859 0.382488 0.000000 
0.007148 0.241513 0.000000 
0.127283 0.239080 0.000000 
0.121854 0.106155 0.000000 
0.004282 -0.036110 0.000000 
0.250057 0.244336 0.000000 
0.080676 -0.158017 0.000000 
0.132764 -0.086503 0.000000 
0.071956 -0.095249 0.000000 
0.252664 -0.054861 0.000000 
0.192376 -0.073079 0.000000 
0.207571 -0.133117 0.000000 
0.183589 0.049203 0.000000 
0.185986 -0.012184 0.000000 
0.246341 0.057556 0.000000 
0.500000 -0.044306 0.000000 
0.438940 -0.044423 0.000000 
0.439416 -0.100000 0.000000 
0.437089 0.069430 0.000000 
0.437933 0.012021 0.000000 
0.500000 0.069949 0.000000 
0.319537 -0.100000 0.000000 
0.377805 -0.044929 0.000000 
0.316126 -0.046687 0.000000 
0.438050 0.316237 0.000000 
0.437335 0.251363 0.000000 
0.500000 0.316673 0.000000 
0.309702 0.122837 0.000000 
0.373669 0.186975 0.000000 
0.310531 0.183996 0.000000 
0.500000 0.189353 0.000000 
0.436850 0.188759 0.000000 
0.436729 0.128213 0.000000 
0.312147 0.007425 0.000000 
0.373841 0.067657 0.000000 
0.310106 0.063934 0.000000 
0.560584 -0.100000 0.000000 
0.561060 -0.044423 0.000000 
0.683874 -0.046687 0.000000 
0.622195 -0.044929 0.000000 
0.680463 -0.100000 0.000000 
0.562067 0.012021 0.000000 
0.562911 0.069430 0.000000 
0.928044 -0.095249 0.000000 
0.867236 -0.086503 0.000000 
0.919324 -0.158017 0.000000 
0.753659 0.057556 0.000000 
0.814014 -0.012184 0.000000 
0.816411 0.049203 0.000000 
0.792429 -0.133117 0.000000 
0.807624 -0.073079 0.000000 
0.747336 -0.054861 0.000000 
0.562665 0.251363 0.000000 
0.561950 0.316237 0.000000 
0.563271 0.128213 0.000000 
0.563150 0.188759 0.000000 
0.689469 0.183996 0.000000 
0.626331 0.186975 0.000000 
0.690298 0.122837 0.000000 
0.687853 0.007425 0.000000 
0.689894 0.063934 0.000000 
0.626159 0.067657 0.000000 
0.989240 -0.102336 0.000000 
0.935119 -0.030545 0.000000 
0.939111 0.102454 0.000000 
0.938760 0.035484 0.000000 
0.999154 0.032313 0.000000 
0.877906 0.041276 0.000000 
0.816391 0.111723 0.000000 
0.922951 0.378597 0.000000 
0.928275 0.308182 0.000000 
0.987690 0.311829 0.000000 
0.807866 0.308605 0.000000 
0.868340 0.307456 0.000000 
0.803725 0.377747 0.000000 
0.996968 0.171521 0.000000 
0.933121 0.238763 0.000000 
0.936958 0.170214 0.000000 
0.623813 0.314958 0.000000 
0.561119 0.383529 0.000000 
0.752335 0.180029 0.000000 
0.687763 0.247374 0.000000 
0.682973 0.380932 0.000000 
0.685499 0.313001 0.000000 
0.746890 0.310703 0.000000 
0.876180 0.172024 0.000000 
0.811639 0.241286 0.000000 
0.814632 0.175695 0.000000 
0.976350 0.454148 0.000000 
0.917621 0.450149 0.000000 
0.908630 0.597349 0.000000 
0.912694 0.523005 0.000000 
0.966572 0.599904 0.000000 
0.858736 0.448656 0.000000 
0.799609 0.448805 0.000000 
0.918946 0.915700 0.000000 
0.909139 0.832073 0.000000 
0.973121 0.907999 0.000000 
0.791638 0.674459 0.000000 
0.849190 0.752906 0.000000 
0.792284 0.754002 0.000000 
0.962547 0.750309 0.000000 
0.905715 0.751486 0.000000 
0.906018 0.673405 0.000000 
0.620471 0.452468 0.000000 
0.560283 0.453316 0.000000 
0.740187 0.449855 0.000000 
0.680463 0.451219 0.000000 
0.676674 0.598906 0.000000 
0.678264 0.523886 0.000000 
0.735038 0.597937 0.000000 
0.850877 0.596690 0.000000 
0.793076 0.597076 0.000000 
0.795913 0.521882 0.000000 
0.937500 1.000000 0.000000 
0.861706 0.917455 0.000000 
0.742832 0.917907 0.000000 
0.802692 0.917828 0.000000 
0.812500 1.000000 0.000000 
0.795793 0.835403 0.000000 
0.734755 0.754802 0.000000 
0.500000 0.917951 0.000000 
0.560955 0.917937 0.000000 
0.562500 1.000000 0.000000 
0.559095 0.756111 0.000000 
0.559790 0.836496 0.000000 
0.500000 0.756217 0.000000 
0.687500 1.000000 0.000000 
0.621815 0.917929 0.000000 
0.682480 0.917922 0.000000 
0.559565 0.525606 0.000000 
0.500000 0.453609 0.000000 
0.676019 0.676163 0.000000 
0.617990 0.599747 0.000000 
0.500000 0.600517 0.000000 
0.559060 0.600311 0.000000 
0.558872 0.677246 0.000000 
0.678765 0.836185 0.000000 
0.618025 0.755836 0.000000 
0.676629 0.755401 0.000000 
0.437500 1.000000 0.000000 
0.439045 0.917937 0.000000 
0.317520 0.917922 0.000000 
0.378185 0.917929 0.000000 
0.312500 1.000000 0.000000 
0.440210 0.836496 0.000000 
0.440905 0.756111 0.000000 
0.081054 0.915700 0.000000 
0.138294 0.917455 0.000000 
0.062500 1.000000 0.000000 
0.265245 0.754802 0.000000 
0.204207 0.835403 0.000000 
0.207716 0.754002 0.000000 
0.187500 1.000000 0.000000 
0.197308 0.917828 0.000000 
0.257168 0.917907 0.000000 
0.440435 0.525606 0.000000 
0.439717 0.453316 0.000000 
0.441128 0.677246 0.000000 
0.440940 0.600311 0.000000 
0.323326 0.598906 0.000000 
0.382010 0.599747 0.000000 
0.323981 0.676163 0.000000 
0.321235 0.836185 0.000000 
0.323371 0.755401 0.000000 
0.381975 0.755836 0.000000 
0.026879 0.907999 0.000000 
0.090861 0.832073 0.000000 
0.093982 0.673405 0.000000 
0.094285 0.751486 0.000000 
0.037453 0.750309 0.000000 
0.150810 0.752906 0.000000 
0.208362 0.674459 0.000000 
0.077049 0.378597 0.000000 
0.082379 0.450149 0.000000 
0.023650 0.454148 0.000000 
0.200391 0.448805 0.000000 
0.141264 0.448656 0.000000 
0.196275 0.377747 0.000000 
0.033428 0.599904 0.000000 
0.087306 0.523005 0.000000 
0.091370 0.597349 0.000000 
0.379529 0.452468 0.000000 
0.438881 0.383529 0.000000 
0.264962 0.597937 0.000000 
0.321736 0.523886 0.000000 
0.317027 0.380932 0.000000 
0.319537 0.451219 0.000000 
0.259813 0.449855 0.000000 
0.149123 0.596690 0.000000 
0.204087 0.521882 0.000000 
0.206924 0.597076 0.000000 
0.012310 0.311829 0.000000 
0.071725 0.308182 0.000000 
0.063042 0.170214 0.000000 
0.066879 0.238763 0.000000 
0.003032 0.171521 0.000000 
0.131660 0.307456 0.000000 
0.192134 0.308605 0.000000 
0.064881 -0.030545 0.000000 
0.010760 -0.102336 0.000000 
0.183609 0.111723 0.000000 
0.122094 0.041276 0.000000 
0.000846 0.032313 0.000000 
0.061240 0.035484 0.000000 
0.060889 0.102454 0.000000 
0.376187 0.314958 0.000000 
0.253110 0.310703 0.000000 
0.314501 0.313001 0.000000 
0.312237 0.247374 0.000000 
0.247665 0.180029 0.000000 
0.123820 0.172024 0.000000 
0.185368 0.175695 0.000000 
0.188361 0.241286 0.000000 
0.049435 -0.161847 0.000000 
0.076344 -0.126905 0.000000 
0.045431 -0.130606 0.000000 
0.138100 -0.117856 0.000000 
0.107276 -0.122798 0.000000 
0.112236 -0.153734 0.000000 
0.098361 -0.059323 0.000000 
0.102468 -0.091277 0.000000 
0.128517 -0.054790 0.000000 
0.256515 -0.079824 0.000000 
0.227377 -0.092661 0.000000 
0.237899 -0.120572 0.000000 
0.218834 -0.035212 0.000000 
0.222018 -0.064040 0.000000 
0.250040 -0.028120 0.000000 
0.175955 -0.141942 0.000000 
0.198432 -0.103455 0.000000 
0.168593 -0.111607 0.000000 
0.214594 0.083915 0.000000 
0.214788 0.053492 0.000000 
0.246120 0.087386 0.000000 
0.155614 -0.017917 0.000000 
0.184426 0.018399 0.000000 
0.153751 0.013496 0.000000 
0.247017 0.028302 0.000000 
0.215488 0.023505 0.000000 
0.216782 -0.006054 0.000000 
0.162737 -0.080552 0.000000 
0.188492 -0.042642 0.000000 
0.158512 -0.049264 0.000000 
0.500000 -0.072292 0.000000 
0.469635 -0.072299 0.000000 
0.469692 -0.100000 0.000000 
0.469241 -0.016137 0.000000 
0.469472 -0.044331 0.000000 
0.500000 -0.016088 0.000000 
0.409202 -0.100000 0.000000 
0.439291 -0.072337 0.000000 
0.408985 -0.072413 0.000000 
0.468440 0.099055 0.000000 
0.468567 0.069820 0.000000 
0.500000 0.099200 0.000000 
0.406782 0.011552 0.000000 
0.437460 0.040581 0.000000 
0.406067 0.039982 0.000000 
0.500000 0.041015 0.000000 
0.468755 0.040908 0.000000 
0.468989 0.012269 0.000000 
0.290609 -0.100000 0.000000 
0.318404 -0.073267 0.000000 
0.288001 -0.074551 0.000000 
0.378736 -0.072547 0.000000 
0.348554 -0.072786 0.000000 
0.349159 -0.100000 0.000000 
0.345434 -0.018159 0.000000 
0.347104 -0.045519 0.000000 
0.376625 -0.017184 0.000000 
0.438454 -0.016303 0.000000 
0.407601 -0.016623 0.000000 
0.408394 -0.044605 0.000000 
0.469219 0.349866 0.000000 
[...]
POINT_DATA 4225

SCALARS u_h float 2
LOOKUP_TABLE default
0.018439 -0.165649 
-0.018439 -0.165649 
0.000000 0.000000 
0.000000 0.000000 
0.000000 -0.100000 
-0.017972 -0.117322 
0.000000 0.000000 
0.017972 -0.117322 
0.000000 -0.116176 
0.014042 -0.100000 
0.000000 -0.121182 
-0.003700 -0.132247 
-0.014042 -0.100000 
0.003700 -0.132247 
-0.000658 -0.148260 
-0.006475 -0.120812 
-0.036516 -0.075556 
-0.015953 -0.074657 
0.000000 0.000000 
0.000000 -0.072595 
0.000000 0.000000 
0.015953 -0.074657 
0.036516 -0.075556 
0.006475 -0.120812 
0.000658 -0.148260 
0.019052 -0.148552 
-0.001783 -0.125303 
0.000400 -0.147897 
0.000000 -0.112652 
0.000476 -0.114236 
0.004093 -0.100000 
-0.000283 -0.125182 
-0.001708 -0.123694 
0.000000 -0.123109 
-0.004093 -0.100000 
-0.000476 -0.114236 
-0.000400 -0.147897 
0.001783 -0.125303 
-0.019052 -0.148552 
0.001708 -0.123694 
0.000283 -0.125182 
-0.004282 -0.161110 
0.003146 -0.143845 
-0.011467 -0.122725 
-0.002283 -0.135920 
-0.007148 -0.133487 
-0.000057 -0.130664 
-0.002859 -0.117512 
-0.028955 -0.098483 
-0.020638 -0.103260 
-0.021984 -0.040616 
-0.026126 -0.076314 
-0.035033 -0.047170 
-0.012769 -0.102239 
-0.005980 -0.100091 
0.000000 0.000000 
-0.012377 -0.039105 
0.000000 -0.038450 
-0.005570 -0.038624 
0.000000 0.000000 
-0.007408 -0.073181 
0.000000 -0.099144 
0.000000 0.000000 
0.005570 -0.038624 
0.021984 -0.040616 
0.012377 -0.039105 
0.000000 0.000000 
0.007408 -0.073181 
0.005980 -0.100091 
0.035033 -0.047170 
0.026126 -0.076314 
0.011467 -0.122725 
0.020638 -0.103260 
0.028955 -0.098483 
0.012769 -0.102239 
0.002859 -0.117512 
0.007148 -0.133487 
0.002283 -0.135920 
-0.003146 -0.143845 
0.004282 -0.161110 
0.000057 -0.130664 
0.018176 -0.158017 
0.007764 -0.149003 
0.009456 -0.157749 
0.002664 -0.117361 
0.004876 -0.135579 
0.020071 -0.133117 
-0.003911 -0.138297 
-0.001514 -0.137184 
-0.003659 -0.129944 
0.000000 -0.106806 
0.001440 -0.106923 
0.001916 -0.100000 
-0.000411 -0.118070 
0.000433 -0.112979 
0.000000 -0.117551 
0.007037 -0.100000 
0.002805 -0.107429 
0.003626 -0.109187 
0.000550 -0.121263 
-0.000165 -0.123637 
0.000000 -0.120827 
-0.002798 -0.127163 
-0.001331 -0.125525 
-0.001969 -0.128504 
0.000000 -0.123147 
-0.000650 -0.123741 
-0.000771 -0.121787 
-0.000353 -0.117575 
-0.001159 -0.119843 
-0.002394 -0.123566 
-0.001916 -0.100000 
-0.001440 -0.106923 
-0.003626 -0.109187 
-0.002805 -0.107429 
-0.007037 -0.100000 
-0.000433 -0.112979 
0.000411 -0.118070 
-0.009456 -0.157749 
-0.007764 -0.149003 
-0.018176 -0.158017 
0.003659 -0.129944 
0.001514 -0.137184 
0.003911 -0.138297 
-0.020071 -0.133117 
-0.004876 -0.135579 
-0.002664 -0.117361 
0.000165 -0.123637 
-0.000550 -0.121263 
0.000771 -0.121787 
0.000650 -0.123741 
0.001969 -0.128504 
0.001331 -0.125525 
0.002798 -0.127163 
0.000353 -0.117575 
0.002394 -0.123566 
0.001159 -0.119843 
-0.010760 -0.164836 
-0.002381 -0.155545 
0.001611 -0.147546 
0.001260 -0.152016 
-0.000846 -0.155187 
0.002906 -0.146224 
0.003891 -0.138277 
-0.014549 -0.121403 
-0.009225 -0.129318 
-0.012310 -0.125671 
-0.004634 -0.128895 
-0.006660 -0.130044 
-0.008775 -0.122253 
-0.003032 -0.140979 
-0.004379 -0.136237 
-0.000542 -0.142286 
-0.001187 -0.122542 
-0.001381 -0.116471 
0.002335 -0.132471 
0.000263 -0.127626 
-0.004527 -0.119068 
-0.002001 -0.124499 
-0.003110 -0.126797 
0.001180 -0.140476 
-0.000861 -0.133714 
0.002132 -0.136805 
-0.023650 -0.108352 
-0.019879 -0.112351 
-0.028870 -0.090151 
-0.024806 -0.101995 
-0.033428 -0.087596 
-0.016264 -0.113844 
-0.012891 -0.113695 
-0.018554 -0.021800 
-0.028361 -0.042927 
-0.026879 -0.029501 
-0.020862 -0.075541 
-0.025810 -0.059594 
-0.020216 -0.058498 
-0.037453 -0.062191 
-0.031785 -0.061014 
-0.031482 -0.076595 
-0.004529 -0.110032 
-0.002217 -0.109184 
-0.009813 -0.112645 
-0.007037 -0.111281 
-0.010826 -0.088594 
-0.009236 -0.101114 
-0.014962 -0.089563 
-0.024123 -0.090810 
-0.019424 -0.090424 
-0.016587 -0.103118 
0.000000 0.000000 
-0.013294 -0.020045 
-0.007168 -0.019593 
-0.009808 -0.019672 
0.000000 0.000000 
-0.016707 -0.039597 
-0.015245 -0.057698 
0.000000 -0.019549 
-0.001545 -0.019563 
0.000000 0.000000 
-0.003405 -0.056389 
-0.002710 -0.038504 
0.000000 -0.056283 
0.000000 0.000000 
-0.003185 -0.019571 
-0.005020 -0.019578 
-0.002935 -0.099394 
0.000000 -0.108891 
-0.011481 -0.073837 
-0.007010 -0.087753 
0.000000 -0.086983 
-0.003440 -0.087189 
-0.003628 -0.072754 
-0.008735 -0.038815 
-0.006975 -0.056664 
-0.010871 -0.057099 
0.000000 0.000000 
0.001545 -0.019563 
0.005020 -0.019578 
0.003185 -0.019571 
0.000000 0.000000 
0.002710 -0.038504 
0.003405 -0.056389 
0.018554 -0.021800 
0.013294 -0.020045 
0.000000 0.000000 
0.015245 -0.057698 
0.016707 -0.039597 
0.020216 -0.058498 
0.000000 0.000000 
0.009808 -0.019672 
0.007168 -0.019593 
0.002935 -0.099394 
0.002217 -0.109184 
0.003628 -0.072754 
0.003440 -0.087189 
0.010826 -0.088594 
0.007010 -0.087753 
0.011481 -0.073837 
0.008735 -0.038815 
0.010871 -0.057099 
0.006975 -0.056664 
0.026879 -0.029501 
0.028361 -0.042927 
0.031482 -0.076595 
0.031785 -0.061014 
0.037453 -0.062191 
0.025810 -0.059594 
0.020862 -0.075541 
0.014549 -0.121403 
0.019879 -0.112351 
0.023650 -0.108352 
0.012891 -0.113695 
0.016264 -0.113844 
0.008775 -0.122253 
0.033428 -0.087596 
0.024806 -0.101995 
0.028870 -0.090151 
0.004529 -0.110032 
0.001381 -0.116471 
0.014962 -0.089563 
0.009236 -0.101114 
0.004527 -0.119068 
0.007037 -0.111281 
0.009813 -0.112645 
0.024123 -0.090810 
0.016587 -0.103118 
0.019424 -0.090424 
0.012310 -0.125671 
0.009225 -0.129318 
0.000542 -0.142286 
0.004379 -0.136237 
0.003032 -0.140979 
0.006660 -0.130044 
0.004634 -0.128895 
0.002381 -0.155545 
0.010760 -0.164836 
-0.003891 -0.138277 
-0.002906 -0.146224 
0.000846 -0.155187 
-0.001260 -0.152016 
-0.001611 -0.147546 
0.001187 -0.122542 
0.003110 -0.126797 
0.002001 -0.124499 
-0.000263 -0.127626 
-0.002335 -0.132471 
-0.001180 -0.140476 
-0.002132 -0.136805 
0.000861 -0.133714 
0.018185 -0.161847 
0.013844 -0.158155 
0.014181 -0.161856 
0.013100 -0.149106 
0.013526 -0.154048 
0.018486 -0.153734 
0.004611 -0.153073 
0.008718 -0.153777 
0.003517 -0.148540 
0.006515 -0.111074 
0.008627 -0.123911 
0.019149 -0.120572 
0.000084 -0.128962 
0.003268 -0.126540 
0.000040 -0.121870 
0.019705 -0.141942 
0.010932 -0.134705 
0.012343 -0.142857 
-0.004156 -0.134835 
-0.003962 -0.134008 
-0.003880 -0.131364 
-0.000636 -0.142917 
-0.003074 -0.137851 
-0.002499 -0.142754 
-0.002983 -0.127948 
-0.003262 -0.132745 
-0.001968 -0.131054 
0.006487 -0.143052 
0.000992 -0.136392 
0.002262 -0.143014 
0.000000 -0.103542 
0.000885 -0.103549 
0.000942 -0.100000 
0.000491 -0.109887 
0.000722 -0.106831 
0.000000 -0.109838 
0.002952 -0.100000 
0.001791 -0.103587 
0.002735 -0.103663 
-0.000310 -0.119695 
-0.000183 -0.117680 
0.000000 -0.119550 
0.000532 -0.113448 
-0.000040 -0.115669 
-0.000183 -0.116268 
0.000000 -0.115235 
0.000005 -0.115342 
0.000239 -0.112731 
0.009359 -0.100000 
0.005904 -0.104517 
0.006751 -0.105801 
0.003736 -0.103797 
0.004804 -0.104036 
0.005409 -0.100000 
0.001684 -0.111909 
0.003354 -0.108019 
0.001625 -0.110934 
0.000954 -0.110053 
0.001351 -0.110373 
0.002144 -0.107105 
0.000469 -0.118884 
0.000268 -0.120935 
0.000000 -0.118797 
-0.000234 -0.124286 
0.000171 -0.122744 
0.000279 -0.123340 
0.000000 -0.122260 
0.000081 -0.122383 
-0.000085 -0.123244 
-0.003306 -0.129523 
-0.002514 -0.128111 
-0.002896 -0.130229 
-0.001620 -0.124873 
-0.002074 -0.126318 
-0.002247 -0.125219 
-0.001062 -0.126869 
-0.001666 -0.126870 
-0.000875 -0.125633 
0.000000 -0.122396 
-0.000375 -0.122551 
-0.000373 -0.121335 
-0.000222 -0.123540 
-0.000322 -0.123298 
0.000000 -0.123396 
-0.001213 -0.122562 
-0.000764 -0.123006 
-0.001179 -0.123774 
-0.000664 -0.124661 
-0.000987 -0.124482 
-0.000444 -0.123962 
0.003339 -0.111763 
0.000196 -0.115519 
0.001405 -0.113647 
0.000746 -0.116744 
-0.001104 -0.120752 
-0.000656 -0.120127 
-0.001564 -0.122008 
-0.001068 -0.120880 
-0.000725 -0.118765 
-0.000475 -0.117233 
-0.003386 -0.128260 
-0.002349 -0.123936 
-0.003086 -0.126413 
-0.002774 -0.125653 
-0.002144 -0.123579 
-0.000950 -0.118708 
-0.001724 -0.121405 
-0.001606 -0.120881 
-0.000942 -0.100000 
-0.000885 -0.103549 
-0.002735 -0.103663 
-0.001791 -0.103587 
-0.002952 -0.100000 
-0.000722 -0.106831 
-0.000491 -0.109887 
-0.006751 -0.105801 
-0.005904 -0.104517 
-0.009359 -0.100000 
-0.001625 -0.110934 
-0.003354 -0.108019 
-0.001684 -0.111909 
-0.005409 -0.100000 
-0.004804 -0.104036 
-0.003736 -0.103797 
0.000183 -0.117680 
0.000310 -0.119695 
-0.000239 -0.112731 
-0.000005 -0.115342 
0.000183 -0.116268 
0.000040 -0.115669 
-0.000532 -0.113448 
-0.002144 -0.107105 
-0.001351 -0.110373 
-0.000954 -0.110053 
-0.014181 -0.161856 
-0.013844 -0.158155 
-0.018185 -0.161847 
-0.003517 -0.148540 
-0.008718 -0.153777 
-0.004611 -0.153073 
-0.018486 -0.153734 
-0.013526 -0.154048 
-0.013100 -0.149106 
0.003880 -0.131364 
0.003962 -0.134008 
0.004156 -0.134835 
0.001968 -0.131054 
0.003262 -0.132745 
0.002983 -0.127948 
0.002499 -0.142754 
0.003074 -0.137851 
0.000636 -0.142917 
-0.019149 -0.120572 
-0.008627 -0.123911 
-0.006515 -0.111074 
-0.012343 -0.142857 
-0.010932 -0.134705 
-0.019705 -0.141942 
-0.000040 -0.121870 
-0.003268 -0.126540 
-0.000084 -0.128962 
-0.002262 -0.143014 
-0.000992 -0.136392 
-0.006487 -0.143052 
-0.000268 -0.120935 
-0.000469 -0.118884 
0.000085 -0.123244 
-0.000081 -0.122383 
-0.000279 -0.123340 
-0.000171 -0.122744 
0.000234 -0.124286 
0.000373 -0.121335 
0.000375 -0.122551 
0.001179 -0.123774 
0.000764 -0.123006 
0.001213 -0.122562 
0.000322 -0.123298 
0.000222 -0.123540 
0.002896 -0.130229 
0.002514 -0.128111 
0.003306 -0.129523 
0.000875 -0.125633 
0.001666 -0.126870 
0.001062 -0.126869 
0.002247 -0.125219 
0.002074 -0.126318 
0.001620 -0.124873 
0.000444 -0.123962 
0.000987 -0.124482 
0.000664 -0.124661 
-0.003339 -0.111763 
0.001104 -0.120752 
-0.000746 -0.116744 
-0.001405 -0.113647 
-0.000196 -0.115519 
0.003386 -0.128260 
0.002144 -0.123579 
0.002774 -0.125653 
0.003086 -0.126413 
0.002349 -0.123936 
0.000656 -0.120127 
0.000475 -0.117233 
0.000725 -0.118765 
0.001068 -0.120880 
0.001564 -0.122008 
0.001606 -0.120881 
0.001724 -0.121405 
0.000950 -0.118708 
-0.014600 -0.165575 
-0.010097 -0.161299 
-0.003296 -0.158490 
-0.006364 -0.160157 
-0.007218 -0.163327 
-0.005536 -0.156849 
-0.001425 -0.152072 
0.000579 -0.148350 
0.000808 -0.151245 
-0.000380 -0.151794 
0.002650 -0.147820 
0.001803 -0.149885 
0.002466 -0.146001 
-0.002138 -0.158341 
0.000289 -0.153945 
-0.001065 -0.156388 
0.004153 -0.138454 
0.003910 -0.135222 
0.001697 -0.147130 
0.003529 -0.142460 
0.003630 -0.141216 
0.003871 -0.141965 
0.003351 -0.145142 
-0.000113 -0.153915 
0.002132 -0.149433 
0.000804 -0.150850 
-0.016222 -0.119776 
-0.013431 -0.123955 
-0.015107 -0.121578 
-0.010390 -0.126323 
-0.011856 -0.125494 
-0.012961 -0.122345 
-0.009636 -0.129631 
-0.010706 -0.127927 
-0.008102 -0.131710 
-0.005676 -0.125013 
-0.006683 -0.125808 
-0.007577 -0.121608 
-0.004390 -0.133155 
-0.005581 -0.129642 
-0.003458 -0.132512 
-0.010071 -0.122658 
-0.007802 -0.126362 
-0.009038 -0.126572 
-0.001578 -0.144646 
-0.001688 -0.142107 
-0.000289 -0.145297 
-0.005682 -0.135324 
-0.003517 -0.138785 
-0.004920 -0.137263 
-0.001258 -0.139168 
-0.002296 -0.139363 
-0.003246 -0.136385 
-0.007875 -0.129978 
-0.005474 -0.133327 
-0.006713 -0.132893 
-0.000957 -0.119176 
-0.000684 -0.116210 
-0.000413 -0.124156 
-0.000853 -0.121804 
-0.002103 -0.116912 
-0.001468 -0.119665 
-0.002011 -0.120331 
0.003169 -0.132613 
0.002205 -0.130392 
0.000152 -0.129100 
0.001276 -0.130016 
0.001244 -0.131822 
0.001205 -0.128344 
0.000299 -0.126305 
-0.005461 -0.119943 
-0.003969 -0.123070 
-0.004775 -0.124073 
-0.002601 -0.121146 
-0.003249 -0.122075 
-0.003664 -0.118242 
-0.001523 -0.128991 
-0.002510 -0.125634 
-0.001123 -0.127642 
-0.000588 -0.125170 
-0.000818 -0.126347 
-0.001565 -0.123453 
0.000794 -0.145012 
-0.000403 -0.138355 
0.000414 -0.141689 
0.001687 -0.143962 
0.002391 -0.142298 
-0.003813 -0.127913 
-0.000388 -0.132235 
-0.002035 -0.130317 
-0.002676 -0.131527 
-0.001489 -0.134985 
0.003281 -0.135162 
0.002898 -0.140170 
0.003196 -0.137735 
0.002320 -0.134649 
0.001080 -0.133677 
0.000269 -0.137075 
0.000761 -0.135469 
0.001754 -0.138797 
-0.020832 -0.112945 
-0.019011 -0.115373 
-0.024396 -0.105796 
-0.021751 -0.110721 
-0.026376 -0.103537 
-0.017238 -0.117029 
-0.015529 -0.118029 
-0.032847 -0.082942 
-0.031187 -0.089175 
-0.035186 -0.081729 
-0.022716 -0.102852 
-0.026979 -0.096271 
-0.024754 -0.096978 
-0.031327 -0.093175 
-0.029176 -0.095045 
-0.026891 -0.100578 
-0.010861 -0.118220 
-0.009472 -0.117687 
-0.013892 -0.118488 
-0.012335 -0.118518 
-0.016646 -0.108864 
-0.014543 -0.113925 
-0.018531 -0.108774 
-0.022419 -0.107347 
-0.020460 -0.108303 
-0.018046 -0.113355 
-0.013128 -0.012180 
-0.022423 -0.024449 
-0.018796 -0.018359 
-0.025047 -0.041546 
-0.024496 -0.032750 
-0.021170 -0.031269 
-0.031918 -0.038798 
-0.028210 -0.035214 
-0.031783 -0.044840 
-0.018354 -0.075099 
-0.020848 -0.067280 
-0.018280 -0.066831 
-0.026323 -0.068241 
-0.023537 -0.067755 
-0.023461 -0.075958 
-0.021543 -0.049730 
-0.022942 -0.059002 
-0.024426 -0.050374 
-0.037314 -0.069054 
-0.034737 -0.069258 
-0.034067 -0.076316 
-0.033819 -0.053614 
-0.034716 -0.061716 
-0.036768 -0.054922 
-0.028816 -0.076554 
-0.031993 -0.069083 
-0.029162 -0.068706 
-0.027489 -0.051228 
-0.028782 -0.060276 
-0.030665 -0.052322 
-0.001809 -0.113142 
-0.000903 -0.112905 
-0.003709 -0.114080 
-0.002740 -0.113540 
-0.003926 -0.104927 
-0.003354 -0.109545 
-0.005294 -0.105367 
-0.008169 -0.117005 
-0.006948 -0.116245 
-0.009741 -0.107118 
-0.008388 -0.111972 
-0.011361 -0.107725 
-0.005803 -0.115471 
-0.004727 -0.114735 
-0.013417 -0.081923 
-0.012852 -0.089075 
-0.015638 -0.082382 
-0.007577 -0.100573 
-0.010127 -0.095144 
-0.008310 -0.094651 
-0.013986 -0.096184 
-0.012018 -0.095666 
-0.010966 -0.101682 
-0.005753 -0.110621 
-0.008194 -0.106495 
-0.006714 -0.105900 
-0.030403 -0.083603 
-0.025355 -0.083830 
-0.027892 -0.083860 
-0.026506 -0.090657 
-0.022524 -0.097279 
-0.017954 -0.082837 
-0.016031 -0.096659 
-0.017156 -0.090026 
-0.020357 -0.083258 
-0.022832 -0.083606 
-0.011314 -0.113242 
-0.018589 -0.103319 
-0.014817 -0.108665 
-0.013054 -0.108261 
-0.014644 -0.102736 
-0.021754 -0.090706 
-0.018144 -0.097042 
-0.020314 -0.097272 
0.000000 0.000000 
-0.010133 -0.010506 
-0.007057 -0.009798 
-0.008342 -0.009983 
0.000000 0.000000 
-0.015599 -0.020594 
-0.018306 -0.030431 
-0.003779 -0.009761 
-0.004439 -0.009743 
0.000000 0.000000 
-0.011773 -0.029518 
-0.008411 -0.019617 
-0.010057 -0.029410 
0.000000 0.000000 
-0.005182 -0.009731 
-0.006038 -0.009739 
-0.017651 -0.058068 
-0.015843 -0.066415 
-0.019210 -0.040005 
-0.018866 -0.049243 
-0.014103 -0.048567 
-0.016391 -0.048867 
-0.014441 -0.039313 
-0.011409 -0.019790 
-0.013684 -0.029685 
-0.015839 -0.029959 
0.000000 -0.009834 
-0.000401 -0.009837 
0.000000 0.000000 
-0.001083 -0.029118 
-0.000766 -0.019557 
0.000000 -0.029105 
0.000000 0.000000 
-0.000810 -0.009836 
-0.001232 -0.009831 
-0.001776 -0.064695 
-0.001692 -0.056315 
0.000000 -0.064656 
-0.004112 -0.038555 
-0.003118 -0.047608 
-0.004728 -0.047691 
0.000000 -0.047529 
-0.001549 -0.047554 
-0.001346 -0.038469 
0.000000 0.000000 
-0.002642 -0.009798 
-0.003185 -0.009781 
-0.001674 -0.009824 
-0.002141 -0.009813 
0.000000 0.000000 
-0.005738 -0.029229 
-0.004071 -0.019574 
-0.004494 -0.029191 
-0.002183 -0.029136 
-0.003314 -0.029160 
-0.002347 -0.019567 
-0.001104 -0.108964 
0.000000 -0.112836 
-0.004437 -0.099692 
-0.002596 -0.104598 
0.000000 -0.104326 
-0.001292 -0.104396 
-0.001461 -0.099209 
-0.013663 -0.074232 
-0.011291 -0.081483 
-0.007301 -0.080731 
-0.009256 -0.081081 
-0.009400 -0.073484 
-0.008881 -0.088146 
-0.006561 -0.094214 
0.000000 -0.080052 
-0.001781 -0.080101 
-0.001804 -0.072639 
-0.001603 -0.093417 
-0.001712 -0.087038 
0.000000 -0.093357 
-0.005490 -0.072935 
-0.003580 -0.080234 
-0.005414 -0.080446 
-0.004868 -0.093853 
-0.005201 -0.087430 
-0.003221 -0.093584 
-0.006045 -0.019583 
-0.007104 -0.038710 
-0.007066 -0.029276 
-0.008498 -0.029334 
-0.010485 -0.038944 
-0.003573 -0.064789 
-0.007306 -0.065142 
-0.005410 -0.064939 
-0.005159 -0.056506 
-0.006398 -0.047803 
-0.013536 -0.066034 
-0.011981 -0.048322 
-0.012989 -0.057377 
-0.011353 -0.065693 
-0.009282 -0.065394 
-0.008150 -0.047945 
-0.008872 -0.056862 
-0.010004 -0.048116 
0.000000 0.000000 
0.000401 -0.009837 
0.001232 -0.009831 
0.000810 -0.009836 
0.000000 0.000000 
0.000766 -0.019557 
0.001083 -0.029118 
0.003185 -0.009781 
0.002642 -0.009798 
0.000000 0.000000 
0.004494 -0.029191 
0.004071 -0.019574 
0.005738 -0.029229 
0.000000 0.000000 
0.002141 -0.009813 
0.001674 -0.009824 
0.001692 -0.056315 
0.001776 -0.064695 
0.001346 -0.038469 
0.001549 -0.047554 
0.004728 -0.047691 
0.003118 -0.047608 
0.004112 -0.038555 
0.002347 -0.019567 
0.003314 -0.029160 
0.002183 -0.029136 
0.013128 -0.012180 
0.010133 -0.010506 
0.000000 0.000000 
0.018306 -0.030431 
0.015599 -0.020594 
0.021170 -0.031269 
0.000000 0.000000 
0.008342 -0.009983 
0.007057 -0.009798 
0.015843 -0.066415 
0.017651 -0.058068 
0.018280 -0.066831 
0.014441 -0.039313 
0.016391 -0.048867 
0.014103 -0.048567 
0.021543 -0.049730 
0.018866 -0.049243 
0.019210 -0.040005 
0.000000 0.000000 
0.004439 -0.009743 
0.003779 -0.009761 
0.006038 -0.009739 
0.005182 -0.009731 
0.000000 0.000000 
0.010057 -0.029410 
0.008411 -0.019617 
0.011773 -0.029518 
0.015839 -0.029959 
0.013684 -0.029685 
0.011409 -0.019790 
0.001104 -0.108964 
0.000903 -0.112905 
0.001461 -0.099209 
0.001292 -0.104396 
0.003926 -0.104927 
0.002596 -0.104598 
0.004437 -0.099692 
0.001804 -0.072639 
0.001781 -0.080101 
0.005414 -0.080446 
0.003580 -0.080234 
0.005490 -0.072935 
0.001712 -0.087038 
0.001603 -0.093417 
0.013417 -0.081923 
0.011291 -0.081483 
0.013663 -0.074232 
0.006561 -0.094214 
0.008881 -0.088146 
0.008310 -0.094651 
0.009400 -0.073484 
0.009256 -0.081081 
0.007301 -0.080731 
0.003221 -0.093584 
0.005201 -0.087430 
0.004868 -0.093853 
0.006045 -0.019583 
0.010485 -0.038944 
0.008498 -0.029334 
0.007066 -0.029276 
0.007104 -0.038710 
0.013536 -0.066034 
0.009282 -0.065394 
0.011353 -0.065693 
0.012989 -0.057377 
0.011981 -0.048322 
0.003573 -0.064789 
0.006398 -0.047803 
0.005159 -0.056506 
0.005410 -0.064939 
0.007306 -0.065142 
0.010004 -0.048116 
0.008872 -0.056862 
0.008150 -0.047945 
0.018796 -0.018359 
0.022423 -0.024449 
0.031783 -0.044840 
0.028210 -0.035214 
0.031918 -0.038798 
0.024496 -0.032750 
0.025047 -0.041546 
0.034067 -0.076316 
0.034737 -0.069258 
0.037314 -0.069054 
0.029162 -0.068706 
0.031993 -0.069083 
0.028816 -0.076554 
0.036768 -0.054922 
0.034716 -0.061716 
0.033819 -0.053614 
0.020848 -0.067280 
0.018354 -0.075099 
0.024426 -0.050374 
0.022942 -0.059002 
0.023461 -0.075958 
0.023537 -0.067755 
0.026323 -0.068241 
0.030665 -0.052322 
0.028782 -0.060276 
0.027489 -0.051228 
0.016222 -0.119776 
0.019011 -0.115373 
0.020832 -0.112945 
0.015529 -0.118029 
0.017238 -0.117029 
0.012961 -0.122345 
0.026376 -0.103537 
0.021751 -0.110721 
0.024396 -0.105796 
0.009472 -0.117687 
0.010861 -0.118220 
0.007577 -0.121608 
0.018531 -0.108774 
0.014543 -0.113925 
0.016646 -0.108864 
0.010071 -0.122658 
0.012335 -0.118518 
0.013892 -0.118488 
0.035186 -0.081729 
0.031187 -0.089175 
0.032847 -0.082942 
0.026891 -0.100578 
0.029176 -0.095045 
0.031327 -0.093175 
0.024754 -0.096978 
0.026979 -0.096271 
0.022716 -0.102852 
0.018046 -0.113355 
0.020460 -0.108303 
0.022419 -0.107347 
0.001809 -0.113142 
0.000684 -0.116210 
0.005294 -0.105367 
0.003354 -0.109545 
0.002103 -0.116912 
0.002740 -0.113540 
0.003709 -0.114080 
0.015638 -0.082382 
0.012852 -0.089075 
0.010966 -0.101682 
0.012018 -0.095666 
0.013986 -0.096184 
0.010127 -0.095144 
0.007577 -0.100573 
0.005461 -0.119943 
0.006948 -0.116245 
0.008169 -0.117005 
0.004727 -0.114735 
0.005803 -0.115471 
0.003664 -0.118242 
0.011361 -0.107725 