# vtk DataFile Version 2.0
Unstructured Grid Example
ASCII
DATASET UNSTRUCTURED_GRID

POINTS 1089 float
0.020896 -0.142463 0.000000 
0.979104 -0.142463 0.000000 
1.000000 1.000000 0.000000 
0.000000 1.000000 0.000000 
0.500000 -0.100000 0.000000 
0.984981 0.397238 0.000000 
0.500000 1.000000 0.000000 
0.015019 0.397238 0.000000 
0.500000 0.392817 0.000000 
0.257288 -0.045096 0.000000 
0.500000 0.135923 0.000000 
0.247277 0.138175 0.000000 
0.742712 -0.045096 0.000000 
0.752723 0.138175 0.000000 
1.003679 0.124084 0.000000 
0.743772 0.391503 0.000000 
0.967069 0.681565 0.000000 
0.735331 0.681571 0.000000 
0.750000 1.000000 0.000000 
0.500000 0.682783 0.000000 
0.250000 1.000000 0.000000 
0.264669 0.681571 0.000000 
0.032931 0.681565 0.000000 
0.256228 0.391503 0.000000 
-0.003679 0.124084 0.000000 
0.145850 -0.116414 0.000000 
0.248431 0.029575 0.000000 
0.121336 0.005279 0.000000 
0.500000 0.014891 0.000000 
0.377048 0.018928 0.000000 
0.369381 -0.100000 0.000000 
0.375873 0.261167 0.000000 
0.375620 0.137659 0.000000 
0.500000 0.261134 0.000000 
0.630619 -0.100000 0.000000 
0.622952 0.018928 0.000000 
0.878664 0.005279 0.000000 
0.751569 0.029575 0.000000 
0.854150 -0.116414 0.000000 
0.624380 0.137659 0.000000 
0.624127 0.261167 0.000000 
0.999831 -0.012654 0.000000 
0.880852 0.129065 0.000000 
0.865037 0.391282 0.000000 
0.874308 0.257144 0.000000 
0.996081 0.260209 0.000000 
0.749492 0.259967 0.000000 
0.621848 0.392621 0.000000 
0.974323 0.537091 0.000000 
0.856315 0.532119 0.000000 
0.855132 0.837782 0.000000 
0.851238 0.680599 0.000000 
0.968344 0.831900 0.000000 
0.738107 0.532088 0.000000 
0.619253 0.533066 0.000000 
0.875000 1.000000 0.000000 
0.738696 0.838867 0.000000 
0.500000 0.839221 0.000000 
0.619857 0.839093 0.000000 
0.625000 1.000000 0.000000 
0.618103 0.682413 0.000000 
0.500000 0.533507 0.000000 
0.375000 1.000000 0.000000 
0.380143 0.839093 0.000000 
0.144868 0.837782 0.000000 
0.261304 0.838867 0.000000 
0.125000 1.000000 0.000000 
0.381897 0.682413 0.000000 
0.380747 0.533066 0.000000 
0.031656 0.831900 0.000000 
0.148762 0.680599 0.000000 
0.134963 0.391282 0.000000 
0.143685 0.532119 0.000000 
0.025677 0.537091 0.000000 
0.261893 0.532088 0.000000 
0.378152 0.392621 0.000000 
0.003919 0.260209 0.000000 
0.125692 0.257144 0.000000 
0.119148 0.129065 0.000000 
0.000169 -0.012654 0.000000 
0.250508 0.259967 0.000000 
0.082733 -0.131063 0.000000 
0.129690 -0.056181 0.000000 
0.069750 -0.069010 0.000000 
0.250592 -0.015393 0.000000 
0.188429 -0.036927 0.000000 
0.206971 -0.091228 0.000000 
0.181760 0.075639 0.000000 
0.182965 0.018814 0.000000 
0.247270 0.081729 0.000000 
0.500000 -0.043572 0.000000 
0.436891 -0.043252 0.000000 
0.435464 -0.100000 0.000000 
0.438377 0.075742 0.000000 
0.438217 0.015732 0.000000 
0.500000 0.074925 0.000000 
0.303187 -0.088212 0.000000 
0.375061 -0.040961 0.000000 
0.316077 -0.029980 0.000000 
0.438475 0.326008 0.000000 
0.438055 0.261160 0.000000 
0.500000 0.326036 0.000000 
0.312046 0.138791 0.000000 
0.375410 0.198535 0.000000 
0.312218 0.198678 0.000000 
0.500000 0.197882 0.000000 
0.437910 0.198082 0.000000 
0.438076 0.136418 0.000000 
0.315021 0.025491 0.000000 
0.376430 0.078082 0.000000 
0.313018 0.081169 0.000000 
0.564536 -0.100000 0.000000 
0.563109 -0.043252 0.000000 
0.683923 -0.029980 0.000000 
0.624939 -0.040961 0.000000 
0.696813 -0.088212 0.000000 
0.561783 0.015732 0.000000 
0.561623 0.075742 0.000000 
0.930250 -0.069010 0.000000 
0.870310 -0.056181 0.000000 
0.917267 -0.131063 0.000000 
0.752730 0.081729 0.000000 
0.817035 0.018814 0.000000 
0.818240 0.075639 0.000000 
0.793029 -0.091228 0.000000 
0.811571 -0.036927 0.000000 
0.749408 -0.015393 0.000000 
0.561945 0.261160 0.000000 
0.561525 0.326008 0.000000 
0.561924 0.136418 0.000000 
0.562090 0.198082 0.000000 
0.687782 0.198678 0.000000 
0.624590 0.198535 0.000000 
0.687954 0.138791 0.000000 
0.684979 0.025491 0.000000 
0.686982 0.081169 0.000000 
0.623570 0.078082 0.000000 
0.990875 -0.079211 0.000000 
0.939335 -0.005162 0.000000 
0.942861 0.124897 0.000000 
0.943146 0.059602 0.000000 
1.003875 0.055628 0.000000 
0.881454 0.066860 0.000000 
0.817444 0.134399 0.000000 
0.925164 0.393008 0.000000 
0.930512 0.324581 0.000000 
0.990673 0.328424 0.000000 
0.808493 0.323742 0.000000 
0.869788 0.323411 0.000000 
0.804552 0.391047 0.000000 
1.000682 0.192220 0.000000 
0.935604 0.257211 0.000000 
0.939969 0.190715 0.000000 
0.623144 0.325811 0.000000 
0.560903 0.392900 0.000000 
0.751571 0.197753 0.000000 
0.686678 0.260864 0.000000 
0.682828 0.392119 0.000000 
0.684928 0.325344 0.000000 
0.746786 0.324587 0.000000 
0.878188 0.192403 0.000000 
0.812187 0.258495 0.000000 
0.815293 0.195356 0.000000 
0.979437 0.466635 0.000000 
0.919988 0.462629 0.000000 
0.911445 0.606202 0.000000 
0.915287 0.533634 0.000000 
0.970034 0.608697 0.000000 
0.860432 0.460814 0.000000 
0.800691 0.460386 0.000000 
0.920997 0.917630 0.000000 
0.911891 0.835784 0.000000 
0.975869 0.910863 0.000000 
0.793431 0.681049 0.000000 
0.851563 0.758078 0.000000 
0.794080 0.758889 0.000000 
0.966131 0.755850 0.000000 
0.908698 0.756919 0.000000 
0.908987 0.680536 0.000000 
0.620469 0.461698 0.000000 
0.560228 0.462007 0.000000 
0.740754 0.460674 0.000000 
0.680661 0.461205 0.000000 
0.677395 0.606242 0.000000 
0.678757 0.532592 0.000000 
0.736167 0.605739 0.000000 
0.853075 0.605330 0.000000 
0.794704 0.605338 0.000000 
0.797283 0.531798 0.000000 
0.937500 1.000000 0.000000 
0.863058 0.919047 0.000000 
0.743448 0.919304 0.000000 
0.803606 0.919297 0.000000 
0.812500 1.000000 0.000000 
0.797334 0.838562 0.000000 
0.736042 0.759410 0.000000 
0.500000 0.919257 0.000000 
0.561068 0.919228 0.000000 
0.562500 1.000000 0.000000 
0.559338 0.760167 0.000000 
0.559990 0.839156 0.000000 
0.500000 0.760265 0.000000 
0.687500 1.000000 0.000000 
0.622053 0.919237 0.000000 
0.682879 0.919267 0.000000 
0.559646 0.533386 0.000000 
0.500000 0.462083 0.000000 
0.676875 0.682042 0.000000 
0.618399 0.606684 0.000000 
0.500000 0.607115 0.000000 
0.559239 0.606985 0.000000 
0.559107 0.682661 0.000000 
0.679474 0.839009 0.000000 
0.618546 0.760004 0.000000 
0.677491 0.759761 0.000000 
0.437500 1.000000 0.000000 
0.438932 0.919228 0.000000 
0.317121 0.919267 0.000000 
0.377947 0.919237 0.000000 
0.312500 1.000000 0.000000 
0.440010 0.839156 0.000000 
0.440662 0.760167 0.000000 
0.079003 0.917630 0.000000 
0.136942 0.919047 0.000000 
0.062500 1.000000 0.000000 
0.263958 0.759410 0.000000 
0.202666 0.838562 0.000000 
0.205920 0.758889 0.000000 
0.187500 1.000000 0.000000 
0.196394 0.919297 0.000000 
0.256552 0.919304 0.000000 
0.440354 0.533386 0.000000 
0.439772 0.462007 0.000000 
0.440893 0.682661 0.000000 
0.440761 0.606985 0.000000 
0.322605 0.606242 0.000000 
0.381601 0.606684 0.000000 
0.323125 0.682042 0.000000 
0.320526 0.839009 0.000000 
0.322509 0.759761 0.000000 
0.381454 0.760004 0.000000 
0.024131 0.910863 0.000000 
0.088109 0.835784 0.000000 
0.091013 0.680536 0.000000 
0.091302 0.756919 0.000000 
0.033869 0.755850 0.000000 
0.148437 0.758078 0.000000 
0.206569 0.681049 0.000000 
0.074836 0.393008 0.000000 
0.080012 0.462629 0.000000 
0.020563 0.466635 0.000000 
0.199309 0.460386 0.000000 
0.139568 0.460814 0.000000 
0.195448 0.391047 0.000000 
0.029966 0.608697 0.000000 
0.084713 0.533634 0.000000 
0.088555 0.606202 0.000000 
0.379531 0.461698 0.000000 
0.439097 0.392900 0.000000 
0.263833 0.605739 0.000000 
0.321243 0.532592 0.000000 
0.317172 0.392119 0.000000 
0.319339 0.461205 0.000000 
0.259246 0.460674 0.000000 
0.146925 0.605330 0.000000 
0.202717 0.531798 0.000000 
0.205296 0.605338 0.000000 
0.009327 0.328424 0.000000 
0.069488 0.324581 0.000000 
0.060031 0.190715 0.000000 
0.064396 0.257211 0.000000 
-0.000682 0.192220 0.000000 
0.130212 0.323411 0.000000 
0.191507 0.323742 0.000000 
0.060665 -0.005162 0.000000 
0.009125 -0.079211 0.000000 
0.182556 0.134399 0.000000 
0.118546 0.066860 0.000000 
-0.003875 0.055628 0.000000 
0.056854 0.059602 0.000000 
0.057139 0.124897 0.000000 
0.376856 0.325811 0.000000 
0.253214 0.324587 0.000000 
0.315072 0.325344 0.000000 
0.313322 0.260864 0.000000 
0.248429 0.197753 0.000000 
0.121812 0.192403 0.000000 
0.184707 0.195356 0.000000 
0.187813 0.258495 0.000000 
0.051613 -0.136746 0.000000 
0.076056 -0.100319 0.000000 
0.045443 -0.105767 0.000000 
0.136799 -0.086660 0.000000 
0.106586 -0.094183 0.000000 
0.114232 -0.124547 0.000000 
0.094665 -0.031867 0.000000 
0.099882 -0.063196 0.000000 
0.124642 -0.025464 0.000000 
0.252636 -0.033103 0.000000 
0.223105 -0.048828 0.000000 
0.234053 -0.070665 0.000000 
0.216165 -0.000279 0.000000 
0.218340 -0.025067 0.000000 
0.249382 0.005889 0.000000 
0.177072 -0.105745 0.000000 
0.195077 -0.064556 0.000000 
0.166386 -0.077040 0.000000 
0.214370 0.107653 0.000000 
0.214250 0.079405 0.000000 
0.247123 0.109511 0.000000 
0.151883 0.011786 0.000000 
0.182043 0.047022 0.000000 
0.150441 0.041437 0.000000 
0.247715 0.054995 0.000000 
0.214460 0.051970 0.000000 
0.215046 0.025399 0.000000 
0.159137 -0.047505 0.000000 
0.184858 -0.009122 0.000000 
0.154584 -0.017838 0.000000 
0.500000 -0.072013 0.000000 
0.468005 -0.072018 0.000000 
0.467806 -0.100000 0.000000 
0.468781 -0.014434 0.000000 
0.468393 -0.043506 0.000000 
0.500000 -0.014590 0.000000 
0.402785 -0.100000 0.000000 
0.435994 -0.071953 0.000000 
0.403999 -0.071751 0.000000 
0.469142 0.105494 0.000000 
0.469196 0.075144 0.000000 
0.500000 0.105317 0.000000 
0.407559 0.016928 0.000000 
0.438409 0.045657 0.000000 
0.407673 0.046811 0.000000 
0.500000 0.044763 0.000000 
0.469183 0.045002 0.000000 
0.469054 0.015111 0.000000 
0.275010 -0.071239 0.000000 
0.312562 -0.059264 0.000000 
0.285633 -0.045012 0.000000 
0.372342 -0.070928 0.000000 
0.341644 -0.067597 0.000000 
0.335530 -0.097540 0.000000 
0.346547 -0.007286 0.000000 
0.345296 -0.037148 0.000000 
0.376590 -0.010896 0.000000 
0.437707 -0.013957 0.000000 
0.406933 -0.012921 0.000000 
0.405673 -0.042593 0.000000 
0.469374 0.359213 0.000000 
[...]
POINT_DATA 1089

SCALARS u_h float 2
LOOKUP_TABLE default
0.020896 -0.142463 
-0.020896 -0.142463 
0.000000 0.000000 
0.000000 0.000000 
-0.000000 -0.100000 
-0.015019 -0.102762 
0.000000 0.000000 
0.015019 -0.102762 
-0.000000 -0.107183 
0.007288 -0.045096 
-0.000000 -0.114077 
-0.002723 -0.111825 
-0.007288 -0.045096 
0.002723 -0.111825 
0.003679 -0.125916 
-0.006228 -0.108497 
-0.032931 -0.068435 
-0.014669 -0.068429 
0.000000 0.000000 
0.000000 -0.067217 
0.000000 0.000000 
0.014669 -0.068429 
0.032931 -0.068435 
0.006228 -0.108497 
-0.003679 -0.125916 
0.020850 -0.116414 
-0.001569 -0.095425 
-0.003664 -0.119721 
-0.000000 -0.110109 
0.002048 -0.106072 
-0.005619 -0.100000 
0.000873 -0.113833 
0.000620 -0.112341 
-0.000000 -0.113866 
0.005619 -0.100000 
-0.002048 -0.106072 
0.003664 -0.119721 
0.001569 -0.095425 
-0.020850 -0.116414 
-0.000620 -0.112341 
-0.000873 -0.113833 
-0.000169 -0.137654 
0.005852 -0.120935 
-0.009963 -0.108718 
-0.000692 -0.117856 
-0.003919 -0.114791 
-0.000508 -0.115033 
-0.003152 -0.107379 
-0.025677 -0.087909 
-0.018685 -0.092881 
-0.019868 -0.037218 
-0.023762 -0.069401 
-0.031656 -0.043100 
-0.011893 -0.092912 
-0.005747 -0.091934 
0.000000 0.000000 
-0.011304 -0.036133 
0.000000 -0.035779 
-0.005143 -0.035907 
0.000000 0.000000 
-0.006897 -0.067587 
-0.000000 -0.091493 
0.000000 0.000000 
0.005143 -0.035907 
0.019868 -0.037218 
0.011304 -0.036133 
0.000000 0.000000 
0.006897 -0.067587 
0.005747 -0.091934 
0.031656 -0.043100 
0.023762 -0.069401 
0.009963 -0.108718 
0.018685 -0.092881 
0.025677 -0.087909 
0.011893 -0.092912 
0.003152 -0.107379 
0.003919 -0.114791 
0.000692 -0.117856 
-0.005852 -0.120935 
0.000169 -0.137654 
0.000508 -0.115033 
0.020233 -0.131063 
0.004690 -0.118681 
0.007250 -0.131510 
0.000592 -0.077893 
0.000929 -0.099427 
0.019471 -0.091228 
-0.005740 -0.111861 
-0.004535 -0.106186 
-0.002730 -0.105771 
-0.000000 -0.106072 
-0.000609 -0.105752 
-0.002036 -0.100000 
0.000877 -0.111758 
0.000717 -0.109268 
-0.000000 -0.112575 
-0.009313 -0.088212 
0.000061 -0.103461 
0.003577 -0.092480 
0.000975 -0.111492 
0.000555 -0.113840 
-0.000000 -0.111464 
-0.000454 -0.111209 
0.000410 -0.113965 
-0.000282 -0.113822 
-0.000000 -0.114618 
0.000410 -0.114418 
0.000576 -0.113582 
0.002521 -0.099509 
0.001430 -0.109418 
0.000518 -0.106331 
0.002036 -0.100000 
0.000609 -0.105752 
-0.003577 -0.092480 
-0.000061 -0.103461 
0.009313 -0.088212 
-0.000717 -0.109268 
-0.000877 -0.111758 
-0.007250 -0.131510 
-0.004690 -0.118681 
-0.020233 -0.131063 
0.002730 -0.105771 
0.004535 -0.106186 
0.005740 -0.111861 
-0.019471 -0.091228 
-0.000929 -0.099427 
-0.000592 -0.077893 
-0.000555 -0.113840 
-0.000975 -0.111492 
-0.000576 -0.113582 
-0.000410 -0.114418 
0.000282 -0.113822 
-0.000410 -0.113965 
0.000454 -0.111209 
-0.002521 -0.099509 
-0.000518 -0.106331 
-0.001430 -0.109418 
-0.009125 -0.141711 
0.001835 -0.130162 
0.005361 -0.125103 
0.005646 -0.127898 
0.003875 -0.131872 
0.006454 -0.120640 
0.004944 -0.115601 
-0.012336 -0.106992 
-0.006988 -0.112919 
-0.009327 -0.109076 
-0.004007 -0.113758 
-0.005212 -0.114089 
-0.007948 -0.108953 
0.000682 -0.120280 
-0.001896 -0.117789 
0.002469 -0.121785 
-0.001856 -0.111689 
-0.001597 -0.107100 
0.001571 -0.114747 
-0.000822 -0.114136 
-0.004672 -0.107881 
-0.002572 -0.112156 
-0.003214 -0.112913 
0.003188 -0.120097 
-0.000313 -0.116505 
0.002793 -0.117144 
-0.020563 -0.095865 
-0.017512 -0.099871 
-0.026055 -0.081298 
-0.022213 -0.091366 
-0.029966 -0.078803 
-0.014568 -0.101686 
-0.011809 -0.102114 
-0.016503 -0.019870 
-0.025609 -0.039216 
-0.024131 -0.026637 
-0.019069 -0.068951 
-0.023437 -0.054422 
-0.018420 -0.053611 
-0.033869 -0.056650 
-0.028802 -0.055581 
-0.028513 -0.069464 
-0.004531 -0.100802 
-0.002272 -0.100493 
-0.009246 -0.101826 
-0.006839 -0.101295 
-0.010105 -0.081258 
-0.008743 -0.092408 
-0.013833 -0.081761 
-0.021925 -0.082170 
-0.017796 -0.082162 
-0.015217 -0.093202 
0.000000 0.000000 
-0.011942 -0.018453 
-0.006552 -0.018196 
-0.008894 -0.018203 
0.000000 0.000000 
-0.015166 -0.036438 
-0.013958 -0.053090 
0.000000 -0.018243 
-0.001432 -0.018272 
0.000000 0.000000 
-0.003162 -0.052333 
-0.002510 -0.035844 
0.000000 -0.052235 
0.000000 0.000000 
-0.002947 -0.018263 
-0.004621 -0.018233 
-0.002854 -0.091614 
-0.000000 -0.100417 
-0.010625 -0.067958 
-0.006601 -0.080816 
0.000000 -0.080385 
-0.003261 -0.080515 
-0.003393 -0.067339 
-0.008026 -0.035991 
-0.006454 -0.052496 
-0.010009 -0.052739 
0.000000 0.000000 
0.001432 -0.018272 
0.004621 -0.018233 
0.002947 -0.018263 
0.000000 0.000000 
0.002510 -0.035844 
0.003162 -0.052333 
0.016503 -0.019870 
0.011942 -0.018453 
0.000000 0.000000 
0.013958 -0.053090 
0.015166 -0.036438 
0.018420 -0.053611 
0.000000 0.000000 
0.008894 -0.018203 
0.006552 -0.018196 
0.002854 -0.091614 
0.002272 -0.100493 
0.003393 -0.067339 
0.003261 -0.080515 
0.010105 -0.081258 
0.006601 -0.080816 
0.010625 -0.067958 
0.008026 -0.035991 
0.010009 -0.052739 
0.006454 -0.052496 
0.024131 -0.026637 
0.025609 -0.039216 
0.028513 -0.069464 
0.028802 -0.055581 
0.033869 -0.056650 
0.023437 -0.054422 
0.019069 -0.068951 
0.012336 -0.106992 
0.017512 -0.099871 
0.020563 -0.095865 
0.011809 -0.102114 
0.014568 -0.101686 
0.007948 -0.108953 
0.029966 -0.078803 
0.022213 -0.091366 
0.026055 -0.081298 
0.004531 -0.100802 
0.001597 -0.107100 
0.013833 -0.081761 
0.008743 -0.092408 
0.004672 -0.107881 
0.006839 -0.101295 
0.009246 -0.101826 
0.021925 -0.082170 
0.015217 -0.093202 
0.017796 -0.082162 
0.009327 -0.109076 
0.006988 -0.112919 
-0.002469 -0.121785 
0.001896 -0.117789 
-0.000682 -0.120280 
0.005212 -0.114089 
0.004007 -0.113758 
-0.001835 -0.130162 
0.009125 -0.141711 
-0.004944 -0.115601 
-0.006454 -0.120640 
-0.003875 -0.131872 
-0.005646 -0.127898 
-0.005361 -0.125103 
0.001856 -0.111689 
0.003214 -0.112913 
0.002572 -0.112156 
0.000822 -0.114136 
-0.001571 -0.114747 
-0.003188 -0.120097 
-0.002793 -0.117144 
0.000313 -0.116505 
0.020363 -0.136746 
0.013556 -0.131569 
0.014193 -0.137017 
0.011799 -0.117910 
0.012836 -0.125433 
0.020482 -0.124547 
0.000915 -0.125617 
0.006132 -0.125696 
-0.000358 -0.119214 
0.002636 -0.064353 
0.004355 -0.080078 
0.015303 -0.070665 
-0.002585 -0.094029 
-0.000410 -0.087567 
-0.000618 -0.087861 
0.020822 -0.105745 
0.007577 -0.095806 
0.010136 -0.108290 
-0.004380 -0.111097 
-0.004500 -0.108095 
-0.002877 -0.109239 
-0.004367 -0.113214 
-0.005457 -0.109228 
-0.005809 -0.114813 
-0.002285 -0.101255 
-0.004290 -0.104280 
-0.003704 -0.099601 
0.002887 -0.110005 
-0.002642 -0.102872 
-0.001666 -0.111588 
-0.000000 -0.103263 
-0.000745 -0.103268 
-0.000944 -0.100000 
0.000031 -0.108184 
-0.000357 -0.106006 
-0.000000 -0.108340 
-0.003465 -0.100000 
-0.001506 -0.103203 
-0.002251 -0.103001 
0.000392 -0.113256 
0.000446 -0.112356 
-0.000000 -0.113433 
0.001309 -0.108072 
0.000909 -0.110593 
0.001423 -0.109439 
-0.000000 -0.111487 
0.000433 -0.111248 
0.000304 -0.109889 
-0.006240 -0.071239 
0.000062 -0.090514 
0.004383 -0.076262 
-0.002658 -0.102178 
-0.002106 -0.098847 
-0.008220 -0.097540 
0.002797 -0.101036 
0.001546 -0.099648 
0.001590 -0.104646 
0.000207 -0.107707 
0.000683 -0.106671 
-0.000577 -0.105093 
0.000624 -0.109537 
0.000489 -0.111465 
-0.000000 -0.109564 
0.000756 -0.113818 
0.000736 -0.112907 
0.001053 -0.112941 
-0.000000 -0.112890 
0.000377 -0.112896 
0.000293 -0.113865 
-0.001482 -0.111177 
-0.000501 -0.112803 
-0.001319 -0.112973 
0.000426 -0.113350 
0.000089 -0.112981 
0.000251 -0.111675 
0.000434 -0.114130 
0.000157 -0.113808 
0.000564 -0.114137 
-0.000000 -0.114485 
0.000261 -0.114403 
0.000320 -0.113949 
0.000243 -0.114409 
0.000233 -0.114573 
-0.000000 -0.114428 
0.000702 -0.113019 
0.000458 -0.114151 
0.000533 -0.113775 
0.000561 -0.114224 
0.000484 -0.114195 
0.000443 -0.114330 
0.003979 -0.083450 
0.002648 -0.103121 
0.003516 -0.095779 
0.002513 -0.090351 
0.001098 -0.096333 
0.000735 -0.112766 
0.000973 -0.111000 
0.000962 -0.111991 
0.001243 -0.110769 
0.001867 -0.107720 
-0.001339 -0.108679 
-0.000049 -0.101335 
-0.000865 -0.105423 
-0.000117 -0.109046 
0.000648 -0.109936 
0.001987 -0.105496 
0.001254 -0.107836 
0.001429 -0.103113 
0.000944 -0.100000 
0.000745 -0.103268 
0.002251 -0.103001 
0.001506 -0.103203 
0.003465 -0.100000 
0.000357 -0.106006 
-0.000031 -0.108184 
-0.004383 -0.076262 
-0.000062 -0.090514 
0.006240 -0.071239 
-0.001590 -0.104646 
-0.001546 -0.099648 
-0.002797 -0.101036 
0.008220 -0.097540 
0.002106 -0.098847 
0.002658 -0.102178 
-0.000446 -0.112356 
-0.000392 -0.113256 
-0.000304 -0.109889 
-0.000433 -0.111248 
-0.001423 -0.109439 
-0.000909 -0.110593 
-0.001309 -0.108072 
0.000577 -0.105093 
-0.000683 -0.106671 
-0.000207 -0.107707 
-0.014193 -0.137017 
-0.013556 -0.131569 
-0.020363 -0.136746 
0.000358 -0.119214 
-0.006132 -0.125696 
-0.000915 -0.125617 
-0.020482 -0.124547 
-0.012836 -0.125433 
-0.011799 -0.117910 
0.002877 -0.109239 
0.004500 -0.108095 
0.004380 -0.111097 
0.003704 -0.099601 
0.004290 -0.104280 
0.002285 -0.101255 
0.005809 -0.114813 
0.005457 -0.109228 
0.004367 -0.113214 
-0.015303 -0.070665 
-0.004355 -0.080078 
-0.002636 -0.064353 
-0.010136 -0.108290 
-0.007577 -0.095806 
-0.020822 -0.105745 
0.000618 -0.087861 
0.000410 -0.087567 
0.002585 -0.094029 
0.001666 -0.111588 
0.002642 -0.102872 
-0.002887 -0.110005 
-0.000489 -0.111465 
-0.000624 -0.109537 
-0.000293 -0.113865 
-0.000377 -0.112896 
-0.001053 -0.112941 
-0.000736 -0.112907 
-0.000756 -0.113818 
-0.000320 -0.113949 
-0.000261 -0.114403 
-0.000533 -0.113775 
-0.000458 -0.114151 
-0.000702 -0.113019 
-0.000233 -0.114573 
-0.000243 -0.114409 
0.001319 -0.112973 
0.000501 -0.112803 
0.001482 -0.111177 
-0.000564 -0.114137 
-0.000157 -0.113808 
-0.000434 -0.114130 
-0.000251 -0.111675 
-0.000089 -0.112981 
-0.000426 -0.113350 
-0.000443 -0.114330 
-0.000484 -0.114195 
-0.000561 -0.114224 
-0.003979 -0.083450 
-0.001098 -0.096333 
-0.002513 -0.090351 
-0.003516 -0.095779 
-0.002648 -0.103121 
0.001339 -0.108679 
-0.000648 -0.109936 
0.000117 -0.109046 
0.000865 -0.105423 
0.000049 -0.101335 
-0.000735 -0.112766 
-0.001867 -0.107720 
-0.001243 -0.110769 
-0.000962 -0.111991 
-0.000973 -0.111000 
-0.001429 -0.103113 
-0.001254 -0.107836 
-0.001987 -0.105496 
-0.014932 -0.142517 
-0.008180 -0.136656 
0.000897 -0.134207 
-0.003030 -0.135678 
-0.004076 -0.140026 
-0.002032 -0.130996 
0.002763 -0.125375 
0.004665 -0.126059 
0.005211 -0.128247 
0.004217 -0.128863 
0.006351 -0.124038 
0.005918 -0.126560 
0.005765 -0.123311 
0.002464 -0.134857 
0.004891 -0.130377 
0.003510 -0.132395 
0.005540 -0.114000 
0.003950 -0.113346 
0.005595 -0.120218 
0.006357 -0.116257 
0.005587 -0.118255 
0.006234 -0.117432 
0.006479 -0.120903 
0.004349 -0.129109 
0.006180 -0.124600 
0.005057 -0.125036 
-0.013647 -0.105265 
-0.010859 -0.108446 
-0.012164 -0.106014 
-0.008557 -0.111106 
-0.009652 -0.110098 
-0.011105 -0.108100 
-0.006559 -0.111986 
-0.008095 -0.111404 
-0.005396 -0.114163 
-0.005302 -0.111334 
-0.005967 -0.111611 
-0.007058 -0.108771 
-0.002900 -0.116169 
-0.004545 -0.114042 
-0.002426 -0.115885 
-0.008912 -0.108966 
-0.006721 -0.111737 
-0.007581 -0.111609 
0.002446 -0.123060 
0.001699 -0.121554 
0.003440 -0.123831 
-0.002815 -0.116752 
-0.000422 -0.119205 
-0.001476 -0.117539 
0.001013 -0.119798 
0.000416 -0.119884 
-0.001185 -0.118093 
-0.006026 -0.113764 
-0.003552 -0.116087 
-0.004386 -0.115475 
-0.001264 -0.109564 
-0.000802 -0.107071 
-0.001312 -0.113024 
-0.001436 -0.111562 
-0.002380 -0.107207 
-0.001884 -0.109656 
-0.002478 -0.109811 
0.002280 -0.113638 
0.000881 -0.114107 
-0.000680 -0.114500 
0.000201 -0.114609 
0.000629 -0.115201 
-0.000171 -0.114266 
-0.000894 -0.113925 
-0.005438 -0.108186 
-0.004142 -0.110633 
-0.004703 -0.110988 
-0.003047 -0.110028 
-0.003597 -0.110305 
-0.003913 -0.107606 
-0.001803 -0.114265 
-0.002891 -0.112503 
-0.001724 -0.113795 
-0.001504 -0.113181 
-0.001635 -0.113433 
-0.002233 -0.111885 
0.004160 -0.123517 
0.001359 -0.119162 
0.002969 -0.121220 
0.004591 -0.122382 
0.004717 -0.120679 
-0.003575 -0.113352 
-0.000365 -0.115722 
-0.001915 -0.114818 
-0.002109 -0.115391 
-0.000409 -0.117268 
0.003229 -0.114893 
0.004522 -0.118674 
0.004012 -0.116649 
0.002246 -0.115783 
0.001036 -0.116051 
0.001459 -0.118191 
0.001335 -0.117093 
0.003123 -0.118657 
-0.017823 -0.099442 
-0.016376 -0.101865 
-0.021575 -0.094222 
-0.019032 -0.098192 
-0.023197 -0.092025 
-0.014963 -0.103593 
-0.013602 -0.104739 
-0.029629 -0.074936 
-0.028051 -0.080310 
-0.031652 -0.073785 
-0.020449 -0.092316 
-0.024270 -0.086539 
-0.022364 -0.087330 
-0.027952 -0.083507 
-0.026139 -0.085301 
-0.023961 -0.089931 
-0.009915 -0.105790 
-0.008814 -0.105669 
-0.012305 -0.105416 
-0.011077 -0.105734 
-0.015132 -0.097837 
-0.013164 -0.102028 
-0.016710 -0.097513 
-0.019944 -0.095802 
-0.018317 -0.096866 
-0.016020 -0.101001 
-0.011346 -0.010773 
-0.020033 -0.022234 
-0.016768 -0.015995 
-0.022617 -0.038003 
-0.022016 -0.029929 
-0.019023 -0.028627 
-0.028776 -0.035385 
-0.025388 -0.032131 
-0.028709 -0.040931 
-0.016825 -0.068688 
-0.019028 -0.061537 
-0.016725 -0.061249 
-0.023929 -0.062195 
-0.021437 -0.061856 
-0.021389 -0.069198 
-0.019553 -0.045575 
-0.020863 -0.053972 
-0.022137 -0.046084 
-0.033710 -0.062734 
-0.031435 -0.062919 
-0.030791 -0.069151 
-0.030602 -0.048896 
-0.031430 -0.056191 
-0.033254 -0.050133 
-0.026152 -0.069513 
-0.028994 -0.062801 
-0.026468 -0.062529 
-0.024894 -0.046796 
-0.026105 -0.054967 
-0.027756 -0.047743 
-0.001942 -0.104079 
-0.000985 -0.104035 
-0.003849 -0.104376 
-0.002895 -0.104197 
-0.003869 -0.096470 
-0.003398 -0.100619 
-0.005172 -0.096654 
-0.007764 -0.105442 
-0.006754 -0.105164 
-0.009220 -0.097403 
-0.008026 -0.101569 
-0.010636 -0.097649 
-0.005771 -0.104876 
-0.004806 -0.104607 
-0.012416 -0.075108 
-0.011938 -0.081510 
-0.014416 -0.075360 
-0.007228 -0.092157 
-0.009510 -0.087111 
-0.007850 -0.086867 
-0.012975 -0.087614 
-0.011217 -0.087368 
-0.010297 -0.092668 
-0.005676 -0.101032 
-0.007841 -0.097138 
-0.006494 -0.096881 
-0.027498 -0.075617 
-0.023060 -0.076053 
-0.025295 -0.075955 
-0.024004 -0.081884 
-0.020444 -0.087773 
-0.016489 -0.075608 
-0.014783 -0.087822 
-0.015787 -0.081989 
-0.018631 -0.075829 
-0.020829 -0.075991 
-0.010505 -0.102025 
-0.016937 -0.093150 
-0.013591 -0.097921 
-0.012092 -0.097838 
-0.013534 -0.093104 
-0.019849 -0.082241 
-0.016637 -0.087952 
-0.018528 -0.087956 
0.000000 0.000000 
-0.008958 -0.009568 
-0.006352 -0.009059 
-0.007459 -0.009187 
0.000000 0.000000 
-0.013937 -0.018879 
-0.016486 -0.027935 
-0.003463 -0.009091 
-0.004051 -0.009061 
0.000000 0.000000 
-0.010713 -0.027289 
-0.007659 -0.018188 
-0.009184 -0.027241 
0.000000 0.000000 
-0.004709 -0.009036 
-0.005462 -0.009027 
-0.016119 -0.053323 
-0.014534 -0.060992 
-0.017393 -0.036734 
-0.017157 -0.045218 
-0.012892 -0.044779 
-0.014943 -0.044965 
-0.013148 -0.036253 
-0.010299 -0.018272 
-0.012407 -0.027386 
-0.014310 -0.027573 
0.000000 -0.009190 
-0.000372 -0.009202 
0.000000 0.000000 
-0.001004 -0.027150 
-0.000710 -0.018264 
0.000000 -0.027121 
0.000000 0.000000 
-0.000752 -0.009203 
-0.001144 -0.009197 
-0.001656 -0.059978 
-0.001573 -0.052277 
0.000000 -0.059933 
-0.003804 -0.035874 
-0.002891 -0.044250 
-0.004377 -0.044301 
0.000000 -0.044167 
-0.001437 -0.044206 
-0.001247 -0.035813 
0.000000 0.000000 
-0.002438 -0.009146 
-0.002929 -0.009120 
-0.001552 -0.009185 
-0.001982 -0.009168 
0.000000 0.000000 
-0.005289 -0.027195 
-0.003758 -0.018250 
-0.004151 -0.027189 
-0.002022 -0.027168 
-0.003067 -0.027180 
-0.002175 -0.018271 
-0.001142 -0.100427 
-0.000000 -0.104060 
-0.004291 -0.091750 
-0.002578 -0.096336 
-0.000000 -0.096231 
-0.001291 -0.096257 
-0.001426 -0.091529 
-0.012603 -0.068183 
-0.010489 -0.074866 
-0.006831 -0.074453 
-0.008630 -0.074645 
-0.008727 -0.067758 
-0.008328 -0.081023 
-0.006231 -0.086650 
0.000000 -0.074046 
-0.001678 -0.074091 
-0.001690 -0.067262 
-0.001540 -0.086248 
-0.001626 -0.080428 
0.000000 -0.086208 
-0.005124 -0.067447 
-0.003367 -0.074174 
-0.005081 -0.074295 
-0.004646 -0.086471 
-0.004915 -0.080645 
-0.003085 -0.086336 
-0.005547 -0.018214 
-0.006545 -0.035945 
-0.006495 -0.027203 
-0.007786 -0.027216 
-0.009605 -0.036051 
-0.003328 -0.060045 
-0.006778 -0.060254 
-0.005030 -0.060137 
-0.004784 -0.052406 
-0.005912 -0.044362 
-0.012454 -0.060765 
-0.010984 -0.044638 
-0.011926 -0.052899 
-0.010476 -0.060568 
-0.008589 -0.060397 
-0.007512 -0.044436 
-0.008190 -0.052606 
-0.009197 -0.044526 
0.000000 0.000000 
0.000372 -0.009202 
0.001144 -0.009197 
0.000752 -0.009203 
0.000000 0.000000 
0.000710 -0.018264 
0.001004 -0.027150 
0.002929 -0.009120 
0.002438 -0.009146 
0.000000 0.000000 
0.004151 -0.027189 
0.003758 -0.018250 
0.005289 -0.027195 
0.000000 0.000000 
0.001982 -0.009168 
0.001552 -0.009185 
0.001573 -0.052277 
0.001656 -0.059978 
0.001247 -0.035813 
0.001437 -0.044206 
0.004377 -0.044301 
0.002891 -0.044250 
0.003804 -0.035874 
0.002175 -0.018271 
0.003067 -0.027180 
0.002022 -0.027168 
0.011346 -0.010773 
0.008958 -0.009568 
0.000000 0.000000 
0.016486 -0.027935 
0.013937 -0.018879 
0.019023 -0.028627 
0.000000 0.000000 
0.007459 -0.009187 
0.006352 -0.009059 
0.014534 -0.060992 
0.016119 -0.053323 
0.016725 -0.061249 
0.013148 -0.036253 
0.014943 -0.044965 
0.012892 -0.044779 
0.019553 -0.045575 
0.017157 -0.045218 
0.017393 -0.036734 
0.000000 0.000000 
0.004051 -0.009061 
0.003463 -0.009091 
0.005462 -0.009027 
0.004709 -0.009036 
0.000000 0.000000 
0.009184 -0.027241 
0.007659 -0.018188 
0.010713 -0.027289 
0.014310 -0.027573 
0.012407 -0.027386 
0.010299 -0.018272 
0.001142 -0.100427 
0.000985 -0.104035 
0.001426 -0.091529 
0.001291 -0.096257 
0.003869 -0.096470 
0.002578 -0.096336 
0.004291 -0.091750 
0.001690 -0.067262 
0.001678 -0.074091 
0.005081 -0.074295 
0.003367 -0.074174 
0.005124 -0.067447 
0.001626 -0.080428 
0.001540 -0.086248 
0.012416 -0.075108 
0.010489 -0.074866 
0.012603 -0.068183 
0.006231 -0.086650 
0.008328 -0.081023 
0.007850 -0.086867 
0.008727 -0.067758 
0.008630 -0.074645 
0.006831 -0.074453 
0.003085 -0.086336 
0.004915 -0.080645 
0.004646 -0.086471 
0.005547 -0.018214 
0.009605 -0.036051 
0.007786 -0.027216 
0.006495 -0.027203 
0.006545 -0.035945 
0.012454 -0.060765 
0.008589 -0.060397 
0.010476 -0.060568 
0.011926 -0.052899 
0.010984 -0.044638 
0.003328 -0.060045 
0.005912 -0.044362 
0.004784 -0.052406 
0.005030 -0.060137 
0.006778 -0.060254 
0.009197 -0.044526 
0.008190 -0.052606 
0.007512 -0.044436 
0.016768 -0.015995 
0.020033 -0.022234 
0.028709 -0.040931 
0.025388 -0.032131 
0.028776 -0.035385 
0.022016 -0.029929 
0.022617 -0.038003 
0.030791 -0.069151 
0.031435 -0.062919 
0.033710 -0.062734 
0.026468 -0.062529 
0.028994 -0.062801 
0.026152 -0.069513 
0.033254 -0.050133 
0.031430 -0.056191 
0.030602 -0.048896 
0.019028 -0.061537 
0.016825 -0.068688 
0.022137 -0.046084 
0.020863 -0.053972 
0.021389 -0.069198 
0.021437 -0.061856 
0.023929 -0.062195 
0.027756 -0.047743 
0.026105 -0.054967 
0.024894 -0.046796 
0.013647 -0.105265 
0.016376 -0.101865 
0.017823 -0.099442 
0.013602 -0.104739 
0.014963 -0.103593 
0.011105 -0.108100 
0.023197 -0.092025 
0.019032 -0.098192 
0.021575 -0.094222 
0.008814 -0.105669 
0.009915 -0.105790 
0.007058 -0.108771 
0.016710 -0.097513 
0.013164 -0.102028 
0.015132 -0.097837 
0.008912 -0.108966 
0.011077 -0.105734 
0.012305 -0.105416 
0.031652 -0.073785 
0.028051 -0.080310 
0.029629 -0.074936 
0.023961 -0.089931 
0.026139 -0.085301 
0.027952 -0.083507 
0.022364 -0.087330 
0.024270 -0.086539 
0.020449 -0.092316 
0.016020 -0.101001 
0.018317 -0.096866 
0.019944 -0.095802 
0.001942 -0.104079 
0.000802 -0.107071 
0.005172 -0.096654 
0.003398 -0.100619 
0.002380 -0.107207 
0.002895 -0.104197 
0.003849 -0.104376 
0.014416 -0.075360 
0.011938 -0.081510 
0.010297 -0.092668 
0.011217 -0.087368 
0.012975 -0.087614 
0.009510 -0.087111 
0.007228 -0.092157 
0.005438 -0.108186 
0.006754 -0.105164 
0.007764 -0.105442 
0.004806 -0.104607 
0.005771 -0.104876 
0.003913 -0.107606 
0.010636 -0.097649 