# vtk DataFile Version 2.0
Unstructured Grid Example
ASCII
DATASET UNSTRUCTURED_GRID

POINTS 16641 float
0.018314 -0.164611 0.000000 
0.981686 -0.164611 0.000000 
1.000000 1.000000 0.000000 
0.000000 1.000000 0.000000 
0.500000 -0.100000 0.000000 
0.982141 0.383238 0.000000 
0.500000 1.000000 0.000000 
0.017859 0.383238 0.000000 
0.500000 0.384161 0.000000 
0.261818 -0.100000 0.000000 
0.500000 0.129005 0.000000 
0.246335 0.118467 0.000000 
0.738182 -0.100000 0.000000 
0.753665 0.118467 0.000000 
0.999611 0.102723 0.000000 
0.743516 0.379602 0.000000 
0.963561 0.674722 0.000000 
0.734052 0.675532 0.000000 
0.750000 1.000000 0.000000 
0.500000 0.677548 0.000000 
0.250000 1.000000 0.000000 
0.265948 0.675532 0.000000 
0.036439 0.674722 0.000000 
0.256484 0.379602 0.000000 
0.000389 0.102723 0.000000 
0.144053 -0.147272 0.000000 
0.248250 0.000737 0.000000 
0.125076 -0.021685 0.000000 
0.500000 0.012409 0.000000 
0.375481 0.010964 0.000000 
0.378819 -0.100000 0.000000 
0.374767 0.250173 0.000000 
0.373365 0.126647 0.000000 
0.500000 0.252164 0.000000 
0.621181 -0.100000 0.000000 
0.624519 0.010964 0.000000 
0.874924 -0.021685 0.000000 
0.751750 0.000737 0.000000 
0.855947 -0.147272 0.000000 
0.626635 0.126647 0.000000 
0.625233 0.250173 0.000000 
0.995983 -0.035164 0.000000 
0.878318 0.107100 0.000000 
0.863576 0.377792 0.000000 
0.872784 0.239781 0.000000 
0.993006 0.242321 0.000000 
0.749916 0.244874 0.000000 
0.622117 0.382806 0.000000 
0.971135 0.526935 0.000000 
0.854406 0.522106 0.000000 
0.852994 0.834457 0.000000 
0.848908 0.673907 0.000000 
0.964986 0.827963 0.000000 
0.737241 0.523063 0.000000 
0.619019 0.525160 0.000000 
0.875000 1.000000 0.000000 
0.737610 0.835978 0.000000 
0.500000 0.836613 0.000000 
0.619424 0.836457 0.000000 
0.625000 1.000000 0.000000 
0.617589 0.676985 0.000000 
0.500000 0.526086 0.000000 
0.375000 1.000000 0.000000 
0.380576 0.836457 0.000000 
0.147006 0.834457 0.000000 
0.262390 0.835978 0.000000 
0.125000 1.000000 0.000000 
0.382411 0.676985 0.000000 
0.380981 0.525160 0.000000 
0.035014 0.827963 0.000000 
0.151092 0.673907 0.000000 
0.136424 0.377792 0.000000 
0.145594 0.522106 0.000000 
0.028865 0.526935 0.000000 
0.262759 0.523063 0.000000 
0.377883 0.382806 0.000000 
0.006994 0.242321 0.000000 
0.127216 0.239781 0.000000 
0.121682 0.107100 0.000000 
0.004017 -0.035164 0.000000 
0.250084 0.244874 0.000000 
0.080591 -0.156924 0.000000 
0.132520 -0.085271 0.000000 
0.071781 -0.094188 0.000000 
0.252677 -0.053494 0.000000 
0.191903 -0.071368 0.000000 
0.207828 -0.131239 0.000000 
0.183462 0.050279 0.000000 
0.185727 -0.010811 0.000000 
0.246377 0.058402 0.000000 
0.500000 -0.044284 0.000000 
0.438858 -0.044396 0.000000 
0.439295 -0.100000 0.000000 
0.437116 0.069596 0.000000 
0.437918 0.012110 0.000000 
0.500000 0.070072 0.000000 
0.318976 -0.100000 0.000000 
0.377656 -0.044858 0.000000 
0.316012 -0.046404 0.000000 
0.438075 0.316542 0.000000 
0.437366 0.251659 0.000000 
0.500000 0.316970 0.000000 
0.309784 0.123351 0.000000 
0.373733 0.187331 0.000000 
0.310596 0.184475 0.000000 
0.500000 0.189591 0.000000 
0.436888 0.189031 0.000000 
0.436768 0.128442 0.000000 
0.312220 0.007927 0.000000 
0.373907 0.067952 0.000000 
0.310199 0.064470 0.000000 
0.560705 -0.100000 0.000000 
0.561142 -0.044396 0.000000 
0.683988 -0.046404 0.000000 
0.622344 -0.044858 0.000000 
0.681024 -0.100000 0.000000 
0.562082 0.012110 0.000000 
0.562884 0.069596 0.000000 
0.928219 -0.094188 0.000000 
0.867480 -0.085271 0.000000 
0.919409 -0.156924 0.000000 
0.753623 0.058402 0.000000 
0.814273 -0.010811 0.000000 
0.816538 0.050279 0.000000 
0.792172 -0.131239 0.000000 
0.808097 -0.071368 0.000000 
0.747323 -0.053494 0.000000 
0.562634 0.251659 0.000000 
0.561925 0.316542 0.000000 
0.563232 0.128442 0.000000 
0.563112 0.189031 0.000000 
0.689404 0.184475 0.000000 
0.626267 0.187331 0.000000 
0.690216 0.123351 0.000000 
0.687780 0.007927 0.000000 
0.689801 0.064470 0.000000 
0.626093 0.067952 0.000000 
0.989391 -0.101389 0.000000 
0.935408 -0.029487 0.000000 
0.939349 0.103404 0.000000 
0.939058 0.036507 0.000000 
0.999461 0.033303 0.000000 
0.878160 0.042367 0.000000 
0.816458 0.112599 0.000000 
0.923028 0.379152 0.000000 
0.928358 0.308834 0.000000 
0.987813 0.312518 0.000000 
0.807876 0.309148 0.000000 
0.868386 0.308061 0.000000 
0.803738 0.378215 0.000000 
0.997173 0.172434 0.000000 
0.933234 0.239517 0.000000 
0.937125 0.171070 0.000000 
0.623776 0.315299 0.000000 
0.561103 0.383825 0.000000 
0.752303 0.180645 0.000000 
0.687713 0.247814 0.000000 
0.682951 0.381293 0.000000 
0.685463 0.313402 0.000000 
0.746871 0.311176 0.000000 
0.876288 0.172837 0.000000 
0.811655 0.241916 0.000000 
0.814666 0.176431 0.000000 
0.976445 0.454641 0.000000 
0.917691 0.450620 0.000000 
0.908694 0.597669 0.000000 
0.912761 0.523399 0.000000 
0.966657 0.600250 0.000000 
0.858779 0.449094 0.000000 
0.799629 0.449204 0.000000 
0.918846 0.915688 0.000000 
0.909129 0.832151 0.000000 
0.973047 0.907977 0.000000 
0.791654 0.674663 0.000000 
0.849203 0.753053 0.000000 
0.792284 0.754140 0.000000 
0.962605 0.750519 0.000000 
0.905750 0.751651 0.000000 
0.906074 0.673650 0.000000 
0.620463 0.452756 0.000000 
0.560280 0.453590 0.000000 
0.740190 0.450212 0.000000 
0.680456 0.451537 0.000000 
0.676677 0.599132 0.000000 
0.678265 0.524159 0.000000 
0.735048 0.598183 0.000000 
0.850919 0.596984 0.000000 
0.793099 0.597345 0.000000 
0.795937 0.522216 0.000000 
0.937500 1.000000 0.000000 
0.861660 0.917480 0.000000 
0.742823 0.917947 0.000000 
0.802673 0.917866 0.000000 
0.812500 1.000000 0.000000 
0.795775 0.835482 0.000000 
0.734750 0.754935 0.000000 
0.500000 0.917979 0.000000 
0.560953 0.917975 0.000000 
0.562500 1.000000 0.000000 
0.559092 0.756225 0.000000 
0.559787 0.836571 0.000000 
0.500000 0.756318 0.000000 
0.687500 1.000000 0.000000 
0.621811 0.917969 0.000000 
0.682475 0.917963 0.000000 
0.559565 0.525844 0.000000 
0.500000 0.453882 0.000000 
0.676018 0.676339 0.000000 
0.617990 0.599956 0.000000 
0.500000 0.600703 0.000000 
0.559060 0.600508 0.000000 
0.558871 0.677401 0.000000 
0.678756 0.836267 0.000000 
0.618020 0.755958 0.000000 
0.676623 0.755528 0.000000 
0.437500 1.000000 0.000000 
0.439047 0.917975 0.000000 
0.317525 0.917963 0.000000 
0.378189 0.917969 0.000000 
0.312500 1.000000 0.000000 
0.440213 0.836571 0.000000 
0.440908 0.756225 0.000000 
0.081154 0.915688 0.000000 
0.138340 0.917480 0.000000 
0.062500 1.000000 0.000000 
0.265250 0.754935 0.000000 
0.204225 0.835482 0.000000 
0.207716 0.754140 0.000000 
0.187500 1.000000 0.000000 
0.197327 0.917866 0.000000 
0.257177 0.917947 0.000000 
0.440435 0.525844 0.000000 
0.439720 0.453590 0.000000 
0.441129 0.677401 0.000000 
0.440940 0.600508 0.000000 
0.323323 0.599132 0.000000 
0.382010 0.599956 0.000000 
0.323982 0.676339 0.000000 
0.321244 0.836267 0.000000 
0.323377 0.755528 0.000000 
0.381980 0.755958 0.000000 
0.026953 0.907977 0.000000 
0.090871 0.832151 0.000000 
0.093926 0.673650 0.000000 
0.094250 0.751651 0.000000 
0.037395 0.750519 0.000000 
0.150797 0.753053 0.000000 
0.208346 0.674663 0.000000 
0.076972 0.379152 0.000000 
0.082309 0.450620 0.000000 
0.023555 0.454641 0.000000 
0.200371 0.449204 0.000000 
0.141221 0.449094 0.000000 
0.196262 0.378215 0.000000 
0.033343 0.600250 0.000000 
0.087239 0.523399 0.000000 
0.091306 0.597669 0.000000 
0.379537 0.452756 0.000000 
0.438897 0.383825 0.000000 
0.264952 0.598183 0.000000 
0.321735 0.524159 0.000000 
0.317049 0.381293 0.000000 
0.319544 0.451537 0.000000 
0.259810 0.450212 0.000000 
0.149081 0.596984 0.000000 
0.204063 0.522216 0.000000 
0.206901 0.597345 0.000000 
0.012187 0.312518 0.000000 
0.071642 0.308834 0.000000 
0.062875 0.171070 0.000000 
0.066766 0.239517 0.000000 
0.002827 0.172434 0.000000 
0.131614 0.308061 0.000000 
0.192124 0.309148 0.000000 
0.064592 -0.029487 0.000000 
0.010609 -0.101389 0.000000 
0.183542 0.112599 0.000000 
0.121840 0.042367 0.000000 
0.000539 0.033303 0.000000 
0.060942 0.036507 0.000000 
0.060651 0.103404 0.000000 
0.376224 0.315299 0.000000 
0.253129 0.311176 0.000000 
0.314537 0.313402 0.000000 
0.312287 0.247814 0.000000 
0.247697 0.180645 0.000000 
0.123712 0.172837 0.000000 
0.185334 0.176431 0.000000 
0.188345 0.241916 0.000000 
0.049332 -0.160808 0.000000 
0.076230 -0.125834 0.000000 
0.045315 -0.129584 0.000000 
0.137993 -0.116623 0.000000 
0.107169 -0.121662 0.000000 
0.112182 -0.152565 0.000000 
0.098090 -0.058192 0.000000 
0.102271 -0.090149 0.000000 
0.128201 -0.053554 0.000000 
0.256459 -0.078203 0.000000 
0.226617 -0.090166 0.000000 
0.238167 -0.117436 0.000000 
0.218621 -0.033652 0.000000 
0.221589 -0.062069 0.000000 
0.250067 -0.026941 0.000000 
0.176049 -0.140471 0.000000 
0.198088 -0.101700 0.000000 
0.168445 -0.110205 0.000000 
0.214571 0.084800 0.000000 
0.214749 0.054477 0.000000 
0.246156 0.088161 0.000000 
0.155292 -0.016605 0.000000 
0.184247 0.019609 0.000000 
0.153492 0.014706 0.000000 
0.247053 0.029234 0.000000 
0.215422 0.024620 0.000000 
0.216668 -0.004761 0.000000 
0.162396 -0.079139 0.000000 
0.188122 -0.041085 0.000000 
0.158143 -0.047875 0.000000 
0.500000 -0.072281 0.000000 
0.469581 -0.072291 0.000000 
0.469634 -0.100000 0.000000 
0.469216 -0.016097 0.000000 
0.469430 -0.044310 0.000000 
0.500000 -0.016050 0.000000 
0.409011 -0.100000 0.000000 
0.439179 -0.072327 0.000000 
0.408813 -0.072398 0.000000 
0.468457 0.099224 0.000000 
0.468579 0.069956 0.000000 
0.500000 0.099355 0.000000 
0.406771 0.011682 0.000000 
0.437471 0.040709 0.000000 
0.406091 0.040158 0.000000 
0.500000 0.041105 0.000000 
0.468758 0.041009 0.000000 
0.468979 0.012337 0.000000 
0.289637 -0.100000 0.000000 
0.318046 -0.073170 0.000000 
0.287699 -0.074224 0.000000 
0.378499 -0.072521 0.000000 
0.348250 -0.072741 0.000000 
0.348776 -0.100000 0.000000 
0.345397 -0.017923 0.000000 
0.346947 -0.045386 0.000000 
0.376564 -0.017049 0.000000 
0.438407 -0.016249 0.000000 
0.407540 -0.016541 0.000000 
0.408274 -0.044563 0.000000 
0.469233 0.350168 0.000000 
[...]
POINT_DATA 16641

SCALARS u_h float 2
LOOKUP_TABLE default
0.018314 -0.164611 
-0.018314 -0.164611 
0.000000 0.000000 
0.000000 0.000000 
-0.000000 -0.100000 
-0.017859 -0.116762 
0.000000 0.000000 
0.017859 -0.116762 
-0.000000 -0.115839 
0.011818 -0.100000 
-0.000000 -0.120995 
-0.003665 -0.131533 
-0.011818 -0.100000 
0.003665 -0.131533 
-0.000389 -0.147277 
-0.006484 -0.120398 
-0.036439 -0.075278 
-0.015948 -0.074468 
0.000000 0.000000 
-0.000000 -0.072452 
0.000000 0.000000 
0.015948 -0.074468 
0.036439 -0.075278 
0.006484 -0.120398 
0.000389 -0.147277 
0.019053 -0.147272 
-0.001750 -0.124263 
0.000076 -0.146685 
-0.000000 -0.112591 
0.000481 -0.114036 
0.003819 -0.100000 
-0.000233 -0.124827 
-0.001635 -0.123353 
-0.000000 -0.122836 
-0.003819 -0.100000 
-0.000481 -0.114036 
-0.000076 -0.146685 
0.001750 -0.124263 
-0.019053 -0.147272 
0.001635 -0.123353 
0.000233 -0.124827 
-0.004017 -0.160164 
0.003318 -0.142900 
-0.011424 -0.122208 
-0.002216 -0.135219 
-0.006994 -0.132679 
-0.000084 -0.130126 
-0.002883 -0.117194 
-0.028865 -0.098065 
-0.020594 -0.102894 
-0.022006 -0.040543 
-0.026092 -0.076093 
-0.035014 -0.047037 
-0.012759 -0.101937 
-0.005981 -0.099840 
0.000000 0.000000 
-0.012390 -0.039022 
-0.000000 -0.038387 
-0.005576 -0.038543 
0.000000 0.000000 
-0.007411 -0.073015 
-0.000000 -0.098914 
0.000000 0.000000 
0.005576 -0.038543 
0.022006 -0.040543 
0.012390 -0.039022 
0.000000 0.000000 
0.007411 -0.073015 
0.005981 -0.099840 
0.035014 -0.047037 
0.026092 -0.076093 
0.011424 -0.122208 
0.020594 -0.102894 
0.028865 -0.098065 
0.012759 -0.101937 
0.002883 -0.117194 
0.006994 -0.132679 
0.002216 -0.135219 
-0.003318 -0.142900 
0.004017 -0.160164 
0.000084 -0.130126 
0.018091 -0.156924 
0.007520 -0.147771 
0.009281 -0.156688 
0.002677 -0.115994 
0.004403 -0.133868 
0.020328 -0.131239 
-0.004038 -0.137221 
-0.001773 -0.135811 
-0.003623 -0.129098 
-0.000000 -0.106784 
0.001358 -0.106896 
0.001795 -0.100000 
-0.000384 -0.117904 
0.000418 -0.112890 
-0.000000 -0.117428 
0.006476 -0.100000 
0.002656 -0.107358 
0.003512 -0.108904 
0.000575 -0.120958 
-0.000134 -0.123341 
-0.000000 -0.120530 
-0.002716 -0.126649 
-0.001267 -0.125169 
-0.001904 -0.128025 
-0.000000 -0.122909 
-0.000612 -0.123469 
-0.000732 -0.121558 
-0.000280 -0.117073 
-0.001093 -0.119548 
-0.002301 -0.123030 
-0.001795 -0.100000 
-0.001358 -0.106896 
-0.003512 -0.108904 
-0.002656 -0.107358 
-0.006476 -0.100000 
-0.000418 -0.112890 
0.000384 -0.117904 
-0.009281 -0.156688 
-0.007520 -0.147771 
-0.018091 -0.156924 
0.003623 -0.129098 
0.001773 -0.135811 
0.004038 -0.137221 
-0.020328 -0.131239 
-0.004403 -0.133868 
-0.002677 -0.115994 
0.000134 -0.123341 
-0.000575 -0.120958 
0.000732 -0.121558 
0.000612 -0.123469 
0.001904 -0.128025 
0.001267 -0.125169 
0.002716 -0.126649 
0.000280 -0.117073 
0.002301 -0.123030 
0.001093 -0.119548 
-0.010609 -0.163889 
-0.002092 -0.154487 
0.001849 -0.146596 
0.001558 -0.150993 
-0.000539 -0.154197 
0.003160 -0.145133 
0.003958 -0.137401 
-0.014472 -0.120848 
-0.009142 -0.128666 
-0.012187 -0.124982 
-0.004624 -0.128352 
-0.006614 -0.129439 
-0.008762 -0.121785 
-0.002827 -0.140066 
-0.004266 -0.135483 
-0.000375 -0.141430 
-0.001224 -0.122201 
-0.001397 -0.116175 
0.002303 -0.131855 
0.000213 -0.127186 
-0.004549 -0.118707 
-0.002037 -0.124098 
-0.003129 -0.126324 
0.001288 -0.139663 
-0.000845 -0.133084 
0.002166 -0.136069 
-0.023555 -0.107859 
-0.019809 -0.111880 
-0.028806 -0.089831 
-0.024739 -0.101601 
-0.033343 -0.087250 
-0.016221 -0.113406 
-0.012871 -0.113296 
-0.018654 -0.021812 
-0.028371 -0.042849 
-0.026953 -0.029523 
-0.020846 -0.075337 
-0.025797 -0.059447 
-0.020216 -0.058360 
-0.037395 -0.061981 
-0.031750 -0.060849 
-0.031426 -0.076350 
-0.004537 -0.109744 
-0.002220 -0.108910 
-0.009810 -0.112288 
-0.007044 -0.110963 
-0.010823 -0.088368 
-0.009235 -0.100841 
-0.014952 -0.089317 
-0.024081 -0.090516 
-0.019401 -0.090155 
-0.016563 -0.102784 
0.000000 0.000000 
-0.013340 -0.020020 
-0.007177 -0.019553 
-0.009827 -0.019634 
0.000000 0.000000 
-0.016725 -0.039518 
-0.015250 -0.057565 
-0.000000 -0.019521 
-0.001547 -0.019525 
0.000000 0.000000 
-0.003408 -0.056275 
-0.002713 -0.038429 
-0.000000 -0.056182 
0.000000 0.000000 
-0.003189 -0.019531 
-0.005025 -0.019537 
-0.002935 -0.099156 
-0.000000 -0.108618 
-0.011482 -0.073661 
-0.007010 -0.087544 
-0.000000 -0.086797 
-0.003440 -0.086992 
-0.003629 -0.072599 
-0.008744 -0.038733 
-0.006980 -0.056542 
-0.010877 -0.056972 
0.000000 0.000000 
0.001547 -0.019525 
0.005025 -0.019537 
0.003189 -0.019531 
0.000000 0.000000 
0.002713 -0.038429 
0.003408 -0.056275 
0.018654 -0.021812 
0.013340 -0.020020 
0.000000 0.000000 
0.015250 -0.057565 
0.016725 -0.039518 
0.020216 -0.058360 
0.000000 0.000000 
0.009827 -0.019634 
0.007177 -0.019553 
0.002935 -0.099156 
0.002220 -0.108910 
0.003629 -0.072599 
0.003440 -0.086992 
0.010823 -0.088368 
0.007010 -0.087544 
0.011482 -0.073661 
0.008744 -0.038733 
0.010877 -0.056972 
0.006980 -0.056542 
0.026953 -0.029523 
0.028371 -0.042849 
0.031426 -0.076350 
0.031750 -0.060849 
0.037395 -0.061981 
0.025797 -0.059447 
0.020846 -0.075337 
0.014472 -0.120848 
0.019809 -0.111880 
0.023555 -0.107859 
0.012871 -0.113296 
0.016221 -0.113406 
0.008762 -0.121785 
0.033343 -0.087250 
0.024739 -0.101601 
0.028806 -0.089831 
0.004537 -0.109744 
0.001397 -0.116175 
0.014952 -0.089317 
0.009235 -0.100841 
0.004549 -0.118707 
0.007044 -0.110963 
0.009810 -0.112288 
0.024081 -0.090516 
0.016563 -0.102784 
0.019401 -0.090155 
0.012187 -0.124982 
0.009142 -0.128666 
0.000375 -0.141430 
0.004266 -0.135483 
0.002827 -0.140066 
0.006614 -0.129439 
0.004624 -0.128352 
0.002092 -0.154487 
0.010609 -0.163889 
-0.003958 -0.137401 
-0.003160 -0.145133 
0.000539 -0.154197 
-0.001558 -0.150993 
-0.001849 -0.146596 
0.001224 -0.122201 
0.003129 -0.126324 
0.002037 -0.124098 
-0.000213 -0.127186 
-0.002303 -0.131855 
-0.001288 -0.139663 
-0.002166 -0.136069 
0.000845 -0.133084 
0.018082 -0.160808 
0.013730 -0.157084 
0.014065 -0.160834 
0.012993 -0.147873 
0.013419 -0.152912 
0.018432 -0.152565 
0.004340 -0.151942 
0.008521 -0.152649 
0.003201 -0.147304 
0.006459 -0.109453 
0.007867 -0.121416 
0.019417 -0.117436 
-0.000129 -0.127402 
0.002839 -0.124569 
0.000067 -0.120691 
0.019799 -0.140471 
0.010588 -0.132950 
0.012195 -0.141455 
-0.004179 -0.133950 
-0.004001 -0.133023 
-0.003844 -0.130589 
-0.000958 -0.141605 
-0.003253 -0.136641 
-0.002758 -0.141544 
-0.002947 -0.127016 
-0.003328 -0.131630 
-0.002082 -0.129761 
0.006146 -0.141639 
0.000622 -0.134835 
0.001893 -0.141625 
-0.000000 -0.103531 
0.000831 -0.103541 
0.000884 -0.100000 
0.000466 -0.109847 
0.000680 -0.106810 
-0.000000 -0.109800 
0.002761 -0.100000 
0.001679 -0.103577 
0.002563 -0.103648 
-0.000293 -0.119526 
-0.000171 -0.117544 
-0.000000 -0.119395 
0.000521 -0.113318 
-0.000029 -0.115541 
-0.000159 -0.116092 
-0.000000 -0.115145 
0.000008 -0.115241 
0.000229 -0.112663 
0.008387 -0.100000 
0.005546 -0.104420 
0.006449 -0.105474 
0.003499 -0.103771 
0.004500 -0.103991 
0.005026 -0.100000 
0.001647 -0.111673 
0.003197 -0.107886 
0.001564 -0.110799 
0.000907 -0.109999 
0.001290 -0.110291 
0.002024 -0.107063 
0.000483 -0.118582 
0.000283 -0.120638 
-0.000000 -0.118486 
-0.000191 -0.123965 
0.000200 -0.122442 
0.000317 -0.123018 
-0.000000 -0.121974 
0.000097 -0.122092 
-0.000068 -0.122963 
-0.003240 -0.128909 
-0.002441 -0.127614 
-0.002837 -0.129649 
-0.001550 -0.124521 
-0.001998 -0.125898 
-0.002164 -0.124797 
-0.001002 -0.126463 
-0.001598 -0.126456 
-0.000818 -0.125276 
-0.000000 -0.122182 
-0.000354 -0.122324 
-0.000353 -0.121135 
-0.000204 -0.123273 
-0.000302 -0.123049 
-0.000000 -0.123139 
-0.001155 -0.122286 
-0.000725 -0.122752 
-0.001122 -0.123478 
-0.000616 -0.124343 
-0.000935 -0.124173 
-0.000410 -0.123675 
0.003348 -0.111096 
0.000231 -0.115202 
0.001424 -0.113219 
0.000821 -0.115989 
-0.001017 -0.119997 
-0.000620 -0.119926 
-0.001491 -0.121686 
-0.001013 -0.120629 
-0.000680 -0.118548 
-0.000430 -0.116979 
-0.003313 -0.127609 
-0.002264 -0.123209 
-0.003006 -0.125723 
-0.002686 -0.125124 
-0.002057 -0.123162 
-0.000880 -0.118337 
-0.001639 -0.121003 
-0.001515 -0.120350 
-0.000884 -0.100000 
-0.000831 -0.103541 
-0.002563 -0.103648 
-0.001679 -0.103577 
-0.002761 -0.100000 
-0.000680 -0.106810 
-0.000466 -0.109847 
-0.006449 -0.105474 
-0.005546 -0.104420 
-0.008387 -0.100000 
-0.001564 -0.110799 
-0.003197 -0.107886 
-0.001647 -0.111673 
-0.005026 -0.100000 
-0.004500 -0.103991 
-0.003499 -0.103771 
0.000171 -0.117544 
0.000293 -0.119526 
-0.000229 -0.112663 
-0.000008 -0.115241 
0.000159 -0.116092 
0.000029 -0.115541 
-0.000521 -0.113318 
-0.002024 -0.107063 
-0.001290 -0.110291 
-0.000907 -0.109999 
-0.014065 -0.160834 
-0.013730 -0.157084 
-0.018082 -0.160808 
-0.003201 -0.147304 
-0.008521 -0.152649 
-0.004340 -0.151942 
-0.018432 -0.152565 
-0.013419 -0.152912 
-0.012993 -0.147873 
0.003844 -0.130589 
0.004001 -0.133023 
0.004179 -0.133950 
0.002082 -0.129761 
0.003328 -0.131630 
0.002947 -0.127016 
0.002758 -0.141544 
0.003253 -0.136641 
0.000958 -0.141605 
-0.019417 -0.117436 
-0.007867 -0.121416 
-0.006459 -0.109453 
-0.012195 -0.141455 
-0.010588 -0.132950 
-0.019799 -0.140471 
-0.000067 -0.120691 
-0.002839 -0.124569 
0.000129 -0.127402 
-0.001893 -0.141625 
-0.000622 -0.134835 
-0.006146 -0.141639 
-0.000283 -0.120638 
-0.000483 -0.118582 
0.000068 -0.122963 
-0.000097 -0.122092 
-0.000317 -0.123018 
-0.000200 -0.122442 
0.000191 -0.123965 
0.000353 -0.121135 
0.000354 -0.122324 
0.001122 -0.123478 
0.000725 -0.122752 
0.001155 -0.122286 
0.000302 -0.123049 
0.000204 -0.123273 
0.002837 -0.129649 
0.002441 -0.127614 
0.003240 -0.128909 
0.000818 -0.125276 
0.001598 -0.126456 
0.001002 -0.126463 
0.002164 -0.124797 
0.001998 -0.125898 
0.001550 -0.124521 
0.000410 -0.123675 
0.000935 -0.124173 
0.000616 -0.124343 
-0.003348 -0.111096 
0.001017 -0.119997 
-0.000821 -0.115989 
-0.001424 -0.113219 
-0.000231 -0.115202 
0.003313 -0.127609 
0.002057 -0.123162 
0.002686 -0.125124 
0.003006 -0.125723 
0.002264 -0.123209 
0.000620 -0.119926 
0.000430 -0.116979 
0.000680 -0.118548 
0.001013 -0.120629 
0.001491 -0.121686 
0.001515 -0.120350 
0.001639 -0.121003 
0.000880 -0.118337 
-0.014484 -0.164582 
-0.009936 -0.160288 
-0.003020 -0.157486 
-0.006139 -0.159152 
-0.007008 -0.162394 
-0.005295 -0.155789 
-0.001119 -0.150948 
0.000835 -0.147393 
0.001094 -0.150263 
-0.000085 -0.150798 
0.002899 -0.146814 
0.002075 -0.148895 
0.002676 -0.145051 
-0.001838 -0.157370 
0.000595 -0.152948 
-0.000760 -0.155384 
0.004246 -0.137488 
0.003922 -0.134417 
0.001993 -0.145970 
0.003733 -0.141354 
0.003753 -0.140293 
0.004029 -0.140956 
0.003563 -0.144125 
0.000193 -0.152869 
0.002415 -0.148375 
0.001110 -0.149751 
-0.016128 -0.119209 
-0.013336 -0.123338 
-0.014992 -0.120952 
-0.010330 -0.125740 
-0.011779 -0.124891 
-0.012901 -0.121807 
-0.009500 -0.128882 
-0.010604 -0.127256 
-0.007987 -0.130986 
-0.005679 -0.124539 
-0.006673 -0.125303 
-0.007577 -0.121167 
-0.004336 -0.132504 
-0.005553 -0.129067 
-0.003426 -0.131892 
-0.010044 -0.122165 
-0.007776 -0.125829 
-0.008995 -0.126013 
-0.001341 -0.143691 
-0.001501 -0.141229 
-0.000068 -0.144376 
-0.005548 -0.134545 
-0.003359 -0.137955 
-0.004743 -0.136400 
-0.001145 -0.138387 
-0.002159 -0.138559 
-0.003155 -0.135657 
-0.007811 -0.129349 
-0.005399 -0.132649 
-0.006617 -0.132191 
-0.000979 -0.118873 
-0.000693 -0.115910 
-0.000457 -0.123806 
-0.000886 -0.121485 
-0.002123 -0.116609 
-0.001495 -0.119352 
-0.002042 -0.120000 
0.003135 -0.131951 
0.002152 -0.129844 
0.000111 -0.128611 
0.001228 -0.129498 
0.001214 -0.131247 
0.001147 -0.127883 
0.000246 -0.125910 
-0.005478 -0.119556 
-0.003993 -0.122659 
-0.004789 -0.123631 
-0.002632 -0.120792 
-0.003278 -0.121694 
-0.003688 -0.117905 
-0.001547 -0.128487 
-0.002540 -0.125198 
-0.001159 -0.127179 
-0.000633 -0.124786 
-0.000861 -0.125926 
-0.001603 -0.123084 
0.000995 -0.144108 
-0.000319 -0.137601 
0.000554 -0.140853 
0.001860 -0.143069 
0.002529 -0.141422 
-0.003820 -0.127404 
-0.000396 -0.131649 
-0.002043 -0.129771 
-0.002665 -0.130942 
-0.001448 -0.134316 
0.003284 -0.134424 
0.002993 -0.139323 
0.003244 -0.136934 
0.002318 -0.133969 
0.001075 -0.133046 
0.000323 -0.136353 
0.000784 -0.134789 
0.001825 -0.138016 
-0.020729 -0.112414 
-0.018922 -0.114849 
-0.024316 -0.105351 
-0.021668 -0.110237 
-0.026284 -0.103081 
-0.017165 -0.116517 
-0.015471 -0.117533 
-0.032775 -0.082646 
-0.031112 -0.088842 
-0.035104 -0.081417 
-0.022660 -0.102471 
-0.026913 -0.095914 
-0.024699 -0.096635 
-0.031239 -0.092793 
-0.029099 -0.094675 
-0.026812 -0.100171 
-0.010844 -0.117787 
-0.009466 -0.117279 
-0.013849 -0.118012 
-0.012305 -0.118062 
-0.016614 -0.108480 
-0.014512 -0.113506 
-0.018487 -0.108373 
-0.022351 -0.106915 
-0.020404 -0.107885 
-0.017989 -0.112899 
-0.013340 -0.012298 
-0.022525 -0.024476 
-0.018938 -0.018695 
-0.025065 -0.041472 
-0.024545 -0.032718 
-0.021219 -0.031234 
-0.031935 -0.038719 
-0.028247 -0.035180 
-0.031779 -0.044750 
-0.018345 -0.074903 
-0.020839 -0.067109 
-0.018276 -0.066666 
-0.026297 -0.068057 
-0.023521 -0.067578 
-0.023437 -0.075746 
-0.021551 -0.049622 
-0.022936 -0.058861 
-0.024428 -0.050265 
-0.037245 -0.068810 
-0.034677 -0.069037 
-0.034000 -0.076057 
-0.033788 -0.053476 
-0.034668 -0.061534 
-0.036726 -0.054748 
-0.028772 -0.076322 
-0.031945 -0.068877 
-0.029126 -0.068512 
-0.027484 -0.051114 
-0.028758 -0.060121 
-0.030647 -0.052200 
-0.001816 -0.112855 
-0.000903 -0.112615 
-0.003723 -0.113776 
-0.002752 -0.113248 
-0.003928 -0.104665 
-0.003360 -0.109266 
-0.005298 -0.105097 
-0.008172 -0.116620 
-0.006957 -0.115884 
-0.009740 -0.106806 
-0.008391 -0.111635 
-0.011354 -0.107395 
-0.005816 -0.115132 
-0.004741 -0.114415 
-0.013413 -0.081714 
-0.012846 -0.088840 
-0.015630 -0.082165 
-0.007577 -0.100312 
-0.010124 -0.094894 
-0.008310 -0.094411 
-0.013976 -0.095910 
-0.012012 -0.095404 
-0.010961 -0.101395 
-0.005762 -0.110320 
-0.008195 -0.106199 
-0.006717 -0.105617 
-0.030342 -0.083321 
-0.025316 -0.083572 
-0.027842 -0.083590 
-0.026453 -0.090350 
-0.022481 -0.096949 
-0.017940 -0.082610 
-0.016014 -0.096372 
-0.017139 -0.089769 
-0.020336 -0.083021 
-0.022803 -0.083359 
-0.011303 -0.112864 
-0.018556 -0.102969 
-0.014795 -0.108299 
-0.013040 -0.107913 
-0.014628 -0.102418 
-0.021722 -0.090425 
-0.018119 -0.096740 
-0.020281 -0.096956 
0.000000 0.000000 
-0.010232 -0.010524 
-0.007083 -0.009783 
-0.008390 -0.009975 
0.000000 0.000000 
-0.015671 -0.020584 
-0.018347 -0.030388 
-0.003784 -0.009741 
-0.004445 -0.009722 
0.000000 0.000000 
-0.011789 -0.029459 
-0.008423 -0.019578 
-0.010069 -0.029349 
0.000000 0.000000 
-0.005192 -0.009711 
-0.006054 -0.009721 
-0.017654 -0.057933 
-0.015843 -0.066254 
-0.019231 -0.039929 
-0.018876 -0.049136 
-0.014112 -0.048461 
-0.016401 -0.048760 
-0.014456 -0.039231 
-0.011438 -0.019757 
-0.013706 -0.029629 
-0.015870 -0.029908 
0.000000 -0.009820 
-0.000403 -0.009820 
0.000000 0.000000 
-0.001085 -0.029066 
-0.000768 -0.019523 
-0.000000 -0.029060 
0.000000 0.000000 
-0.000812 -0.009817 
-0.001234 -0.009812 
-0.001777 -0.064566 
-0.001694 -0.056206 
-0.000000 -0.064535 
-0.004116 -0.038477 
-0.003121 -0.047514 
-0.004732 -0.047593 
-0.000000 -0.047447 
-0.001551 -0.047465 
-0.001347 -0.038399 
0.000000 0.000000 
-0.002644 -0.009778 
-0.003188 -0.009760 
-0.001676 -0.009804 
-0.002143 -0.009792 
0.000000 0.000000 
-0.005744 -0.029168 
-0.004076 -0.019534 
-0.004499 -0.029131 
-0.002186 -0.029080 
-0.003318 -0.029102 
-0.002350 -0.019528 
-0.001104 -0.108691 
-0.000000 -0.112536 
-0.004438 -0.099449 
-0.002597 -0.104342 
-0.000000 -0.104075 
-0.001292 -0.104143 
-0.001461 -0.098976 
-0.013661 -0.074050 
-0.011290 -0.081282 
-0.007302 -0.080544 
-0.009256 -0.080887 
-0.009402 -0.073313 
-0.008881 -0.087929 
-0.006561 -0.093983 
-0.000000 -0.079887 
-0.001781 -0.079931 
-0.001805 -0.072490 
-0.001603 -0.093204 
-0.001712 -0.086847 
-0.000000 -0.093148 
-0.005492 -0.072775 
-0.003580 -0.080058 
-0.005415 -0.080264 
-0.004869 -0.093630 
-0.005201 -0.087227 
-0.003220 -0.093367 
-0.006052 -0.019542 
-0.007111 -0.038628 
-0.007073 -0.029214 
-0.008507 -0.029272 
-0.010495 -0.038861 
-0.003575 -0.064655 
-0.007310 -0.064999 
-0.005413 -0.064800 
-0.005163 -0.056388 
-0.006404 -0.047703 
-0.013539 -0.065879 
-0.011990 -0.048216 
-0.012995 -0.057247 
-0.011357 -0.065542 
-0.009286 -0.065247 
-0.008157 -0.047842 
-0.008878 -0.056737 
-0.010012 -0.048012 
0.000000 0.000000 
0.000403 -0.009820 
0.001234 -0.009812 
0.000812 -0.009817 
0.000000 0.000000 
0.000768 -0.019523 
0.001085 -0.029066 
0.003188 -0.009760 
0.002644 -0.009778 
0.000000 0.000000 
0.004499 -0.029131 
0.004076 -0.019534 
0.005744 -0.029168 
0.000000 0.000000 
0.002143 -0.009792 
0.001676 -0.009804 
0.001694 -0.056206 
0.001777 -0.064566 
0.001347 -0.038399 
0.001551 -0.047465 
0.004732 -0.047593 
0.003121 -0.047514 
0.004116 -0.038477 
0.002350 -0.019528 
0.003318 -0.029102 
0.002186 -0.029080 
0.013340 -0.012298 
0.010232 -0.010524 
0.000000 0.000000 
0.018347 -0.030388 
0.015671 -0.020584 
0.021219 -0.031234 
0.000000 0.000000 
0.008390 -0.009975 
0.007083 -0.009783 
0.015843 -0.066254 
0.017654 -0.057933 
0.018276 -0.066666 
0.014456 -0.039231 
0.016401 -0.048760 
0.014112 -0.048461 
0.021551 -0.049622 
0.018876 -0.049136 
0.019231 -0.039929 
0.000000 0.000000 
0.004445 -0.009722 
0.003784 -0.009741 
0.006054 -0.009721 
0.005192 -0.009711 
0.000000 0.000000 
0.010069 -0.029349 
0.008423 -0.019578 
0.011789 -0.029459 
0.015870 -0.029908 
0.013706 -0.029629 
0.011438 -0.019757 
0.001104 -0.108691 
0.000903 -0.112615 
0.001461 -0.098976 
0.001292 -0.104143 
0.003928 -0.104665 
0.002597 -0.104342 
0.004438 -0.099449 
0.001805 -0.072490 
0.001781 -0.079931 
0.005415 -0.080264 
0.003580 -0.080058 
0.005492 -0.072775 
0.001712 -0.086847 
0.001603 -0.093204 
0.013413 -0.081714 
0.011290 -0.081282 
0.013661 -0.074050 
0.006561 -0.093983 
0.008881 -0.087929 
0.008310 -0.094411 
0.009402 -0.073313 
0.009256 -0.080887 
0.007302 -0.080544 
0.003220 -0.093367 
0.005201 -0.087227 
0.004869 -0.093630 
0.006052 -0.019542 
0.010495 -0.038861 
0.008507 -0.029272 
0.007073 -0.029214 
0.007111 -0.038628 
0.013539 -0.065879 
0.009286 -0.065247 
0.011357 -0.065542 
0.012995 -0.057247 
0.011990 -0.048216 
0.003575 -0.064655 
0.006404 -0.047703 
0.005163 -0.056388 
0.005413 -0.064800 
0.007310 -0.064999 
0.010012 -0.048012 
0.008878 -0.056737 
0.008157 -0.047842 
0.018938 -0.018695 
0.022525 -0.024476 
0.031779 -0.044750 
0.028247 -0.035180 
0.031935 -0.038719 
0.024545 -0.032718 
0.025065 -0.041472 
0.034000 -0.076057 
0.034677 -0.069037 
0.037245 -0.068810 
0.029126 -0.068512 
0.031945 -0.068877 
0.028772 -0.076322 
0.036726 -0.054748 
0.034668 -0.061534 
0.033788 -0.053476 
0.020839 -0.067109 
0.018345 -0.074903 
0.024428 -0.050265 
0.022936 -0.058861 
0.023437 -0.075746 
0.023521 -0.067578 
0.026297 -0.068057 
0.030647 -0.052200 
0.028758 -0.060121 
0.027484 -0.051114 
0.016128 -0.119209 
0.018922 -0.114849 
0.020729 -0.112414 
0.015471 -0.117533 
0.017165 -0.116517 
0.012901 -0.121807 
0.026284 -0.103081 
0.021668 -0.110237 
0.024316 -0.105351 
0.009466 -0.117279 
0.010844 -0.117787 
0.007577 -0.121167 
0.018487 -0.108373 
0.014512 -0.113506 
0.016614 -0.108480 
0.010044 -0.122165 
0.012305 -0.118062 
0.013849 -0.118012 
0.035104 -0.081417 
0.031112 -0.088842 
0.032775 -0.082646 
0.026812 -0.100171 
0.029099 -0.094675 
0.031239 -0.092793 
0.024699 -0.096635 
0.026913 -0.095914 
0.022660 -0.102471 
0.017989 -0.112899 
0.020404 -0.107885 
0.022351 -0.106915 
0.001816 -0.112855 
0.000693 -0.115910 
0.005298 -0.105097 
0.003360 -0.109266 
0.002123 -0.116609 
0.002752 -0.113248 
0.003723 -0.113776 
0.015630 -0.082165 
0.012846 -0.088840 
0.010961 -0.101395 
0.012012 -0.095404 
0.013976 -0.095910 
0.010124 -0.094894 
0.007577 -0.100312 
0.005478 -0.119556 
0.006957 -0.115884 
0.008172 -0.116620 
0.004741 -0.114415 
0.005816 -0.115132 
0.003688 -0.117905 