# vtk DataFile Version 2.0
Unstructured Grid Example
ASCII
DATASET UNSTRUCTURED_GRID

POINTS 81 float
0.015545 -0.213890 0.000000 
0.984455 -0.213890 0.000000 
1.000000 1.000000 0.000000 
0.000000 1.000000 0.000000 
0.500000 -0.218512 0.000000 
0.954451 0.351094 0.000000 
0.500000 1.000000 0.000000 
0.045549 0.351094 0.000000 
0.500000 0.347280 0.000000 
0.259238 -0.219480 0.000000 
0.500000 0.049750 0.000000 
0.265558 0.049914 0.000000 
0.740762 -0.219480 0.000000 
0.734442 0.049914 0.000000 
0.969497 0.056807 0.000000 
0.727478 0.347678 0.000000 
0.952634 0.661424 0.000000 
0.732011 0.667928 0.000000 
0.750000 1.000000 0.000000 
0.500000 0.668285 0.000000 
0.250000 1.000000 0.000000 
0.267989 0.667928 0.000000 
0.047366 0.661424 0.000000 
0.272522 0.347678 0.000000 
0.030503 0.056807 0.000000 
0.137847 -0.217269 0.000000 
0.261720 -0.088700 0.000000 
0.141824 -0.086709 0.000000 
0.500000 -0.088531 0.000000 
0.380934 -0.089132 0.000000 
0.379827 -0.220010 0.000000 
0.384609 0.195580 0.000000 
0.382754 0.049633 0.000000 
0.500000 0.195338 0.000000 
0.620173 -0.220010 0.000000 
0.619066 -0.089132 0.000000 
0.858176 -0.086709 0.000000 
0.738280 -0.088700 0.000000 
0.862153 -0.217269 0.000000 
0.617246 0.049633 0.000000 
0.615391 0.195580 0.000000 
0.978480 -0.082069 0.000000 
0.851950 0.051622 0.000000 
0.840499 0.347813 0.000000 
0.845553 0.196757 0.000000 
0.960715 0.201413 0.000000 
0.730462 0.195638 0.000000 
0.614021 0.347971 0.000000 
0.950204 0.503452 0.000000 
0.839190 0.504312 0.000000 
0.857411 0.833016 0.000000 
0.844064 0.666265 0.000000 
0.965129 0.825880 0.000000 
0.727693 0.505493 0.000000 
0.614293 0.505973 0.000000 
0.875000 1.000000 0.000000 
0.739993 0.833249 0.000000 
0.500000 0.833161 0.000000 
0.620365 0.833097 0.000000 
0.625000 1.000000 0.000000 
0.616576 0.668124 0.000000 
0.500000 0.506027 0.000000 
0.375000 1.000000 0.000000 
0.379635 0.833097 0.000000 
0.142589 0.833016 0.000000 
0.260007 0.833249 0.000000 
0.125000 1.000000 0.000000 
0.383424 0.668124 0.000000 
0.385707 0.505973 0.000000 
0.034871 0.825880 0.000000 
0.155936 0.666265 0.000000 
0.159501 0.347813 0.000000 
0.160810 0.504312 0.000000 
0.049796 0.503452 0.000000 
0.272307 0.505493 0.000000 
0.385979 0.347971 0.000000 
0.039285 0.201413 0.000000 
0.154447 0.196757 0.000000 
0.148050 0.051622 0.000000 
0.021520 -0.082069 0.000000 
0.269538 0.195638 0.000000 

CELLS 128 512
3  0 25 27 
3  9 26 25 
3  11 27 26 
3  25 26 27 
3  4 28 30 
3  10 29 28 
3  9 30 29 
3  28 29 30 
3  8 31 33 
3  11 32 31 
3  10 33 32 
3  31 32 33 
3  9 29 26 
3  10 32 29 
3  11 26 32 
3  29 32 26 
3  4 34 28 
3  12 35 34 
3  10 28 35 
3  34 35 28 
3  1 36 38 
3  13 37 36 
3  12 38 37 
3  36 37 38 
3  8 33 40 
3  10 39 33 
3  13 40 39 
3  33 39 40 
3  12 37 35 
3  13 39 37 
3  10 35 39 
3  37 39 35 
3  1 41 36 
3  14 42 41 
3  13 36 42 
3  41 42 36 
3  5 43 45 
3  15 44 43 
3  14 45 44 
3  43 44 45 
3  8 40 47 
3  13 46 40 
3  15 47 46 
3  40 46 47 
3  14 44 42 
3  15 46 44 
3  13 42 46 
3  44 46 42 
3  5 48 43 
3  16 49 48 
3  15 43 49 
3  48 49 43 
3  2 50 52 
3  17 51 50 
3  16 52 51 
3  50 51 52 
3  8 47 54 
3  15 53 47 
3  17 54 53 
3  47 53 54 
3  16 51 49 
3  17 53 51 
3  15 49 53 
3  51 53 49 
3  2 55 50 
3  18 56 55 
3  17 50 56 
3  55 56 50 
3  6 57 59 
3  19 58 57 
3  18 59 58 
3  57 58 59 
3  8 54 61 
3  17 60 54 
3  19 61 60 
3  54 60 61 
3  18 58 56 
3  19 60 58 
3  17 56 60 
3  58 60 56 
3  6 62 57 
3  20 63 62 
3  19 57 63 
3  62 63 57 
3  3 64 66 
3  21 65 64 
3  20 66 65 
3  64 65 66 
3  8 61 68 
3  19 67 61 
3  21 68 67 
3  61 67 68 
3  20 65 63 
3  21 67 65 
3  19 63 67 
3  65 67 63 
3  3 69 64 
3  22 70 69 
3  21 64 70 
3  69 70 64 
3  7 71 73 
3  23 72 71 
3  22 73 72 
3  71 72 73 
3  8 68 75 
3  21 74 68 
3  23 75 74 
3  68 74 75 
3  22 72 70 
3  23 74 72 
3  21 70 74 
3  72 74 70 
3  7 76 71 
3  24 77 76 
3  23 71 77 
3  76 77 71 
3  0 27 79 
3  11 78 27 
3  24 79 78 
3  27 78 79 
3  8 75 31 
3  23 80 75 
3  11 31 80 
3  75 80 31 
3  24 78 77 
3  11 80 78 
3  23 77 80 
3  78 80 77 

CELL_TYPES 128
5
5
5
5
5
5
5
5
5
5
5
5
5
5
5
5
5
5
5
5
5
5
5
5
5
5
5
5
5
5
5
5
5
5
5
5
5
5
5
5
5
5
5
5
5
5
5
5
5
5
5
5
5
5
5
5
5
5
5
5
5
5
5
5
5
5
5
5
5
5
5
5
5
5
5
5
5
5
5
5
5
5
5
5
5
5
5
5
5
5
5
5
5
5
5
5
5
5
5
5
5
5
5
5
5
5
5
5
5
5
5
5
5
5
5
5
5
5
5
5
5
5
5
5
5
5
5
5

POINT_DATA 81

SCALARS u_h float 2
LOOKUP_TABLE default
0.015545 -0.213890 
-0.015545 -0.213890 
0.000000 0.000000 
0.000000 0.000000 
-0.000000 -0.218512 
-0.045549 -0.148906 
0.000000 0.000000 
0.045549 -0.148906 
-0.000000 -0.152720 
0.009238 -0.219480 
-0.000000 -0.200250 
0.015558 -0.200086 
-0.009238 -0.219480 
-0.015558 -0.200086 
-0.030503 -0.193193 
-0.022522 -0.152322 
-0.047366 -0.088576 
-0.017989 -0.082072 
0.000000 0.000000 
0.000000 -0.081715 
0.000000 0.000000 
0.017989 -0.082072 
0.047366 -0.088576 
0.022522 -0.152322 
0.030503 -0.193193 
0.012847 -0.217269 
0.011720 -0.213700 
0.016824 -0.211709 
-0.000000 -0.213531 
0.005934 -0.214132 
0.004827 -0.220010 
0.009609 -0.179420 
0.007754 -0.200367 
-0.000000 -0.179662 
-0.004827 -0.220010 
-0.005934 -0.214132 
-0.016824 -0.211709 
-0.011720 -0.213700 
-0.012847 -0.217269 
-0.007754 -0.200367 
-0.009609 -0.179420 
-0.021520 -0.207069 
-0.023050 -0.198378 
-0.034501 -0.152187 
-0.029447 -0.178243 
-0.039285 -0.173587 
-0.019538 -0.179362 
-0.010979 -0.152029 
-0.049796 -0.121548 
-0.035810 -0.120688 
-0.017589 -0.041984 
-0.030936 -0.083735 
-0.034871 -0.049120 
-0.022307 -0.119507 
-0.010707 -0.119027 
0.000000 0.000000 
-0.010007 -0.041751 
0.000000 -0.041839 
-0.004635 -0.041903 
0.000000 0.000000 
-0.008424 -0.081876 
-0.000000 -0.118973 
0.000000 0.000000 
0.004635 -0.041903 
0.017589 -0.041984 
0.010007 -0.041751 
0.000000 0.000000 
0.008424 -0.081876 
0.010707 -0.119027 
0.034871 -0.049120 
0.030936 -0.083735 
0.034501 -0.152187 
0.035810 -0.120688 
0.049796 -0.121548 
0.022307 -0.119507 
0.010979 -0.152029 
0.039285 -0.173587 
0.029447 -0.178243 
0.023050 -0.198378 
0.021520 -0.207069 
0.019538 -0.179362 

CELL_DATA 128

SCALARS epsilon float 4
LOOKUP_TABLE default
-0.020487 0.044686 0.000000 0.003291
-0.028758 0.045669 0.000000 0.001760
-0.040790 0.103608 0.000000 0.008681
-0.040657 0.044128 0.000000 0.008941
-0.039362 0.039122 0.000000 0.005754
-0.048599 0.100671 0.000000 0.002168
-0.035829 0.045964 0.000000 0.002560
-0.048602 0.045887 0.000000 0.006931
-0.079803 0.193039 0.000000 -0.000790
-0.064250 0.153855 0.000000 0.006791
-0.063949 0.151411 0.000000 0.000400
-0.079682 0.153851 0.000000 0.007047
-0.047087 0.045247 0.000000 0.008743
-0.063865 0.104109 0.000000 0.008105
-0.063870 0.103109 0.000000 0.015209
-0.047211 0.104174 0.000000 0.006004
-0.039362 0.039122 0.000000 -0.005754
-0.035829 0.045964 0.000000 -0.002560
-0.048599 0.100671 0.000000 -0.002168
-0.048602 0.045887 0.000000 -0.006931
-0.020487 0.044686 0.000000 -0.003291
-0.040790 0.103608 0.000000 -0.008681
-0.028758 0.045669 0.000000 -0.001760
-0.040657 0.044128 0.000000 -0.008941
-0.079803 0.193039 0.000000 0.000790
-0.063949 0.151411 0.000000 -0.000400
-0.064250 0.153855 0.000000 -0.006791
-0.079682 0.153851 0.000000 -0.007047
-0.047087 0.045247 0.000000 -0.008743
-0.063870 0.103109 0.000000 -0.015209
-0.063865 0.104109 0.000000 -0.008105
-0.047211 0.104174 0.000000 -0.006004
-0.035420 0.055487 0.000000 -0.007189
-0.056204 0.108512 0.000000 -0.019212
-0.059927 0.101748 0.000000 -0.020093
-0.035448 0.103337 0.000000 -0.008881
-0.090010 0.179941 0.000000 -0.015870
-0.099647 0.187409 0.000000 -0.021252
-0.077182 0.147791 0.000000 -0.021416
-0.079780 0.189240 0.000000 -0.005977
-0.091551 0.195956 0.000000 -0.003571
-0.082110 0.152339 0.000000 -0.016745
-0.096383 0.193616 0.000000 -0.013690
-0.082511 0.195896 0.000000 -0.005574
-0.058366 0.150976 0.000000 -0.008880
-0.081978 0.193879 0.000000 -0.008904
-0.060906 0.152792 0.000000 -0.010751
-0.080824 0.148808 0.000000 -0.023428
-0.090992 0.196745 0.000000 -0.007362
-0.117779 0.230633 0.000000 0.007792
-0.100318 0.221538 0.000000 -0.005131
-0.118065 0.221485 0.000000 -0.008360
-0.108395 0.335090 0.000000 0.128049
-0.103715 0.282901 0.000000 0.050872
-0.132776 0.272456 0.000000 0.039764
-0.138143 0.287898 0.000000 0.037059
-0.091662 0.230688 0.000000 0.003307
-0.096562 0.229559 0.000000 -0.000011
-0.096526 0.257130 0.000000 0.016566
-0.097057 0.230699 0.000000 -0.000354
-0.137973 0.256063 0.000000 0.006662
-0.108035 0.257457 0.000000 0.013189
-0.113760 0.229602 0.000000 -0.002765
-0.112892 0.254537 0.000000 0.017126
0.005547 0.283033 0.000000 0.065907
0.001801 0.281722 0.000000 0.037520
-0.061065 0.273730 0.000000 0.031262
-0.055988 0.283230 0.000000 0.069460
0.000000 0.282219 0.000000 -0.000000
-0.037765 0.271100 0.000000 -0.000195
0.000386 0.282579 0.000000 0.017371
-0.037334 0.282593 0.000000 0.017847
-0.089288 0.235179 0.000000 -0.000169
-0.079291 0.255382 0.000000 0.008771
-0.069648 0.255987 0.000000 -0.000495
-0.089163 0.255365 0.000000 0.009297
-0.042013 0.281650 0.000000 0.039664
-0.069313 0.271685 0.000000 0.014809
-0.077984 0.273716 0.000000 0.031927
-0.043644 0.271628 0.000000 0.015368
0.000000 0.282219 0.000000 -0.000000
0.000386 0.282579 0.000000 -0.017371
-0.037765 0.271100 0.000000 0.000195
-0.037334 0.282593 0.000000 -0.017847
0.005547 0.283033 0.000000 -0.065907
-0.061065 0.273730 0.000000 -0.031262
0.001801 0.281722 0.000000 -0.037520
-0.055988 0.283230 0.000000 -0.069460
-0.089288 0.235179 0.000000 0.000169
-0.069648 0.255987 0.000000 0.000495
-0.079291 0.255382 0.000000 -0.008771
-0.089163 0.255365 0.000000 -0.009297
-0.042013 0.281650 0.000000 -0.039664
-0.077984 0.273716 0.000000 -0.031927
-0.069313 0.271685 0.000000 -0.014809
-0.043644 0.271628 0.000000 -0.015368
-0.108395 0.335090 0.000000 -0.128049
-0.132776 0.272456 0.000000 -0.039764
-0.103715 0.282901 0.000000 -0.050872
-0.138143 0.287898 0.000000 -0.037059
-0.090992 0.196745 0.000000 0.007362
-0.100318 0.221538 0.000000 0.005131
-0.117779 0.230633 0.000000 -0.007792
-0.118065 0.221485 0.000000 0.008360
-0.091662 0.230688 0.000000 -0.003307
-0.096526 0.257130 0.000000 -0.016566
-0.096562 0.229559 0.000000 0.000011
-0.097057 0.230699 0.000000 0.000354
-0.137973 0.256063 0.000000 -0.006662
-0.113760 0.229602 0.000000 0.002765
-0.108035 0.257457 0.000000 -0.013189
-0.112892 0.254537 0.000000 -0.017126
-0.090010 0.179941 0.000000 0.015870
-0.077182 0.147791 0.000000 0.021416
-0.099647 0.187409 0.000000 0.021252
-0.079780 0.189240 0.000000 0.005977
-0.035420 0.055487 0.000000 0.007189
-0.059927 0.101748 0.000000 0.020093
-0.056204 0.108512 0.000000 0.019212
-0.035448 0.103337 0.000000 0.008881
-0.091551 0.195956 0.000000 0.003571
-0.096383 0.193616 0.000000 0.013690
-0.082110 0.152339 0.000000 0.016745
-0.082511 0.195896 0.000000 0.005574
-0.058366 0.150976 0.000000 0.008880
-0.060906 0.152792 0.000000 0.010751
-0.081978 0.193879 0.000000 0.008904
-0.080824 0.148808 0.000000 0.023428

SCALARS sigma float 4
LOOKUP_TABLE default
-0.093433 1.018820 0.241989 0.027053
-0.294136 0.959519 0.169109 0.012037
-0.041184 2.561019 0.628184 0.101527
-0.607809 0.795734 0.034714 0.128414
-0.620764 0.663708 -0.002392 0.098246
-0.262365 2.380318 0.520722 0.043693
-0.468662 0.893956 0.101347 0.036866
-0.782559 0.758951 -0.027151 0.111493
-0.161697 5.060340 1.132359 -0.019293
-0.147380 3.911627 0.896054 0.096944
-0.162628 3.832593 0.874619 0.009012
-0.518258 3.735099 0.741693 0.100090
-0.752800 0.758542 -0.018395 0.133932
-0.602159 2.320950 0.402439 0.126023
-0.612041 2.295489 0.392389 0.228336
-0.195044 2.505507 0.569622 0.086263
-0.620764 0.663708 -0.002392 -0.098246
-0.468662 0.893956 0.101347 -0.036866
-0.262365 2.380318 0.520722 -0.043693
-0.782559 0.758951 -0.027151 -0.111493
-0.093433 1.018820 0.241989 -0.027053
-0.041184 2.561019 0.628184 -0.101527
-0.294136 0.959519 0.169109 -0.012037
-0.607809 0.795734 0.034714 -0.128414
-0.161697 5.060340 1.132359 0.019293
-0.162628 3.832593 0.874619 -0.009012
-0.147380 3.911627 0.896054 -0.096944
-0.518258 3.735099 0.741693 -0.100090
-0.752800 0.758542 -0.018395 -0.133932
-0.612041 2.295489 0.392389 -0.228336
-0.602159 2.320950 0.402439 -0.126023
-0.195044 2.505507 0.569622 -0.086263
-0.370378 1.175505 0.200668 -0.072962
-0.387078 2.560260 0.523076 -0.204904
-0.533313 2.304997 0.418212 -0.281356
0.088842 2.612882 0.678890 -0.057653
-0.527922 4.501041 0.899319 -0.142903
-0.676767 4.645715 0.877628 -0.307703
-0.525615 3.583960 0.706093 -0.213021
-0.199108 4.930538 1.094603 0.050484
-0.413666 5.023773 1.044049 -0.031785
-0.588839 3.664002 0.702291 -0.249548
-0.545938 4.889955 0.972331 -0.210466
-0.200447 5.128679 1.133846 -0.081743
-0.034720 3.886573 0.926098 -0.007717
-0.207231 5.066916 1.119011 -0.099138
-0.077136 3.917951 0.918855 -0.122473
-0.593608 3.572696 0.679834 -0.325206
-0.395827 5.059952 1.057529 -0.008015
-0.702751 5.938588 1.128540 0.081639
-0.387212 5.821476 1.212195 -0.070612
-0.787515 5.606836 1.034195 -0.148666
0.319660 10.506856 2.266958 1.430670
0.071267 8.121868 1.791857 0.667521
-0.687644 7.344119 1.396795 0.357884
-0.679497 7.856946 1.497549 0.206785
-0.101859 6.254222 1.390260 0.073797
-0.227837 6.154119 1.329970 -0.010568
0.019784 7.173426 1.606045 0.224960
-0.229185 6.189314 1.336420 -0.022345
-0.923563 6.617320 1.180900 -0.092011
-0.248081 7.042114 1.494222 0.126112
-0.621219 5.947738 1.158423 -0.081181
-0.384750 6.877390 1.416453 0.201244
2.976777 9.534001 2.885801 1.080876
2.864759 9.359065 2.835225 0.615335
1.051886 8.256219 2.126651 0.469693
1.265384 8.785391 2.272419 1.055559
2.822186 9.318985 2.822186 -0.000000
1.648007 8.418995 2.333348 -0.005812
2.835973 9.345786 2.829650 0.284878
1.769360 8.874958 2.452592 0.278594
-0.004912 6.445891 1.458905 -0.004491
0.422193 7.314504 1.760908 0.124159
0.669064 7.453452 1.863390 -0.014007
0.180980 7.192691 1.662019 0.136061
1.631165 8.812334 2.396373 0.627932
0.822674 8.055455 2.023725 0.218524
0.621569 8.046258 1.957325 0.472015
1.494017 8.372207 2.279834 0.247227
2.822186 9.318985 2.822186 -0.000000
2.835973 9.345786 2.829650 -0.284878
1.648007 8.418995 2.333348 0.005812
1.769360 8.874958 2.452592 -0.278594
2.976777 9.534001 2.885801 -1.080876
1.051886 8.256219 2.126651 -0.469693
2.864759 9.359065 2.835225 -0.615335
1.265384 8.785391 2.272419 -1.055559
-0.004912 6.445891 1.458905 0.004491
0.669064 7.453452 1.863390 0.014007
0.422193 7.314504 1.760908 -0.124159
0.180980 7.192691 1.662019 -0.136061
1.631165 8.812334 2.396373 -0.627932
0.621569 8.046258 1.957325 -0.472015
0.822674 8.055455 2.023725 -0.218524
1.494017 8.372207 2.279834 -0.247227
0.319660 10.506856 2.266958 -1.430670
-0.687644 7.344119 1.396795 -0.357884
0.071267 8.121868 1.791857 -0.667521
-0.679497 7.856946 1.497549 -0.206785
-0.395827 5.059952 1.057529 0.008015
-0.387212 5.821476 1.212195 0.070612
-0.702751 5.938588 1.128540 -0.081639
-0.787515 5.606836 1.034195 0.148666
-0.101859 6.254222 1.390260 -0.073797
0.019784 7.173426 1.606045 -0.224960
-0.227837 6.154119 1.329970 0.010568
-0.229185 6.189314 1.336420 0.022345
-0.923563 6.617320 1.180900 0.092011
-0.621219 5.947738 1.158423 0.081181
-0.248081 7.042114 1.494222 -0.126112
-0.384750 6.877390 1.416453 -0.201244
-0.527922 4.501041 0.899319 0.142903
-0.525615 3.583960 0.706093 0.213021
-0.676767 4.645715 0.877628 0.307703
-0.199108 4.930538 1.094603 -0.050484
-0.370378 1.175505 0.200668 0.072962
-0.533313 2.304997 0.418212 0.281356
-0.387078 2.560260 0.523076 0.204904
0.088842 2.612882 0.678890 0.057653
-0.413666 5.023773 1.044049 0.031785
-0.545938 4.889955 0.972331 0.210466
-0.588839 3.664002 0.702291 0.249548
-0.200447 5.128679 1.133846 0.081743
-0.034720 3.886573 0.926098 0.007717
-0.077136 3.917951 0.918855 0.122473
-0.207231 5.066916 1.119011 0.099138
-0.593608 3.572696 0.679834 0.325206

