# vtk DataFile Version 2.0
Unstructured Grid Example
ASCII
DATASET UNSTRUCTURED_GRID

POINTS 25 float
0.022205 -0.220853 0.000000 
0.977795 -0.220853 0.000000 
1.000000 1.000000 0.000000 
0.000000 1.000000 0.000000 
0.500000 -0.213644 0.000000 
0.957543 0.352118 0.000000 
0.500000 1.000000 0.000000 
0.042457 0.352118 0.000000 
0.500000 0.347425 0.000000 
0.261944 -0.218775 0.000000 
0.500000 0.052840 0.000000 
0.264532 0.051359 0.000000 
0.738056 -0.218775 0.000000 
0.735468 0.051359 0.000000 
0.969387 0.053808 0.000000 
0.729316 0.348863 0.000000 
0.956249 0.663080 0.000000 
0.733711 0.668895 0.000000 
0.750000 1.000000 0.000000 
0.500000 0.668935 0.000000 
0.250000 1.000000 0.000000 
0.266289 0.668895 0.000000 
0.043751 0.663080 0.000000 
0.270684 0.348863 0.000000 
0.030613 0.053808 0.000000 

CELLS 32 128
3  0 9 11 
3  4 10 9 
3  8 11 10 
3  9 10 11 
3  4 12 10 
3  1 13 12 
3  8 10 13 
3  12 13 10 
3  1 14 13 
3  5 15 14 
3  8 13 15 
3  14 15 13 
3  5 16 15 
3  2 17 16 
3  8 15 17 
3  16 17 15 
3  2 18 17 
3  6 19 18 
3  8 17 19 
3  18 19 17 
3  6 20 19 
3  3 21 20 
3  8 19 21 
3  20 21 19 
3  3 22 21 
3  7 23 22 
3  8 21 23 
3  22 23 21 
3  7 24 23 
3  0 11 24 
3  8 23 11 
3  24 11 23 

CELL_TYPES 32
5
5
5
5
5
5
5
5
5
5
5
5
5
5
5
5
5
5
5
5
5
5
5
5
5
5
5
5
5
5
5
5

POINT_DATA 25

SCALARS u_h float 2
LOOKUP_TABLE default
0.022205 -0.220853 
-0.022205 -0.220853 
0.000000 0.000000 
0.000000 0.000000 
-0.000000 -0.213644 
-0.042457 -0.147882 
0.000000 0.000000 
0.042457 -0.147882 
-0.000000 -0.152575 
0.011944 -0.218775 
-0.000000 -0.197160 
0.014532 -0.198641 
-0.011944 -0.218775 
-0.014532 -0.198641 
-0.030613 -0.196192 
-0.020684 -0.151137 
-0.043751 -0.086920 
-0.016289 -0.081105 
0.000000 0.000000 
-0.000000 -0.081065 
0.000000 0.000000 
0.016289 -0.081105 
0.043751 -0.086920 
0.020684 -0.151137 
0.030613 -0.196192 

CELL_DATA 32

SCALARS epsilon float 4
LOOKUP_TABLE default
-0.041919 0.077259 0.000000 0.009207
-0.048915 0.063974 0.000000 0.009603
-0.059812 0.162815 0.000000 0.002504
-0.059821 0.077267 0.000000 0.008196
-0.048915 0.063974 0.000000 -0.009603
-0.041919 0.077259 0.000000 -0.009207
-0.059812 0.162815 0.000000 -0.002504
-0.059821 0.077267 0.000000 -0.008196
-0.065529 0.094179 0.000000 -0.013390
-0.089345 0.175684 0.000000 -0.019855
-0.085747 0.172563 0.000000 -0.010673
-0.065924 0.172672 0.000000 -0.008717
-0.090782 0.215382 0.000000 0.002461
-0.101883 0.294608 0.000000 0.083124
-0.086103 0.242702 0.000000 0.011352
-0.115317 0.243322 0.000000 0.000452
0.001210 0.274952 0.000000 0.030623
0.000000 0.274839 0.000000 0.000000
-0.067269 0.247155 0.000000 -0.000062
-0.065876 0.274960 0.000000 0.032698
0.000000 0.274839 0.000000 0.000000
0.001210 0.274952 0.000000 -0.030623
-0.067269 0.247155 0.000000 0.000062
-0.065876 0.274960 0.000000 -0.032698
-0.101883 0.294608 0.000000 -0.083124
-0.090782 0.215382 0.000000 -0.002461
-0.086103 0.242702 0.000000 -0.011352
-0.115317 0.243322 0.000000 -0.000452
-0.089345 0.175684 0.000000 0.019855
-0.065529 0.094179 0.000000 0.013390
-0.085747 0.172563 0.000000 0.010673
-0.065924 0.172672 0.000000 0.008717

SCALARS sigma float 4
LOOKUP_TABLE default
-0.318528 1.742620 0.353405 0.157528
-0.615745 1.273963 0.150584 0.173847
0.046296 4.260213 1.030028 0.058281
-0.755980 1.550376 0.174463 0.134500
-0.615745 1.273963 0.150584 -0.173847
-0.318528 1.742620 0.353405 -0.157528
0.046296 4.260213 1.030028 -0.058281
-0.755980 1.550376 0.174463 -0.134500
-0.736367 2.003140 0.286493 -0.187128
-0.548719 4.366962 0.863387 -0.250022
-0.490560 4.293036 0.868156 -0.139787
-0.013988 4.525789 1.067482 -0.098874
-0.219200 5.715074 1.246008 0.091304
0.199361 8.717626 1.927246 1.069574
0.140919 6.762422 1.565993 0.196534
-0.536125 6.425473 1.280052 -0.101040
2.781471 9.076555 2.761625 0.502225
2.748392 9.032403 2.748392 0.000000
0.647173 7.153867 1.798867 -0.001717
0.939994 8.245182 2.090845 0.498025
2.748392 9.032403 2.748392 0.000000
2.781471 9.076555 2.761625 -0.502225
0.647173 7.153867 1.798867 0.001717
0.939994 8.245182 2.090845 -0.498025
0.199361 8.717626 1.927246 -1.069574
-0.219200 5.715074 1.246008 -0.091304
0.140919 6.762422 1.565993 -0.196534
-0.536125 6.425473 1.280052 0.101040
-0.548719 4.366962 0.863387 0.250022
-0.736367 2.003140 0.286493 0.187128
-0.490560 4.293036 0.868156 0.139787
-0.013988 4.525789 1.067482 0.098874

