# vtk DataFile Version 2.0
Unstructured Grid Example
ASCII
DATASET UNSTRUCTURED_GRID

POINTS 4225 float
0.008981 -0.207230 0.000000 
0.991019 -0.207230 0.000000 
1.000000 1.000000 0.000000 
0.000000 1.000000 0.000000 
0.500000 -0.222309 0.000000 
0.951779 0.350210 0.000000 
0.500000 1.000000 0.000000 
0.048221 0.350210 0.000000 
0.500000 0.347443 0.000000 
0.256957 -0.220165 0.000000 
0.500000 0.047857 0.000000 
0.266236 0.048821 0.000000 
0.743043 -0.220165 0.000000 
0.733764 0.048821 0.000000 
0.969290 0.059138 0.000000 
0.726364 0.346984 0.000000 
0.950003 0.660452 0.000000 
0.730773 0.667453 0.000000 
0.750000 1.000000 0.000000 
0.500000 0.667836 0.000000 
0.250000 1.000000 0.000000 
0.269227 0.667453 0.000000 
0.049997 0.660452 0.000000 
0.273636 0.346984 0.000000 
0.030710 0.059138 0.000000 
0.133390 -0.215699 0.000000 
0.261111 -0.089807 0.000000 
0.140710 -0.085987 0.000000 
0.500000 -0.091411 0.000000 
0.380777 -0.091144 0.000000 
0.378993 -0.221946 0.000000 
0.385369 0.194471 0.000000 
0.383220 0.047985 0.000000 
0.500000 0.194500 0.000000 
0.621007 -0.221946 0.000000 
0.619223 -0.091144 0.000000 
0.859290 -0.085987 0.000000 
0.738889 -0.089807 0.000000 
0.866610 -0.215699 0.000000 
0.616780 0.047985 0.000000 
0.614631 0.194471 0.000000 
0.980266 -0.077774 0.000000 
0.851239 0.051753 0.000000 
0.838770 0.347130 0.000000 
0.843935 0.196361 0.000000 
0.959362 0.202052 0.000000 
0.729187 0.194691 0.000000 
0.613457 0.347327 0.000000 
0.947908 0.502993 0.000000 
0.837401 0.503659 0.000000 
0.855202 0.832324 0.000000 
0.842012 0.665677 0.000000 
0.961891 0.823214 0.000000 
0.726533 0.504913 0.000000 
0.613845 0.505497 0.000000 
0.875000 1.000000 0.000000 
0.739238 0.833052 0.000000 
0.500000 0.832897 0.000000 
0.620110 0.832957 0.000000 
0.625000 1.000000 0.000000 
0.616126 0.667792 0.000000 
0.500000 0.505652 0.000000 
0.375000 1.000000 0.000000 
0.379890 0.832957 0.000000 
0.144798 0.832324 0.000000 
0.260762 0.833052 0.000000 
0.125000 1.000000 0.000000 
0.383874 0.667792 0.000000 
0.386155 0.505497 0.000000 
0.038109 0.823214 0.000000 
0.157988 0.665677 0.000000 
0.161230 0.347130 0.000000 
0.162599 0.503659 0.000000 
0.052092 0.502993 0.000000 
0.273467 0.504913 0.000000 
0.386543 0.347327 0.000000 
0.040638 0.202052 0.000000 
0.156065 0.196361 0.000000 
0.148761 0.051753 0.000000 
0.019734 -0.077774 0.000000 
0.270813 0.194691 0.000000 
0.071182 -0.211959 0.000000 
0.136856 -0.151950 0.000000 
0.075581 -0.148355 0.000000 
0.258781 -0.156099 0.000000 
0.197941 -0.154462 0.000000 
0.195359 -0.218373 0.000000 
0.204288 -0.020155 0.000000 
0.201008 -0.088323 0.000000 
0.263662 -0.021456 0.000000 
0.500000 -0.157965 0.000000 
0.439902 -0.157903 0.000000 
0.439571 -0.222267 0.000000 
0.441012 -0.022721 0.000000 
0.440417 -0.091355 0.000000 
0.500000 -0.022763 0.000000 
0.318153 -0.221292 0.000000 
0.379718 -0.157644 0.000000 
0.319365 -0.157092 0.000000 
0.443033 0.270238 0.000000 
0.442674 0.194491 0.000000 
0.500000 0.270258 0.000000 
0.324770 0.048250 0.000000 
0.384376 0.120370 0.000000 
0.326546 0.120518 0.000000 
0.500000 0.120321 0.000000 
0.442189 0.120329 0.000000 
0.441620 0.047882 0.000000 
0.321024 -0.090679 0.000000 
0.381987 -0.022561 0.000000 
0.322884 -0.022189 0.000000 
0.560429 -0.222267 0.000000 
0.560098 -0.157903 0.000000 
0.680635 -0.157092 0.000000 
0.620282 -0.157644 0.000000 
0.681847 -0.221292 0.000000 
0.559583 -0.091355 0.000000 
0.558988 -0.022721 0.000000 
0.924419 -0.148355 0.000000 
0.863144 -0.151950 0.000000 
0.928818 -0.211959 0.000000 
0.736338 -0.021456 0.000000 
0.798992 -0.088323 0.000000 
0.795712 -0.020155 0.000000 
0.804641 -0.218373 0.000000 
0.802059 -0.154462 0.000000 
0.741219 -0.156099 0.000000 
0.557326 0.194491 0.000000 
0.556967 0.270238 0.000000 
0.558380 0.047882 0.000000 
0.557811 0.120329 0.000000 
0.673454 0.120518 0.000000 
0.615624 0.120370 0.000000 
0.675230 0.048250 0.000000 
0.678976 -0.090679 0.000000 
0.677116 -0.022189 0.000000 
0.618013 -0.022561 0.000000 
0.985761 -0.143567 0.000000 
0.919751 -0.082552 0.000000 
0.910213 0.054704 0.000000 
0.914958 -0.014803 0.000000 
0.974724 -0.010137 0.000000 
0.855258 -0.018034 0.000000 
0.792423 0.049900 0.000000 
0.895103 0.348028 0.000000 
0.897961 0.272564 0.000000 
0.955185 0.275501 0.000000 
0.784208 0.270307 0.000000 
0.840995 0.271007 0.000000 
0.782584 0.346906 0.000000 
0.964118 0.129904 0.000000 
0.901547 0.198479 0.000000 
0.905687 0.125833 0.000000 
0.613883 0.270166 0.000000 
0.556769 0.347436 0.000000 
0.731331 0.120905 0.000000 
0.671912 0.194501 0.000000 
0.669998 0.347159 0.000000 
0.670721 0.270086 0.000000 
0.727481 0.270083 0.000000 
0.847408 0.123251 0.000000 
0.786505 0.195222 0.000000 
0.789299 0.121725 0.000000 
0.949237 0.426012 0.000000 
0.893189 0.424843 0.000000 
0.893307 0.582531 0.000000 
0.892486 0.503004 0.000000 
0.948039 0.581129 0.000000 
0.837491 0.424691 0.000000 
0.781841 0.424951 0.000000 
0.922863 0.915297 0.000000 
0.910007 0.830015 0.000000 
0.974511 0.907726 0.000000 
0.786943 0.666883 0.000000 
0.847413 0.748556 0.000000 
0.791672 0.749620 0.000000 
0.954330 0.741061 0.000000 
0.901351 0.745956 0.000000 
0.896066 0.663484 0.000000 
0.613426 0.425818 0.000000 
0.556769 0.425944 0.000000 
0.725999 0.425299 0.000000 
0.669860 0.425602 0.000000 
0.671687 0.586032 0.000000 
0.670400 0.505276 0.000000 
0.728097 0.585689 0.000000 
0.838794 0.584004 0.000000 
0.783814 0.585057 0.000000 
0.782178 0.504367 0.000000 
0.937500 1.000000 0.000000 
0.864925 0.916341 0.000000 
0.744531 0.916426 0.000000 
0.805084 0.916473 0.000000 
0.812500 1.000000 0.000000 
0.797880 0.832940 0.000000 
0.734542 0.749989 0.000000 
0.500000 0.916228 0.000000 
0.561280 0.916241 0.000000 
0.562500 1.000000 0.000000 
0.559046 0.750073 0.000000 
0.560108 0.832911 0.000000 
0.500000 0.750069 0.000000 
0.687500 1.000000 0.000000 
0.622507 0.916282 0.000000 
0.683620 0.916349 0.000000 
0.556996 0.505612 0.000000 
0.500000 0.425983 0.000000 
0.673743 0.667697 0.000000 
0.614745 0.586208 0.000000 
0.500000 0.586318 0.000000 
0.557457 0.586290 0.000000 
0.558148 0.667825 0.000000 
0.679880 0.833018 0.000000 
0.617943 0.750089 0.000000 
0.676519 0.750086 0.000000 
0.437500 1.000000 0.000000 
0.438720 0.916241 0.000000 
0.316380 0.916349 0.000000 
0.377493 0.916282 0.000000 
0.312500 1.000000 0.000000 
0.439892 0.832911 0.000000 
0.440954 0.750073 0.000000 
0.077137 0.915297 0.000000 
0.135075 0.916341 0.000000 
0.062500 1.000000 0.000000 
0.265458 0.749989 0.000000 
0.202120 0.832940 0.000000 
0.208328 0.749620 0.000000 
0.187500 1.000000 0.000000 
0.194916 0.916473 0.000000 
0.255469 0.916426 0.000000 
0.443004 0.505612 0.000000 
0.443231 0.425944 0.000000 
0.441852 0.667825 0.000000 
0.442543 0.586290 0.000000 
0.328313 0.586032 0.000000 
0.385255 0.586208 0.000000 
0.326257 0.667697 0.000000 
0.320120 0.833018 0.000000 
0.323481 0.750086 0.000000 
0.382057 0.750089 0.000000 
0.025489 0.907726 0.000000 
0.089993 0.830015 0.000000 
0.103934 0.663484 0.000000 
0.098649 0.745956 0.000000 
0.045670 0.741061 0.000000 
0.152587 0.748556 0.000000 
0.213057 0.666883 0.000000 
0.104897 0.348028 0.000000 
0.106811 0.424843 0.000000 
0.050763 0.426012 0.000000 
0.218159 0.424951 0.000000 
0.162509 0.424691 0.000000 
0.217416 0.346906 0.000000 
0.051961 0.581129 0.000000 
0.107514 0.503004 0.000000 
0.106693 0.582531 0.000000 
0.386574 0.425818 0.000000 
0.443231 0.347436 0.000000 
0.271903 0.585689 0.000000 
0.329600 0.505276 0.000000 
0.330002 0.347159 0.000000 
0.330140 0.425602 0.000000 
0.274001 0.425299 0.000000 
0.161206 0.584004 0.000000 
0.217822 0.504367 0.000000 
0.216186 0.585057 0.000000 
0.044815 0.275501 0.000000 
0.102039 0.272564 0.000000 
0.094313 0.125833 0.000000 
0.098453 0.198479 0.000000 
0.035882 0.129904 0.000000 
0.159005 0.271007 0.000000 
0.215792 0.270307 0.000000 
0.080249 -0.082552 0.000000 
0.014239 -0.143567 0.000000 
0.207577 0.049900 0.000000 
0.144742 -0.018034 0.000000 
0.025276 -0.010137 0.000000 
0.085042 -0.014803 0.000000 
0.089787 0.054704 0.000000 
0.386117 0.270166 0.000000 
0.272519 0.270083 0.000000 
0.329279 0.270086 0.000000 
0.328088 0.194501 0.000000 
0.268669 0.120905 0.000000 
0.152592 0.123251 0.000000 
0.210701 0.121725 0.000000 
0.213495 0.195222 0.000000 
0.040065 -0.209681 0.000000 
0.073346 -0.180451 0.000000 
0.042448 -0.178192 0.000000 
0.135060 -0.184120 0.000000 
0.104222 -0.182429 0.000000 
0.102302 -0.213969 0.000000 
0.108335 -0.117619 0.000000 
0.106237 -0.150298 0.000000 
0.138748 -0.119229 0.000000 
0.257782 -0.188422 0.000000 
0.227214 -0.187663 0.000000 
0.226208 -0.219366 0.000000 
0.229696 -0.122532 0.000000 
0.228393 -0.155375 0.000000 
0.259903 -0.123220 0.000000 
0.164415 -0.217159 0.000000 
0.196567 -0.186711 0.000000 
0.165846 -0.185540 0.000000 
0.235469 0.013965 0.000000 
0.233996 -0.020891 0.000000 
0.264957 0.013450 0.000000 
0.170882 -0.087277 0.000000 
0.202635 -0.054483 0.000000 
0.172698 -0.053487 0.000000 
0.262373 -0.055880 0.000000 
0.232526 -0.055270 0.000000 
0.231084 -0.089156 0.000000 
0.167426 -0.153330 0.000000 
0.199433 -0.121657 0.000000 
0.169116 -0.120566 0.000000 
0.500000 -0.190422 0.000000 
0.469858 -0.190418 0.000000 
0.469797 -0.222329 0.000000 
0.470076 -0.124944 0.000000 
0.469955 -0.157954 0.000000 
0.500000 -0.124957 0.000000 
0.409308 -0.222142 0.000000 
0.439705 -0.190363 0.000000 
0.409523 -0.190252 0.000000 
0.470661 0.012316 0.000000 
0.470508 -0.022753 0.000000 
0.500000 0.012308 0.000000 
0.410608 -0.091274 0.000000 
0.440709 -0.057292 0.000000 
0.411049 -0.057220 0.000000 
0.500000 -0.057341 0.000000 
0.470357 -0.057330 0.000000 
0.470211 -0.091399 0.000000 
0.287604 -0.220799 0.000000 
0.318683 -0.189478 0.000000 
0.288271 -0.189018 0.000000 
0.379300 -0.190076 0.000000 
0.349023 -0.189824 0.000000 
0.348613 -0.221668 0.000000 
0.350209 -0.124450 0.000000 
0.349567 -0.157413 0.000000 
0.380219 -0.124662 0.000000 
0.440144 -0.124897 0.000000 
0.410195 -0.124806 0.000000 
0.409827 -0.157803 0.000000 
[...]
POINT_DATA 4225

SCALARS u_h float 2
LOOKUP_TABLE default
0.008981 -0.207230 
-0.008981 -0.207230 
0.000000 0.000000 
0.000000 0.000000 
0.000000 -0.222309 
-0.048221 -0.149790 
0.000000 0.000000 
0.048221 -0.149790 
0.000000 -0.152557 
0.006957 -0.220165 
0.000000 -0.202143 
0.016236 -0.201179 
-0.006957 -0.220165 
-0.016236 -0.201179 
-0.030710 -0.190862 
-0.023636 -0.153016 
-0.049997 -0.089548 
-0.019227 -0.082547 
0.000000 0.000000 
-0.000000 -0.082164 
0.000000 0.000000 
0.019227 -0.082547 
0.049997 -0.089548 
0.023636 -0.153016 
0.030710 -0.190862 
0.008390 -0.215699 
0.011111 -0.214807 
0.015710 -0.210987 
0.000000 -0.216411 
0.005777 -0.216144 
0.003993 -0.221946 
0.010369 -0.180529 
0.008220 -0.202015 
0.000000 -0.180500 
-0.003993 -0.221946 
-0.005777 -0.216144 
-0.015710 -0.210987 
-0.011111 -0.214807 
-0.008390 -0.215699 
-0.008220 -0.202015 
-0.010369 -0.180529 
-0.019734 -0.202774 
-0.023761 -0.198247 
-0.036230 -0.152870 
-0.031065 -0.178639 
-0.040638 -0.172948 
-0.020813 -0.180309 
-0.011543 -0.152673 
-0.052092 -0.122007 
-0.037599 -0.121341 
-0.019798 -0.042676 
-0.032988 -0.084323 
-0.038109 -0.051786 
-0.023467 -0.120087 
-0.011155 -0.119503 
0.000000 0.000000 
-0.010762 -0.041948 
-0.000000 -0.042103 
-0.004890 -0.042043 
0.000000 0.000000 
-0.008874 -0.082208 
0.000000 -0.119348 
0.000000 0.000000 
0.004890 -0.042043 
0.019798 -0.042676 
0.010762 -0.041948 
0.000000 0.000000 
0.008874 -0.082208 
0.011155 -0.119503 
0.038109 -0.051786 
0.032988 -0.084323 
0.036230 -0.152870 
0.037599 -0.121341 
0.052092 -0.122007 
0.023467 -0.120087 
0.011543 -0.152673 
0.040638 -0.172948 
0.031065 -0.178639 
0.023761 -0.198247 
0.019734 -0.202774 
0.020813 -0.180309 
0.008682 -0.211959 
0.011856 -0.214450 
0.013081 -0.210855 
0.008781 -0.218599 
0.010441 -0.216962 
0.007859 -0.218373 
0.016788 -0.207655 
0.013508 -0.213323 
0.013662 -0.208956 
0.000000 -0.220465 
0.002402 -0.220403 
0.002071 -0.222267 
0.003512 -0.210221 
0.002917 -0.216355 
0.000000 -0.210263 
0.005653 -0.221292 
0.004718 -0.220144 
0.006865 -0.219592 
0.005533 -0.167262 
0.005174 -0.180509 
0.000000 -0.167242 
0.012270 -0.201750 
0.009376 -0.192130 
0.014046 -0.191982 
0.000000 -0.192179 
0.004689 -0.192171 
0.004120 -0.202118 
0.008524 -0.215679 
0.006987 -0.210061 
0.010384 -0.209689 
-0.002071 -0.222267 
-0.002402 -0.220403 
-0.006865 -0.219592 
-0.004718 -0.220144 
-0.005653 -0.221292 
-0.002917 -0.216355 
-0.003512 -0.210221 
-0.013081 -0.210855 
-0.011856 -0.214450 
-0.008682 -0.211959 
-0.013662 -0.208956 
-0.013508 -0.213323 
-0.016788 -0.207655 
-0.007859 -0.218373 
-0.010441 -0.216962 
-0.008781 -0.218599 
-0.005174 -0.180509 
-0.005533 -0.167262 
-0.004120 -0.202118 
-0.004689 -0.192171 
-0.014046 -0.191982 
-0.009376 -0.192130 
-0.012270 -0.201750 
-0.008524 -0.215679 
-0.010384 -0.209689 
-0.006987 -0.210061 
-0.014239 -0.206067 
-0.017749 -0.207552 
-0.027287 -0.195296 
-0.022542 -0.202303 
-0.025276 -0.197637 
-0.019742 -0.205534 
-0.020077 -0.200100 
-0.042397 -0.151972 
-0.039539 -0.164936 
-0.044815 -0.161999 
-0.028292 -0.167193 
-0.034005 -0.166493 
-0.029916 -0.153094 
-0.035882 -0.182596 
-0.035953 -0.176521 
-0.031813 -0.186667 
-0.011117 -0.167334 
-0.005731 -0.152564 
-0.018669 -0.191595 
-0.015588 -0.180499 
-0.017502 -0.152841 
-0.016779 -0.167414 
-0.022519 -0.167417 
-0.027592 -0.189249 
-0.025995 -0.179778 
-0.023201 -0.190775 
-0.050763 -0.136488 
-0.044311 -0.137657 
-0.044193 -0.104969 
-0.045014 -0.121996 
-0.051961 -0.106371 
-0.037509 -0.137809 
-0.030659 -0.137549 
-0.014637 -0.022203 
-0.027493 -0.044985 
-0.025489 -0.029774 
-0.025557 -0.083117 
-0.027587 -0.063944 
-0.020828 -0.062880 
-0.045670 -0.071439 
-0.036149 -0.066544 
-0.041434 -0.086516 
-0.011574 -0.136682 
-0.005731 -0.136556 
-0.024001 -0.137201 
-0.017640 -0.136898 
-0.015813 -0.101468 
-0.017100 -0.119724 
-0.021903 -0.101811 
-0.036206 -0.103496 
-0.028686 -0.102443 
-0.030322 -0.120633 
0.000000 0.000000 
-0.010075 -0.021159 
-0.005469 -0.021074 
-0.007416 -0.021027 
0.000000 0.000000 
-0.014620 -0.042060 
-0.015458 -0.062511 
-0.000000 -0.021272 
-0.001220 -0.021259 
0.000000 0.000000 
-0.003454 -0.062427 
-0.002392 -0.042089 
-0.000000 -0.062431 
0.000000 0.000000 
-0.002493 -0.021218 
-0.003880 -0.021151 
-0.005504 -0.119388 
0.000000 -0.136517 
-0.013757 -0.082303 
-0.010255 -0.101292 
-0.000000 -0.101182 
-0.005043 -0.101210 
-0.004352 -0.082175 
-0.007620 -0.041982 
-0.007057 -0.062411 
-0.010981 -0.062414 
0.000000 0.000000 
0.001220 -0.021259 
0.003880 -0.021151 
0.002493 -0.021218 
0.000000 0.000000 
0.002392 -0.042089 
0.003454 -0.062427 
0.014637 -0.022203 
0.010075 -0.021159 
0.000000 0.000000 
0.015458 -0.062511 
0.014620 -0.042060 
0.020828 -0.062880 
0.000000 0.000000 
0.007416 -0.021027 
0.005469 -0.021074 
0.005504 -0.119388 
0.005731 -0.136556 
0.004352 -0.082175 
0.005043 -0.101210 
0.015813 -0.101468 
0.010255 -0.101292 
0.013757 -0.082303 
0.007620 -0.041982 
0.010981 -0.062414 
0.007057 -0.062411 
0.025489 -0.029774 
0.027493 -0.044985 
0.041434 -0.086516 
0.036149 -0.066544 
0.045670 -0.071439 
0.027587 -0.063944 
0.025557 -0.083117 
0.042397 -0.151972 
0.044311 -0.137657 
0.050763 -0.136488 
0.030659 -0.137549 
0.037509 -0.137809 
0.029916 -0.153094 
0.051961 -0.106371 
0.045014 -0.121996 
0.044193 -0.104969 
0.011574 -0.136682 
0.005731 -0.152564 
0.021903 -0.101811 
0.017100 -0.119724 
0.017502 -0.152841 
0.017640 -0.136898 
0.024001 -0.137201 
0.036206 -0.103496 
0.030322 -0.120633 
0.028686 -0.102443 
0.044815 -0.161999 
0.039539 -0.164936 
0.031813 -0.186667 
0.035953 -0.176521 
0.035882 -0.182596 
0.034005 -0.166493 
0.028292 -0.167193 
0.017749 -0.207552 
0.014239 -0.206067 
0.020077 -0.200100 
0.019742 -0.205534 
0.025276 -0.197637 
0.022542 -0.202303 
0.027287 -0.195296 
0.011117 -0.167334 
0.022519 -0.167417 
0.016779 -0.167414 
0.015588 -0.180499 
0.018669 -0.191595 
0.027592 -0.189249 
0.023201 -0.190775 
0.025995 -0.179778 
0.008815 -0.209681 
0.010846 -0.211701 
0.011198 -0.209442 
0.010060 -0.215370 
0.010472 -0.213679 
0.008552 -0.213969 
0.014585 -0.211369 
0.012487 -0.212798 
0.013748 -0.212979 
0.007782 -0.219672 
0.008464 -0.218913 
0.007458 -0.219366 
0.010946 -0.216282 
0.009643 -0.217875 
0.009903 -0.216970 
0.008165 -0.217159 
0.009067 -0.217961 
0.009596 -0.216790 
0.016719 -0.204785 
0.015246 -0.208391 
0.014957 -0.205300 
0.014632 -0.212277 
0.015135 -0.210733 
0.016448 -0.209737 
0.012373 -0.212130 
0.013776 -0.211520 
0.012334 -0.214156 
0.011176 -0.215830 
0.011933 -0.215407 
0.012866 -0.214316 
0.000000 -0.221672 
0.001108 -0.221668 
0.001047 -0.222329 
0.001326 -0.218694 
0.001205 -0.220454 
0.000000 -0.218707 
0.003058 -0.222142 
0.002205 -0.221613 
0.003273 -0.221502 
0.001911 -0.206434 
0.001758 -0.210253 
0.000000 -0.206442 
0.004358 -0.216274 
0.003209 -0.213542 
0.004799 -0.213470 
0.000000 -0.213591 
0.001607 -0.213580 
0.001461 -0.216399 
0.006354 -0.220799 
0.006183 -0.220728 
0.007021 -0.220268 
0.004300 -0.221326 
0.005273 -0.221074 
0.004863 -0.221668 
0.006459 -0.218200 
0.005817 -0.219913 
0.005219 -0.218412 
0.002644 -0.218647 
0.003945 -0.218556 
0.003577 -0.220303 
0.002821 -0.160065 
0.002762 -0.167245 
0.000000 -0.160067 
0.007768 -0.180520 
0.005371 -0.174075 
0.008069 -0.174097 
0.000000 -0.174060 
0.002683 -0.174062 
0.002585 -0.180501 
0.014266 -0.201514 
0.013180 -0.197087 
0.015340 -0.196892 
0.008813 -0.197295 
0.011002 -0.197215 
0.010253 -0.201910 
0.012376 -0.186508 
0.011714 -0.192076 
0.009898 -0.186536 
0.000000 -0.197383 
0.002207 -0.197379 
0.002061 -0.202137 
0.002472 -0.186545 
0.002345 -0.192176 
0.000000 -0.186545 
0.006174 -0.202080 
0.004413 -0.197367 
0.006616 -0.197342 
0.007420 -0.186546 
0.007034 -0.192158 
0.004945 -0.186547 
0.007854 -0.219162 
0.007168 -0.215952 
0.007656 -0.217904 
0.008806 -0.217502 
0.009840 -0.215306 
0.003818 -0.206408 
0.007607 -0.206275 
0.005718 -0.206358 
0.005257 -0.210160 
0.006372 -0.213355 
0.013160 -0.205681 
0.010926 -0.212593 
0.012040 -0.209379 
0.011333 -0.205955 
0.009480 -0.206147 
0.007921 -0.213183 
0.008698 -0.209909 
0.009441 -0.212935 
-0.001047 -0.222329 
-0.001108 -0.221668 
-0.003273 -0.221502 
-0.002205 -0.221613 
-0.003058 -0.222142 
-0.001205 -0.220454 
-0.001326 -0.218694 
-0.007021 -0.220268 
-0.006183 -0.220728 
-0.006354 -0.220799 
-0.005219 -0.218412 
-0.005817 -0.219913 
-0.006459 -0.218200 
-0.004863 -0.221668 
-0.005273 -0.221074 
-0.004300 -0.221326 
-0.001758 -0.210253 
-0.001911 -0.206434 
-0.001461 -0.216399 
-0.001607 -0.213580 
-0.004799 -0.213470 
-0.003209 -0.213542 
-0.004358 -0.216274 
-0.003577 -0.220303 
-0.003945 -0.218556 
-0.002644 -0.218647 
-0.011198 -0.209442 
-0.010846 -0.211701 
-0.008815 -0.209681 
-0.013748 -0.212979 
-0.012487 -0.212798 
-0.014585 -0.211369 
-0.008552 -0.213969 
-0.010472 -0.213679 
-0.010060 -0.215370 
-0.014957 -0.205300 
-0.015246 -0.208391 
-0.016719 -0.204785 
-0.012334 -0.214156 
-0.013776 -0.211520 
-0.012373 -0.212130 
-0.016448 -0.209737 
-0.015135 -0.210733 
-0.014632 -0.212277 
-0.007458 -0.219366 
-0.008464 -0.218913 
-0.007782 -0.219672 
-0.009596 -0.216790 
-0.009067 -0.217961 
-0.008165 -0.217159 
-0.009903 -0.216970 
-0.009643 -0.217875 
-0.010946 -0.216282 
-0.012866 -0.214316 
-0.011933 -0.215407 
-0.011176 -0.215830 
-0.002762 -0.167245 
-0.002821 -0.160065 
-0.002585 -0.180501 
-0.002683 -0.174062 
-0.008069 -0.174097 
-0.005371 -0.174075 
-0.007768 -0.180520 
-0.002061 -0.202137 
-0.002207 -0.197379 
-0.006616 -0.197342 
-0.004413 -0.197367 
-0.006174 -0.202080 
-0.002345 -0.192176 
-0.002472 -0.186545 
-0.015340 -0.196892 
-0.013180 -0.197087 
-0.014266 -0.201514 
-0.009898 -0.186536 
-0.011714 -0.192076 
-0.012376 -0.186508 
-0.010253 -0.201910 
-0.011002 -0.197215 
-0.008813 -0.197295 
-0.004945 -0.186547 
-0.007034 -0.192158 
-0.007420 -0.186546 
-0.007854 -0.219162 
-0.009840 -0.215306 
-0.008806 -0.217502 
-0.007656 -0.217904 
-0.007168 -0.215952 
-0.013160 -0.205681 
-0.009480 -0.206147 
-0.011333 -0.205955 
-0.012040 -0.209379 
-0.010926 -0.212593 
-0.003818 -0.206408 
-0.006372 -0.213355 
-0.005257 -0.210160 
-0.005718 -0.206358 
-0.007607 -0.206275 
-0.009441 -0.212935 
-0.008698 -0.209909 
-0.007921 -0.213183 
-0.011555 -0.206935 
-0.013654 -0.208613 
-0.018737 -0.205347 
-0.016174 -0.207234 
-0.016971 -0.204667 
-0.015388 -0.209461 
-0.016745 -0.209422 
-0.029005 -0.193291 
-0.026476 -0.196935 
-0.028016 -0.194444 
-0.023364 -0.200720 
-0.024932 -0.199010 
-0.025542 -0.196931 
-0.022509 -0.200422 
-0.023909 -0.200172 
-0.021322 -0.202983 
-0.018442 -0.204105 
-0.018174 -0.200718 
-0.017716 -0.208498 
-0.018286 -0.206714 
-0.021940 -0.199289 
-0.020124 -0.203226 
-0.021764 -0.202111 
-0.020141 -0.205157 
-0.021158 -0.204076 
-0.018944 -0.206984 
-0.045364 -0.151096 
-0.043888 -0.157545 
-0.046630 -0.156052 
-0.038175 -0.159371 
-0.041070 -0.158623 
-0.039344 -0.152536 
-0.042809 -0.167632 
-0.042210 -0.163676 
-0.040346 -0.169481 
-0.026175 -0.160396 
-0.029200 -0.160328 
-0.026763 -0.153077 
-0.032612 -0.172754 
-0.031164 -0.166923 
-0.029932 -0.173305 
-0.033079 -0.153038 
-0.032221 -0.160165 
-0.035219 -0.159863 
-0.033338 -0.186908 
-0.033862 -0.184848 
-0.031473 -0.189257 
-0.038319 -0.174950 
-0.036151 -0.180075 
-0.038322 -0.177939 
-0.031686 -0.183114 
-0.033941 -0.181778 
-0.033535 -0.177730 
-0.036801 -0.165851 
-0.035247 -0.171973 
-0.037826 -0.170904 
-0.005654 -0.160086 
-0.002861 -0.152540 
-0.010778 -0.174123 
-0.008316 -0.167293 
-0.008622 -0.152609 
-0.008503 -0.160125 
-0.011375 -0.160178 
-0.017479 -0.196606 
-0.016366 -0.191829 
-0.018202 -0.180434 
-0.017325 -0.186339 
-0.019786 -0.186159 
-0.014853 -0.186448 
-0.012976 -0.180526 
-0.020547 -0.152932 
-0.020169 -0.160363 
-0.023161 -0.160399 
-0.014275 -0.160241 
-0.017206 -0.160306 
-0.014501 -0.152752 
-0.021730 -0.174058 
-0.019641 -0.167433 
-0.018979 -0.174127 
-0.013500 -0.174144 
-0.016234 -0.174150 
-0.013937 -0.167377 
-0.029587 -0.191177 
-0.029384 -0.184140 
-0.029724 -0.188116 
-0.027669 -0.192725 
-0.025711 -0.193955 
-0.025406 -0.167346 
-0.023413 -0.180100 
-0.024479 -0.173918 
-0.027216 -0.173679 
-0.028549 -0.179305 
-0.019591 -0.196204 
-0.023711 -0.194916 
-0.021670 -0.195652 
-0.020950 -0.191254 
-0.022230 -0.185883 
-0.027037 -0.184913 
-0.024650 -0.185479 
-0.025417 -0.190120 
-0.049637 -0.143292 
-0.046617 -0.144331 
-0.048279 -0.129853 
-0.047598 -0.137250 
-0.051591 -0.129392 
-0.043488 -0.144983 
-0.040273 -0.145350 
-0.047244 -0.097038 
-0.048158 -0.105739 
-0.051236 -0.098112 
-0.041316 -0.121701 
-0.044817 -0.113656 
-0.040959 -0.113123 
-0.052229 -0.114334 
-0.048601 -0.114103 
-0.048626 -0.122138 
-0.030409 -0.145498 
-0.027143 -0.145399 
-0.037001 -0.145517 
-0.033703 -0.145549 
-0.034155 -0.129510 
-0.034072 -0.137704 
-0.037720 -0.129749 
-0.044832 -0.129996 
-0.041295 -0.129932 
-0.040935 -0.137815 
-0.009398 -0.011856 
-0.018945 -0.024266 
-0.015807 -0.016841 
-0.023235 -0.043480 
-0.021596 -0.033675 
-0.017884 -0.032458 
-0.032627 -0.041185 
-0.026616 -0.036257 
-0.032613 -0.047632 
-0.022267 -0.082775 
-0.023392 -0.073095 
-0.020297 -0.072796 
-0.030580 -0.074271 
-0.026807 -0.073563 
-0.029126 -0.083617 
-0.020711 -0.052829 
-0.023999 -0.063283 
-0.023987 -0.053389 
-0.048172 -0.080665 
-0.043725 -0.078552 
-0.045792 -0.087983 
-0.037297 -0.058428 
-0.040938 -0.068715 
-0.042372 -0.061833 
-0.037117 -0.085283 
-0.039153 -0.076727 
-0.034717 -0.075303 
-0.027831 -0.054358 
-0.031644 -0.064985 
-0.032306 -0.055961 
-0.005758 -0.144715 
-0.002876 -0.144688 
-0.011612 -0.144835 
-0.008667 -0.144764 
-0.008510 -0.128158 
-0.008631 -0.136608 
-0.011423 -0.128231 
-0.023921 -0.145278 
-0.020756 -0.145152 
-0.020609 -0.128612 
-0.020781 -0.137040 
-0.023855 -0.128799 
-0.017650 -0.145032 
-0.014603 -0.144925 
-0.017708 -0.092111 
-0.018780 -0.101612 
-0.020706 -0.092290 
-0.014082 -0.119598 
-0.016553 -0.110720 
-0.013609 -0.110603 
-0.022820 -0.111085 
-0.019618 -0.110878 
-0.020225 -0.119885 
-0.014573 -0.136779 
-0.017460 -0.128456 
-0.014402 -0.128330 
-0.043088 -0.095926 
-0.034848 -0.094071 
-0.038914 -0.094915 
-0.040175 -0.104194 
-0.037108 -0.112589 
-0.023902 -0.092548 
-0.026173 -0.111352 
-0.025201 -0.102082 
-0.027318 -0.092910 
-0.030969 -0.093408 
-0.027296 -0.137374 
-0.033920 -0.120974 
-0.030639 -0.129257 
-0.027201 -0.129016 
-0.026833 -0.120336 
-0.032361 -0.102910 
-0.029680 -0.111690 
-0.033333 -0.112104 
0.000000 0.000000 
-0.007095 -0.010904 
-0.004956 -0.010525 
-0.005837 -0.010620 
0.000000 0.000000 
-0.011958 -0.021452 
-0.015104 -0.031900 
-0.002731 -0.010560 
-0.003181 -0.010533 
0.000000 0.000000 
-0.009540 -0.031526 
-0.006384 -0.021042 
-0.008164 -0.031540 
0.000000 0.000000 
-0.003685 -0.010511 
-0.004264 -0.010503 
-0.018004 -0.062643 
-0.017473 -0.072610 
-0.016986 -0.042262 
-0.017888 -0.052519 
-0.013209 -0.052281 
-0.015415 -0.052356 
-0.012574 -0.041973 
-0.008618 -0.021052 
-0.011097 -0.031550 
-0.012911 -0.031650 
0.000000 -0.010689 
-0.000304 -0.010687 
0.000000 0.000000 
-0.000903 -0.031743 
-0.000607 -0.021270 
-0.000000 -0.031746 
0.000000 0.000000 
-0.000612 -0.010681 
-0.000926 -0.010670 
-0.001953 -0.072381 
-0.001718 -0.062431 
-0.000000 -0.072379 
-0.003620 -0.042069 
-0.002940 -0.052325 
-0.004450 -0.052310 
-0.000000 -0.052335 
-0.001462 -0.052334 
-0.001189 -0.042100 
0.000000 0.000000 
-0.001943 -0.010614 
-0.002322 -0.010588 
-0.001250 -0.010655 
-0.001587 -0.010636 
0.000000 0.000000 
-0.004718 -0.031648 
-0.003167 -0.021187 
-0.003711 -0.031683 
-0.001816 -0.031731 
-0.002748 -0.031711 
-0.001846 -0.021242 
-0.002860 -0.136527 
0.000000 -0.144684 
-0.008302 -0.119434 
-0.005646 -0.128108 
0.000000 -0.128067 
-0.002816 -0.128078 
-0.002743 -0.119360 
-0.016403 -0.082398 
-0.014880 -0.091987 
-0.009623 -0.091849 
-0.012194 -0.091904 
-0.011258 -0.082244 
-0.012979 -0.101365 
-0.010766 -0.110517 
-0.000000 -0.091771 
-0.002352 -0.091777 
-0.002165 -0.082168 
-0.002642 -0.110391 
-0.002511 -0.101191 
-0.000000 -0.110381 
-0.006581 -0.082187 
-0.004725 -0.091791 
-0.007141 -0.091813 
-0.008004 -0.110456 
-0.007617 -0.101243 
-0.005303 -0.110415 
-0.004642 -0.021113 
-0.006216 -0.042013 
-0.005782 -0.031610 
-0.006923 -0.031572 
-0.009124 -0.041957 
-0.003927 -0.072382 
-0.008016 -0.072389 
-0.005940 -0.072384 
-0.005227 -0.062419 
-0.006010 -0.052290 
-0.014872 -0.072500 
-0.011207 -0.052255 
-0.013133 -0.062443 
-0.012453 -0.072437 
-0.010178 -0.072404 
-0.007640 -0.052271 
-0.008967 -0.062407 
-0.009362 -0.052256 
0.000000 0.000000 
0.000304 -0.010687 
0.000926 -0.010670 
0.000612 -0.010681 
0.000000 0.000000 
0.000607 -0.021270 
0.000903 -0.031743 
0.002322 -0.010588 
0.001943 -0.010614 
0.000000 0.000000 
0.003711 -0.031683 
0.003167 -0.021187 
0.004718 -0.031648 
0.000000 0.000000 
0.001587 -0.010636 
0.001250 -0.010655 
0.001718 -0.062431 
0.001953 -0.072381 
0.001189 -0.042100 
0.001462 -0.052334 
0.004450 -0.052310 
0.002940 -0.052325 
0.003620 -0.042069 
0.001846 -0.021242 
0.002748 -0.031711 
0.001816 -0.031731 
0.009398 -0.011856 
0.007095 -0.010904 
0.000000 0.000000 
0.015104 -0.031900 
0.011958 -0.021452 
0.017884 -0.032458 
0.000000 0.000000 
0.005837 -0.010620 
0.004956 -0.010525 
0.017473 -0.072610 
0.018004 -0.062643 
0.020297 -0.072796 
0.012574 -0.041973 
0.015415 -0.052356 
0.013209 -0.052281 
0.020711 -0.052829 
0.017888 -0.052519 
0.016986 -0.042262 
0.000000 0.000000 
0.003181 -0.010533 
0.002731 -0.010560 
0.004264 -0.010503 
0.003685 -0.010511 
0.000000 0.000000 
0.008164 -0.031540 
0.006384 -0.021042 
0.009540 -0.031526 
0.012911 -0.031650 
0.011097 -0.031550 
0.008618 -0.021052 
0.002860 -0.136527 
0.002876 -0.144688 
0.002743 -0.119360 
0.002816 -0.128078 
0.008510 -0.128158 
0.005646 -0.128108 
0.008302 -0.119434 
0.002165 -0.082168 
0.002352 -0.091777 
0.007141 -0.091813 
0.004725 -0.091791 
0.006581 -0.082187 
0.002511 -0.101191 
0.002642 -0.110391 
0.017708 -0.092111 
0.014880 -0.091987 
0.016403 -0.082398 
0.010766 -0.110517 
0.012979 -0.101365 
0.013609 -0.110603 
0.011258 -0.082244 
0.012194 -0.091904 
0.009623 -0.091849 
0.005303 -0.110415 
0.007617 -0.101243 
0.008004 -0.110456 
0.004642 -0.021113 
0.009124 -0.041957 
0.006923 -0.031572 
0.005782 -0.031610 
0.006216 -0.042013 
0.014872 -0.072500 
0.010178 -0.072404 
0.012453 -0.072437 
0.013133 -0.062443 
0.011207 -0.052255 
0.003927 -0.072382 
0.006010 -0.052290 
0.005227 -0.062419 
0.005940 -0.072384 
0.008016 -0.072389 
0.009362 -0.052256 
0.008967 -0.062407 
0.007640 -0.052271 
0.015807 -0.016841 
0.018945 -0.024266 
0.032613 -0.047632 
0.026616 -0.036257 
0.032627 -0.041185 
0.021596 -0.033675 
0.023235 -0.043480 
0.045792 -0.087983 
0.043725 -0.078552 
0.048172 -0.080665 
0.034717 -0.075303 
0.039153 -0.076727 
0.037117 -0.085283 
0.042372 -0.061833 
0.040938 -0.068715 
0.037297 -0.058428 
0.023392 -0.073095 
0.022267 -0.082775 
0.023987 -0.053389 
0.023999 -0.063283 
0.029126 -0.083617 
0.026807 -0.073563 
0.030580 -0.074271 
0.032306 -0.055961 
0.031644 -0.064985 
0.027831 -0.054358 
0.045364 -0.151096 
0.046617 -0.144331 
0.049637 -0.143292 
0.040273 -0.145350 
0.043488 -0.144983 
0.039344 -0.152536 
0.051591 -0.129392 
0.047598 -0.137250 
0.048279 -0.129853 
0.027143 -0.145399 
0.030409 -0.145498 
0.026763 -0.153077 
0.037720 -0.129749 
0.034072 -0.137704 
0.034155 -0.129510 
0.033079 -0.153038 
0.033703 -0.145549 
0.037001 -0.145517 
0.051236 -0.098112 
0.048158 -0.105739 
0.047244 -0.097038 
0.048626 -0.122138 
0.048601 -0.114103 
0.052229 -0.114334 
0.040959 -0.113123 
0.044817 -0.113656 
0.041316 -0.121701 
0.040935 -0.137815 
0.041295 -0.129932 
0.044832 -0.129996 
0.005758 -0.144715 
0.002861 -0.152540 
0.011423 -0.128231 
0.008631 -0.136608 
0.008622 -0.152609 
0.008667 -0.144764 
0.011612 -0.144835 
0.020706 -0.092290 
0.018780 -0.101612 
0.020225 -0.119885 
0.019618 -0.110878 
0.022820 -0.111085 
0.016553 -0.110720 
0.014082 -0.119598 
0.020547 -0.152932 
0.020756 -0.145152 
0.023921 -0.145278 
0.014603 -0.144925 
0.017650 -0.145032 