# vtk DataFile Version 2.0
Unstructured Grid Example
ASCII
DATASET UNSTRUCTURED_GRID

POINTS 9 float
0.026065 -0.227782 0.000000 
0.973935 -0.227782 0.000000 
1.000000 1.000000 0.000000 
0.000000 1.000000 0.000000 
0.500000 -0.206484 0.000000 
0.961733 0.354200 0.000000 
0.500000 1.000000 0.000000 
0.038267 0.354200 0.000000 
0.500000 0.348980 0.000000 

CELLS 8 32
3  0 4 8 
3  4 1 8 
3  1 5 8 
3  5 2 8 
3  2 6 8 
3  6 3 8 
3  3 7 8 
3  7 0 8 

CELL_TYPES 8
5
5
5
5
5
5
5
5

POINT_DATA 9

SCALARS u_h float 2
LOOKUP_TABLE default
0.026065 -0.227782 
-0.026065 -0.227782 
0.000000 0.000000 
0.000000 0.000000 
0.000000 -0.206484 
-0.038267 -0.145800 
0.000000 0.000000 
0.038267 -0.145800 
0.000000 -0.151020 

CELL_DATA 8

SCALARS epsilon float 4
LOOKUP_TABLE default
-0.053484 0.105654 0.000000 0.019114
-0.053484 0.105654 0.000000 -0.019114
-0.078950 0.151069 0.000000 -0.008496
-0.078047 0.250653 0.000000 0.043350
0.000000 0.258880 0.000000 -0.000000
0.000000 0.258880 0.000000 -0.000000
-0.078047 0.250653 0.000000 -0.043350
-0.078950 0.151069 0.000000 0.008496

SCALARS sigma float 4
LOOKUP_TABLE default
-0.323205 2.479542 0.521704 0.387427
-0.323205 2.479542 0.521704 -0.387427
-0.527545 3.653137 0.721193 -0.096765
0.415031 7.197150 1.726067 0.702624
2.588805 8.419861 2.588805 -0.000000
2.588805 8.419861 2.588805 -0.000000
0.415031 7.197150 1.726067 -0.702624
-0.527545 3.653137 0.721193 0.096765

