# vtk DataFile Version 2.0
Unstructured Grid Example
ASCII
DATASET UNSTRUCTURED_GRID

POINTS 1089 float
0.009585 -0.207858 0.000000 
0.990415 -0.207858 0.000000 
1.000000 1.000000 0.000000 
0.000000 1.000000 0.000000 
0.500000 -0.222001 0.000000 
0.951990 0.350316 0.000000 
0.500000 1.000000 0.000000 
0.048010 0.350316 0.000000 
0.500000 0.347431 0.000000 
0.257092 -0.220090 0.000000 
0.500000 0.047994 0.000000 
0.266192 0.048913 0.000000 
0.742908 -0.220090 0.000000 
0.733808 0.048913 0.000000 
0.969318 0.059007 0.000000 
0.726440 0.347048 0.000000 
0.950249 0.660425 0.000000 
0.730894 0.667500 0.000000 
0.750000 1.000000 0.000000 
0.500000 0.667882 0.000000 
0.250000 1.000000 0.000000 
0.269106 0.667500 0.000000 
0.049751 0.660425 0.000000 
0.273560 0.347048 0.000000 
0.030682 0.059007 0.000000 
0.133703 -0.215760 0.000000 
0.261156 -0.089711 0.000000 
0.140775 -0.086008 0.000000 
0.500000 -0.091211 0.000000 
0.380790 -0.090996 0.000000 
0.379050 -0.221807 0.000000 
0.385321 0.194566 0.000000 
0.383191 0.048112 0.000000 
0.500000 0.194574 0.000000 
0.620950 -0.221807 0.000000 
0.619210 -0.090996 0.000000 
0.859225 -0.086008 0.000000 
0.738844 -0.089711 0.000000 
0.866297 -0.215760 0.000000 
0.616809 0.048112 0.000000 
0.614679 0.194566 0.000000 
0.980179 -0.078054 0.000000 
0.851292 0.051760 0.000000 
0.838880 0.347179 0.000000 
0.844046 0.196400 0.000000 
0.959457 0.202019 0.000000 
0.729270 0.194771 0.000000 
0.613496 0.347394 0.000000 
0.948060 0.502993 0.000000 
0.837533 0.503718 0.000000 
0.855460 0.832370 0.000000 
0.842214 0.665742 0.000000 
0.962388 0.823346 0.000000 
0.726633 0.504971 0.000000 
0.613890 0.505547 0.000000 
0.875000 1.000000 0.000000 
0.739332 0.833070 0.000000 
0.500000 0.832919 0.000000 
0.620144 0.832969 0.000000 
0.625000 1.000000 0.000000 
0.616176 0.667825 0.000000 
0.500000 0.505703 0.000000 
0.375000 1.000000 0.000000 
0.379856 0.832969 0.000000 
0.144540 0.832370 0.000000 
0.260668 0.833070 0.000000 
0.125000 1.000000 0.000000 
0.383824 0.667825 0.000000 
0.386110 0.505547 0.000000 
0.037612 0.823346 0.000000 
0.157786 0.665742 0.000000 
0.161120 0.347179 0.000000 
0.162467 0.503718 0.000000 
0.051940 0.502993 0.000000 
0.273367 0.504971 0.000000 
0.386504 0.347394 0.000000 
0.040543 0.202019 0.000000 
0.155954 0.196400 0.000000 
0.148708 0.051760 0.000000 
0.019821 -0.078054 0.000000 
0.270730 0.194771 0.000000 
0.071644 -0.212191 0.000000 
0.137030 -0.151980 0.000000 
0.075779 -0.148528 0.000000 
0.258881 -0.156009 0.000000 
0.198079 -0.154415 0.000000 
0.195566 -0.218347 0.000000 
0.204283 -0.020100 0.000000 
0.201067 -0.088271 0.000000 
0.263657 -0.021360 0.000000 
0.500000 -0.157725 0.000000 
0.439913 -0.157718 0.000000 
0.439602 -0.222082 0.000000 
0.441003 -0.022564 0.000000 
0.440417 -0.091181 0.000000 
0.500000 -0.022596 0.000000 
0.318241 -0.221184 0.000000 
0.379755 -0.157497 0.000000 
0.319431 -0.156973 0.000000 
0.443004 0.270305 0.000000 
0.442646 0.194579 0.000000 
0.500000 0.270295 0.000000 
0.324734 0.048364 0.000000 
0.384335 0.120481 0.000000 
0.326490 0.120621 0.000000 
0.500000 0.120428 0.000000 
0.442166 0.120440 0.000000 
0.441603 0.048017 0.000000 
0.321053 -0.090555 0.000000 
0.381977 -0.022420 0.000000 
0.322876 -0.022067 0.000000 
0.560398 -0.222082 0.000000 
0.560087 -0.157718 0.000000 
0.680569 -0.156973 0.000000 
0.620245 -0.157497 0.000000 
0.681759 -0.221184 0.000000 
0.559583 -0.091181 0.000000 
0.558997 -0.022564 0.000000 
0.924221 -0.148528 0.000000 
0.862970 -0.151980 0.000000 
0.928356 -0.212191 0.000000 
0.736343 -0.021360 0.000000 
0.798933 -0.088271 0.000000 
0.795717 -0.020100 0.000000 
0.804434 -0.218347 0.000000 
0.801921 -0.154415 0.000000 
0.741119 -0.156009 0.000000 
0.557354 0.194579 0.000000 
0.556996 0.270305 0.000000 
0.558397 0.048017 0.000000 
0.557834 0.120440 0.000000 
0.673510 0.120621 0.000000 
0.615665 0.120481 0.000000 
0.675266 0.048364 0.000000 
0.678947 -0.090555 0.000000 
0.677124 -0.022067 0.000000 
0.618023 -0.022420 0.000000 
0.985538 -0.143990 0.000000 
0.919685 -0.082688 0.000000 
0.910260 0.054645 0.000000 
0.914960 -0.014901 0.000000 
0.974707 -0.010329 0.000000 
0.855265 -0.018043 0.000000 
0.792473 0.049958 0.000000 
0.895242 0.348075 0.000000 
0.898098 0.272601 0.000000 
0.955318 0.275527 0.000000 
0.784312 0.270368 0.000000 
0.841117 0.271055 0.000000 
0.782676 0.346962 0.000000 
0.964180 0.129823 0.000000 
0.901658 0.198489 0.000000 
0.905769 0.125809 0.000000 
0.613929 0.270246 0.000000 
0.556787 0.347491 0.000000 
0.731400 0.120991 0.000000 
0.671977 0.194592 0.000000 
0.670057 0.347227 0.000000 
0.670787 0.270165 0.000000 
0.727566 0.270155 0.000000 
0.847495 0.123275 0.000000 
0.786604 0.195285 0.000000 
0.789380 0.121786 0.000000 
0.949380 0.426049 0.000000 
0.893314 0.424889 0.000000 
0.893478 0.582587 0.000000 
0.892623 0.503053 0.000000 
0.948226 0.581109 0.000000 
0.837608 0.424745 0.000000 
0.781945 0.425009 0.000000 
0.923267 0.915362 0.000000 
0.910403 0.830084 0.000000 
0.975128 0.908354 0.000000 
0.787106 0.666940 0.000000 
0.847657 0.748617 0.000000 
0.791847 0.749667 0.000000 
0.954675 0.741057 0.000000 
0.901662 0.746032 0.000000 
0.896295 0.663551 0.000000 
0.613466 0.425877 0.000000 
0.556781 0.425992 0.000000 
0.726087 0.425360 0.000000 
0.669926 0.425663 0.000000 
0.671767 0.586080 0.000000 
0.670473 0.505332 0.000000 
0.728209 0.585743 0.000000 
0.838955 0.584068 0.000000 
0.783954 0.585117 0.000000 
0.782297 0.504426 0.000000 
0.937500 1.000000 0.000000 
0.865094 0.916352 0.000000 
0.744581 0.916430 0.000000 
0.805172 0.916478 0.000000 
0.812500 1.000000 0.000000 
0.798034 0.832968 0.000000 
0.734660 0.750023 0.000000 
0.500000 0.916237 0.000000 
0.561289 0.916246 0.000000 
0.562500 1.000000 0.000000 
0.559067 0.750098 0.000000 
0.560125 0.832925 0.000000 
0.500000 0.750103 0.000000 
0.687500 1.000000 0.000000 
0.622525 0.916287 0.000000 
0.683651 0.916352 0.000000 
0.557014 0.505659 0.000000 
0.500000 0.426018 0.000000 
0.673826 0.667736 0.000000 
0.614795 0.586251 0.000000 
0.500000 0.586371 0.000000 
0.557479 0.586332 0.000000 
0.558172 0.667859 0.000000 
0.679938 0.833031 0.000000 
0.617988 0.750112 0.000000 
0.676594 0.750112 0.000000 
0.437500 1.000000 0.000000 
0.438711 0.916246 0.000000 
0.316349 0.916352 0.000000 
0.377475 0.916287 0.000000 
0.312500 1.000000 0.000000 
0.439875 0.832925 0.000000 
0.440933 0.750098 0.000000 
0.076733 0.915362 0.000000 
0.134906 0.916352 0.000000 
0.062500 1.000000 0.000000 
0.265340 0.750023 0.000000 
0.201966 0.832968 0.000000 
0.208153 0.749667 0.000000 
0.187500 1.000000 0.000000 
0.194828 0.916478 0.000000 
0.255419 0.916430 0.000000 
0.442986 0.505659 0.000000 
0.443219 0.425992 0.000000 
0.441828 0.667859 0.000000 
0.442521 0.586332 0.000000 
0.328233 0.586080 0.000000 
0.385205 0.586251 0.000000 
0.326174 0.667736 0.000000 
0.320062 0.833031 0.000000 
0.323406 0.750112 0.000000 
0.382012 0.750112 0.000000 
0.024872 0.908354 0.000000 
0.089597 0.830084 0.000000 
0.103705 0.663551 0.000000 
0.098338 0.746032 0.000000 
0.045325 0.741057 0.000000 
0.152343 0.748617 0.000000 
0.212894 0.666940 0.000000 
0.104758 0.348075 0.000000 
0.106686 0.424889 0.000000 
0.050620 0.426049 0.000000 
0.218055 0.425009 0.000000 
0.162392 0.424745 0.000000 
0.217324 0.346962 0.000000 
0.051774 0.581109 0.000000 
0.107377 0.503053 0.000000 
0.106522 0.582587 0.000000 
0.386534 0.425877 0.000000 
0.443213 0.347491 0.000000 
0.271791 0.585743 0.000000 
0.329527 0.505332 0.000000 
0.329943 0.347227 0.000000 
0.330074 0.425663 0.000000 
0.273913 0.425360 0.000000 
0.161045 0.584068 0.000000 
0.217703 0.504426 0.000000 
0.216046 0.585117 0.000000 
0.044682 0.275527 0.000000 
0.101902 0.272601 0.000000 
0.094231 0.125809 0.000000 
0.098342 0.198489 0.000000 
0.035820 0.129823 0.000000 
0.158883 0.271055 0.000000 
0.215688 0.270368 0.000000 
0.080315 -0.082688 0.000000 
0.014462 -0.143990 0.000000 
0.207527 0.049958 0.000000 
0.144735 -0.018043 0.000000 
0.025293 -0.010329 0.000000 
0.085040 -0.014901 0.000000 
0.089740 0.054645 0.000000 
0.386071 0.270246 0.000000 
0.272434 0.270155 0.000000 
0.329213 0.270165 0.000000 
0.328023 0.194592 0.000000 
0.268600 0.120991 0.000000 
0.152505 0.123275 0.000000 
0.210620 0.121786 0.000000 
0.213396 0.195285 0.000000 
0.040611 -0.210065 0.000000 
0.073655 -0.180643 0.000000 
0.042782 -0.178521 0.000000 
0.135303 -0.184160 0.000000 
0.104500 -0.182531 0.000000 
0.102685 -0.214100 0.000000 
0.108454 -0.117700 0.000000 
0.106426 -0.150387 0.000000 
0.138862 -0.119254 0.000000 
0.257905 -0.188338 0.000000 
0.227362 -0.187598 0.000000 
0.226376 -0.219312 0.000000 
0.229782 -0.122456 0.000000 
0.228512 -0.155304 0.000000 
0.259977 -0.123126 0.000000 
0.164670 -0.217170 0.000000 
0.196744 -0.186673 0.000000 
0.166055 -0.185534 0.000000 
0.235441 0.014042 0.000000 
0.233991 -0.020813 0.000000 
0.264931 0.013544 0.000000 
0.170945 -0.087257 0.000000 
0.202659 -0.054429 0.000000 
0.172723 -0.053464 0.000000 
0.262392 -0.055783 0.000000 
0.232549 -0.055192 0.000000 
0.231137 -0.089079 0.000000 
0.167584 -0.153315 0.000000 
0.199530 -0.121606 0.000000 
0.169223 -0.120548 0.000000 
0.500000 -0.190151 0.000000 
0.469864 -0.190196 0.000000 
0.469811 -0.222102 0.000000 
0.470076 -0.124744 0.000000 
0.469958 -0.157743 0.000000 
0.500000 -0.124739 0.000000 
0.409352 -0.221983 0.000000 
0.439723 -0.190176 0.000000 
0.409556 -0.190090 0.000000 
0.470653 0.012467 0.000000 
0.470503 -0.022590 0.000000 
0.500000 0.012461 0.000000 
0.410613 -0.091113 0.000000 
0.440705 -0.057126 0.000000 
0.411047 -0.057064 0.000000 
0.500000 -0.057158 0.000000 
0.470354 -0.057154 0.000000 
0.470210 -0.091210 0.000000 
0.287713 -0.220706 0.000000 
0.318764 -0.189363 0.000000 
0.288372 -0.188918 0.000000 
0.379347 -0.189933 0.000000 
0.349086 -0.189695 0.000000 
0.348684 -0.221545 0.000000 
0.350245 -0.124314 0.000000 
0.349618 -0.157280 0.000000 
0.380244 -0.124513 0.000000 
0.440150 -0.124716 0.000000 
0.410209 -0.124642 0.000000 
0.409850 -0.157639 0.000000 
[...]
POINT_DATA 1089

SCALARS u_h float 2
LOOKUP_TABLE default
0.009585 -0.207858 
-0.009585 -0.207858 
0.000000 0.000000 
0.000000 0.000000 
0.000000 -0.222001 
-0.048010 -0.149684 
0.000000 0.000000 
0.048010 -0.149684 
-0.000000 -0.152569 
0.007092 -0.220090 
0.000000 -0.202006 
0.016192 -0.201087 
-0.007092 -0.220090 
-0.016192 -0.201087 
-0.030682 -0.190993 
-0.023560 -0.152952 
-0.049751 -0.089575 
-0.019106 -0.082500 
0.000000 0.000000 
0.000000 -0.082118 
0.000000 0.000000 
0.019106 -0.082500 
0.049751 -0.089575 
0.023560 -0.152952 
0.030682 -0.190993 
0.008703 -0.215760 
0.011156 -0.214711 
0.015775 -0.211008 
0.000000 -0.216211 
0.005790 -0.215996 
0.004050 -0.221807 
0.010321 -0.180434 
0.008191 -0.201888 
0.000000 -0.180426 
-0.004050 -0.221807 
-0.005790 -0.215996 
-0.015775 -0.211008 
-0.011156 -0.214711 
-0.008703 -0.215760 
-0.008191 -0.201888 
-0.010321 -0.180434 
-0.019821 -0.203054 
-0.023708 -0.198240 
-0.036120 -0.152821 
-0.030954 -0.178600 
-0.040543 -0.172981 
-0.020730 -0.180229 
-0.011504 -0.152606 
-0.051940 -0.122007 
-0.037467 -0.121282 
-0.019540 -0.042630 
-0.032786 -0.084258 
-0.037612 -0.051654 
-0.023367 -0.120029 
-0.011110 -0.119453 
0.000000 0.000000 
-0.010668 -0.041930 
0.000000 -0.042081 
-0.004856 -0.042031 
0.000000 0.000000 
-0.008824 -0.082175 
0.000000 -0.119297 
0.000000 0.000000 
0.004856 -0.042031 
0.019540 -0.042630 
0.010668 -0.041930 
0.000000 0.000000 
0.008824 -0.082175 
0.011110 -0.119453 
0.037612 -0.051654 
0.032786 -0.084258 
0.036120 -0.152821 
0.037467 -0.121282 
0.051940 -0.122007 
0.023367 -0.120029 
0.011504 -0.152606 
0.040543 -0.172981 
0.030954 -0.178600 
0.023708 -0.198240 
0.019821 -0.203054 
0.020730 -0.180229 
0.009144 -0.212191 
0.012030 -0.214480 
0.013279 -0.211028 
0.008881 -0.218509 
0.010579 -0.216915 
0.008066 -0.218347 
0.016783 -0.207600 
0.013567 -0.213271 
0.013657 -0.208860 
0.000000 -0.220225 
0.002413 -0.220218 
0.002102 -0.222082 
0.003503 -0.210064 
0.002917 -0.216181 
0.000000 -0.210096 
0.005741 -0.221184 
0.004755 -0.219997 
0.006931 -0.219473 
0.005504 -0.167195 
0.005146 -0.180421 
-0.000000 -0.167205 
0.012234 -0.201636 
0.009335 -0.192019 
0.013990 -0.191879 
0.000000 -0.192072 
0.004666 -0.192060 
0.004103 -0.201983 
0.008553 -0.215555 
0.006977 -0.209920 
0.010376 -0.209567 
-0.002102 -0.222082 
-0.002413 -0.220218 
-0.006931 -0.219473 
-0.004755 -0.219997 
-0.005741 -0.221184 
-0.002917 -0.216181 
-0.003503 -0.210064 
-0.013279 -0.211028 
-0.012030 -0.214480 
-0.009144 -0.212191 
-0.013657 -0.208860 
-0.013567 -0.213271 
-0.016783 -0.207600 
-0.008066 -0.218347 
-0.010579 -0.216915 
-0.008881 -0.218509 
-0.005146 -0.180421 
-0.005504 -0.167195 
-0.004103 -0.201983 
-0.004666 -0.192060 
-0.013990 -0.191879 
-0.009335 -0.192019 
-0.012234 -0.201636 
-0.008553 -0.215555 
-0.010376 -0.209567 
-0.006977 -0.209920 
-0.014462 -0.206490 
-0.017815 -0.207688 
-0.027240 -0.195355 
-0.022540 -0.202401 
-0.025293 -0.197829 
-0.019735 -0.205543 
-0.020027 -0.200042 
-0.042258 -0.151925 
-0.039402 -0.164899 
-0.044682 -0.161973 
-0.028188 -0.167132 
-0.033883 -0.166445 
-0.029824 -0.153038 
-0.035820 -0.182677 
-0.035842 -0.176511 
-0.031731 -0.186691 
-0.011071 -0.167254 
-0.005713 -0.152509 
-0.018600 -0.191509 
-0.015523 -0.180408 
-0.017443 -0.152773 
-0.016713 -0.167335 
-0.022434 -0.167345 
-0.027505 -0.189225 
-0.025896 -0.179715 
-0.023120 -0.190714 
-0.050620 -0.136451 
-0.044186 -0.137611 
-0.044022 -0.104913 
-0.044877 -0.121947 
-0.051774 -0.106391 
-0.037392 -0.137755 
-0.030555 -0.137491 
-0.014233 -0.022138 
-0.027097 -0.044916 
-0.024872 -0.029146 
-0.025394 -0.083060 
-0.027343 -0.063883 
-0.020653 -0.062833 
-0.045325 -0.071443 
-0.035838 -0.066468 
-0.041205 -0.086449 
-0.011534 -0.136623 
-0.005719 -0.136508 
-0.023913 -0.137140 
-0.017574 -0.136837 
-0.015733 -0.101420 
-0.017027 -0.119668 
-0.021791 -0.101757 
-0.036045 -0.103432 
-0.028546 -0.102383 
-0.030203 -0.120574 
0.000000 0.000000 
-0.009906 -0.021148 
-0.005419 -0.021070 
-0.007328 -0.021022 
0.000000 0.000000 
-0.014466 -0.042032 
-0.015340 -0.062477 
0.000000 -0.021263 
-0.001211 -0.021254 
0.000000 0.000000 
-0.003433 -0.062402 
-0.002375 -0.042075 
0.000000 -0.062397 
0.000000 0.000000 
-0.002475 -0.021213 
-0.003849 -0.021148 
-0.005486 -0.119341 
-0.000000 -0.136482 
-0.013674 -0.082264 
-0.010205 -0.101249 
0.000000 -0.101129 
-0.005021 -0.101168 
-0.004328 -0.082141 
-0.007562 -0.041969 
-0.007012 -0.062388 
-0.010906 -0.062388 
0.000000 0.000000 
0.001211 -0.021254 
0.003849 -0.021148 
0.002475 -0.021213 
0.000000 0.000000 
0.002375 -0.042075 
0.003433 -0.062402 
0.014233 -0.022138 
0.009906 -0.021148 
0.000000 0.000000 
0.015340 -0.062477 
0.014466 -0.042032 
0.020653 -0.062833 
0.000000 0.000000 
0.007328 -0.021022 
0.005419 -0.021070 
0.005486 -0.119341 
0.005719 -0.136508 
0.004328 -0.082141 
0.005021 -0.101168 
0.015733 -0.101420 
0.010205 -0.101249 
0.013674 -0.082264 
0.007562 -0.041969 
0.010906 -0.062388 
0.007012 -0.062388 
0.024872 -0.029146 
0.027097 -0.044916 
0.041205 -0.086449 
0.035838 -0.066468 
0.045325 -0.071443 
0.027343 -0.063883 
0.025394 -0.083060 
0.042258 -0.151925 
0.044186 -0.137611 
0.050620 -0.136451 
0.030555 -0.137491 
0.037392 -0.137755 
0.029824 -0.153038 
0.051774 -0.106391 
0.044877 -0.121947 
0.044022 -0.104913 
0.011534 -0.136623 
0.005713 -0.152509 
0.021791 -0.101757 
0.017027 -0.119668 
0.017443 -0.152773 
0.017574 -0.136837 
0.023913 -0.137140 
0.036045 -0.103432 
0.030203 -0.120574 
0.028546 -0.102383 
0.044682 -0.161973 
0.039402 -0.164899 
0.031731 -0.186691 
0.035842 -0.176511 
0.035820 -0.182677 
0.033883 -0.166445 
0.028188 -0.167132 
0.017815 -0.207688 
0.014462 -0.206490 
0.020027 -0.200042 
0.019735 -0.205543 
0.025293 -0.197829 
0.022540 -0.202401 
0.027240 -0.195355 
0.011071 -0.167254 
0.022434 -0.167345 
0.016713 -0.167335 
0.015523 -0.180408 
0.018600 -0.191509 
0.027505 -0.189225 
0.023120 -0.190714 
0.025896 -0.179715 
0.009361 -0.210065 
0.011155 -0.211893 
0.011532 -0.209771 
0.010303 -0.215410 
0.010750 -0.213781 
0.008935 -0.214100 
0.014704 -0.211450 
0.012676 -0.212887 
0.013862 -0.213004 
0.007905 -0.219588 
0.008612 -0.218848 
0.007626 -0.219312 
0.011032 -0.216206 
0.009762 -0.217804 
0.009977 -0.216876 
0.008420 -0.217170 
0.009244 -0.217923 
0.009805 -0.216784 
0.016691 -0.204708 
0.015241 -0.208313 
0.014931 -0.205206 
0.014695 -0.212257 
0.015159 -0.210679 
0.016473 -0.209714 
0.012392 -0.212033 
0.013799 -0.211442 
0.012387 -0.214079 
0.011334 -0.215815 
0.012030 -0.215356 
0.012973 -0.214298 
0.000000 -0.221401 
0.001114 -0.221446 
0.001061 -0.222102 
0.001326 -0.218494 
0.001208 -0.220243 
0.000000 -0.218489 
0.003102 -0.221983 
0.002223 -0.221426 
0.003306 -0.221340 
0.001903 -0.206283 
0.001753 -0.210090 
0.000000 -0.206289 
0.004363 -0.216113 
0.003205 -0.213376 
0.004797 -0.213314 
0.000000 -0.213408 
0.001604 -0.213404 
0.001460 -0.216210 
0.006463 -0.220706 
0.006264 -0.220613 
0.007122 -0.220168 
0.004347 -0.221183 
0.005336 -0.220945 
0.004934 -0.221545 
0.006495 -0.218064 
0.005868 -0.219780 
0.005244 -0.218263 
0.002650 -0.218466 
0.003959 -0.218392 
0.003600 -0.220139 
0.002803 -0.160024 
0.002744 -0.167191 
-0.000000 -0.160052 
0.007730 -0.180428 
0.005343 -0.173999 
0.008030 -0.174014 
-0.000000 -0.174003 
0.002666 -0.173995 
0.002570 -0.180420 
0.014226 -0.201410 
0.013132 -0.196979 
0.015288 -0.196792 
0.008777 -0.197176 
0.010961 -0.197100 
0.010221 -0.201789 
0.012323 -0.186407 
0.011666 -0.191968 
0.009853 -0.186434 
0.000000 -0.197261 
0.002196 -0.197256 
0.002052 -0.202000 
0.002457 -0.186449 
0.002332 -0.192067 
0.000000 -0.186455 
0.006151 -0.201948 
0.004392 -0.197243 
0.006587 -0.197219 
0.007384 -0.186444 
0.007000 -0.192046 
0.004919 -0.186447 
0.007937 -0.219057 
0.007189 -0.215815 
0.007704 -0.217781 
0.008867 -0.217392 
0.009877 -0.215194 
0.003805 -0.206261 
0.007587 -0.206141 
0.005701 -0.206217 
0.005246 -0.210011 
0.006373 -0.213210 
0.013136 -0.205574 
0.010941 -0.212481 
0.012034 -0.209269 
0.011310 -0.205837 
0.009459 -0.206019 
0.007927 -0.213048 
0.008689 -0.209777 
0.009451 -0.212811 
-0.001061 -0.222102 
-0.001114 -0.221446 
-0.003306 -0.221340 
-0.002223 -0.221426 
-0.003102 -0.221983 
-0.001208 -0.220243 
-0.001326 -0.218494 
-0.007122 -0.220168 
-0.006264 -0.220613 
-0.006463 -0.220706 
-0.005244 -0.218263 
-0.005868 -0.219780 
-0.006495 -0.218064 
-0.004934 -0.221545 
-0.005336 -0.220945 
-0.004347 -0.221183 
-0.001753 -0.210090 
-0.001903 -0.206283 
-0.001460 -0.216210 
-0.001604 -0.213404 
-0.004797 -0.213314 
-0.003205 -0.213376 
-0.004363 -0.216113 
-0.003600 -0.220139 
-0.003959 -0.218392 
-0.002650 -0.218466 
-0.011532 -0.209771 
-0.011155 -0.211893 
-0.009361 -0.210065 
-0.013862 -0.213004 
-0.012676 -0.212887 
-0.014704 -0.211450 
-0.008935 -0.214100 
-0.010750 -0.213781 
-0.010303 -0.215410 
-0.014931 -0.205206 
-0.015241 -0.208313 
-0.016691 -0.204708 
-0.012387 -0.214079 
-0.013799 -0.211442 
-0.012392 -0.212033 
-0.016473 -0.209714 
-0.015159 -0.210679 
-0.014695 -0.212257 
-0.007626 -0.219312 
-0.008612 -0.218848 
-0.007905 -0.219588 
-0.009805 -0.216784 
-0.009244 -0.217923 
-0.008420 -0.217170 
-0.009977 -0.216876 
-0.009762 -0.217804 
-0.011032 -0.216206 
-0.012973 -0.214298 
-0.012030 -0.215356 
-0.011334 -0.215815 
-0.002744 -0.167191 
-0.002803 -0.160024 
-0.002570 -0.180420 
-0.002666 -0.173995 
-0.008030 -0.174014 
-0.005343 -0.173999 
-0.007730 -0.180428 
-0.002052 -0.202000 
-0.002196 -0.197256 
-0.006587 -0.197219 
-0.004392 -0.197243 
-0.006151 -0.201948 
-0.002332 -0.192067 
-0.002457 -0.186449 
-0.015288 -0.196792 
-0.013132 -0.196979 
-0.014226 -0.201410 
-0.009853 -0.186434 
-0.011666 -0.191968 
-0.012323 -0.186407 
-0.010221 -0.201789 
-0.010961 -0.197100 
-0.008777 -0.197176 
-0.004919 -0.186447 
-0.007000 -0.192046 
-0.007384 -0.186444 
-0.007937 -0.219057 
-0.009877 -0.215194 
-0.008867 -0.217392 
-0.007704 -0.217781 
-0.007189 -0.215815 
-0.013136 -0.205574 
-0.009459 -0.206019 
-0.011310 -0.205837 
-0.012034 -0.209269 
-0.010941 -0.212481 
-0.003805 -0.206261 
-0.006373 -0.213210 
-0.005246 -0.210011 
-0.005701 -0.206217 
-0.007587 -0.206141 
-0.009451 -0.212811 
-0.008689 -0.209777 
-0.007927 -0.213048 
-0.011914 -0.207460 
-0.013858 -0.208899 
-0.018808 -0.205555 
-0.016298 -0.207480 
-0.017113 -0.205009 
-0.015508 -0.209616 
-0.016810 -0.209495 
-0.028966 -0.193386 
-0.026458 -0.197054 
-0.028009 -0.194603 
-0.023334 -0.200758 
-0.024905 -0.199088 
-0.025490 -0.196956 
-0.022556 -0.200653 
-0.023914 -0.200318 
-0.021356 -0.203159 
-0.018413 -0.204049 
-0.018127 -0.200642 
-0.017741 -0.208514 
-0.018280 -0.206688 
-0.021887 -0.199255 
-0.020093 -0.203196 
-0.021732 -0.202113 
-0.020168 -0.205275 
-0.021152 -0.204127 
-0.018969 -0.207046 
-0.045196 -0.151036 
-0.043732 -0.157495 
-0.046471 -0.155987 
-0.038044 -0.159325 
-0.040925 -0.158578 
-0.039223 -0.152490 
-0.042696 -0.167638 
-0.042070 -0.163643 
-0.040224 -0.169468 
-0.026084 -0.160332 
-0.029099 -0.160270 
-0.026679 -0.153017 
-0.032494 -0.172709 
-0.031050 -0.166868 
-0.029820 -0.173252 
-0.032978 -0.152986 
-0.032111 -0.160111 
-0.035099 -0.159813 
-0.033293 -0.187013 
-0.033789 -0.184899 
-0.031417 -0.189330 
-0.038214 -0.174958 
-0.036062 -0.180105 
-0.038243 -0.177997 
-0.031586 -0.183100 
-0.033845 -0.181785 
-0.033422 -0.177705 
-0.036671 -0.165809 
-0.035123 -0.171938 
-0.037701 -0.170880 
-0.005629 -0.160026 
-0.002853 -0.152505 
-0.010730 -0.174036 
-0.008279 -0.167217 
-0.008594 -0.152546 
-0.008470 -0.160056 
-0.011332 -0.160105 
-0.017421 -0.196517 
-0.016303 -0.191733 
-0.018128 -0.180347 
-0.017255 -0.186247 
-0.019708 -0.186075 
-0.014792 -0.186351 
-0.012919 -0.180432 
-0.020480 -0.152866 
-0.020097 -0.160292 
-0.023079 -0.160332 
-0.014222 -0.160167 
-0.017143 -0.160233 
-0.014452 -0.152683 
-0.021644 -0.173981 
-0.019566 -0.167357 
-0.018903 -0.174046 
-0.013443 -0.174057 
-0.016168 -0.174065 
-0.013881 -0.167297 
-0.029523 -0.191218 
-0.029284 -0.184109 
-0.029638 -0.188114 
-0.027599 -0.192737 
-0.025640 -0.193940 
-0.025312 -0.167279 
-0.023322 -0.180028 
-0.024384 -0.173848 
-0.027113 -0.173617 
-0.028443 -0.179253 
-0.019528 -0.196128 
-0.023641 -0.194877 
-0.021603 -0.195593 
-0.020874 -0.191179 
-0.022145 -0.185809 
-0.026940 -0.184865 
-0.024558 -0.185418 
-0.025332 -0.190077 
-0.049478 -0.143226 
-0.046477 -0.144282 
-0.048147 -0.129816 
-0.047467 -0.137208 
-0.051448 -0.129376 
-0.043359 -0.144937 
-0.040153 -0.145302 
-0.047042 -0.097001 
-0.047983 -0.105707 
-0.051023 -0.098138 
-0.041182 -0.121645 
-0.044665 -0.113604 
-0.040810 -0.113063 
-0.052063 -0.114345 
-0.048446 -0.114071 
-0.048485 -0.122105 
-0.030311 -0.145441 
-0.027052 -0.145339 
-0.036888 -0.145466 
-0.033598 -0.145495 
-0.034037 -0.129452 
-0.033961 -0.137649 
-0.037598 -0.129693 
-0.044704 -0.129948 
-0.041169 -0.129879 
-0.040814 -0.137765 
-0.008906 -0.011667 
-0.018424 -0.024149 
-0.015194 -0.015906 
-0.022909 -0.043425 
-0.021179 -0.033615 
-0.017564 -0.032412 
-0.032050 -0.040870 
-0.026089 -0.036138 
-0.032140 -0.047519 
-0.022125 -0.082723 
-0.023221 -0.073042 
-0.020152 -0.072748 
-0.030357 -0.074207 
-0.026609 -0.073504 
-0.028944 -0.083555 
-0.020499 -0.052782 
-0.023790 -0.063229 
-0.023729 -0.053334 
-0.047883 -0.080687 
-0.043446 -0.078494 
-0.045557 -0.087937 
-0.036897 -0.058332 
-0.040605 -0.068639 
-0.041957 -0.061794 
-0.036900 -0.085214 
-0.038886 -0.076654 
-0.034470 -0.075233 
-0.027524 -0.054295 
-0.031365 -0.064918 
-0.031949 -0.055885 
-0.005746 -0.144663 
-0.002877 -0.144652 
-0.011573 -0.144772 
-0.008641 -0.144705 
-0.008482 -0.128107 
-0.008605 -0.136553 
-0.011381 -0.128177 
-0.023839 -0.145216 
-0.020683 -0.145088 
-0.020527 -0.128552 
-0.020704 -0.136978 
-0.023762 -0.128739 
-0.017588 -0.144967 
-0.014552 -0.144860 
-0.017608 -0.092064 
-0.018684 -0.101561 
-0.020588 -0.092239 
-0.014023 -0.119545 
-0.016476 -0.110669 
-0.013546 -0.110554 
-0.022715 -0.111028 
-0.019526 -0.110824 
-0.020138 -0.119828 
-0.014520 -0.136717 
-0.017390 -0.128397 
-0.014346 -0.128273 
-0.042891 -0.095865 
-0.034668 -0.094006 
-0.038724 -0.094848 
-0.040008 -0.104131 
-0.036964 -0.112527 
-0.023767 -0.092493 
-0.026055 -0.111294 
-0.025074 -0.102025 
-0.027167 -0.092851 
-0.030802 -0.093346 
-0.027200 -0.137315 
-0.033793 -0.120914 
-0.030528 -0.129198 
-0.027098 -0.128956 
-0.026723 -0.120277 
-0.032210 -0.102848 
-0.029551 -0.111630 
-0.033195 -0.112042 
0.000000 0.000000 
-0.006886 -0.010882 
-0.004870 -0.010527 
-0.005710 -0.010620 
0.000000 0.000000 
-0.011706 -0.021429 
-0.014873 -0.031869 
-0.002705 -0.010560 
-0.003147 -0.010534 
0.000000 0.000000 
-0.009444 -0.031514 
-0.006317 -0.021038 
-0.008091 -0.031530 
0.000000 0.000000 
-0.003639 -0.010512 
-0.004202 -0.010504 
-0.017860 -0.062603 
-0.017352 -0.072569 
-0.016786 -0.042226 
-0.017718 -0.052480 
-0.013100 -0.052254 
-0.015279 -0.052324 
-0.012454 -0.041950 
-0.008498 -0.021045 
-0.010971 -0.031534 
-0.012743 -0.031629 
0.000000 -0.010685 
-0.000302 -0.010684 
0.000000 0.000000 
-0.000896 -0.031731 
-0.000602 -0.021262 
0.000000 -0.031730 
0.000000 0.000000 
-0.000608 -0.010679 
-0.000920 -0.010669 
-0.001942 -0.072348 
-0.001707 -0.062403 
0.000000 -0.072338 
-0.003596 -0.042057 
-0.002921 -0.052305 
-0.004421 -0.052292 
0.000000 -0.052307 
-0.001453 -0.052311 
-0.001181 -0.042083 
0.000000 0.000000 
-0.001927 -0.010613 
-0.002302 -0.010587 
-0.001241 -0.010654 
-0.001576 -0.010635 
0.000000 0.000000 
-0.004683 -0.031641 
-0.003144 -0.021183 
-0.003685 -0.031675 
-0.001803 -0.031721 
-0.002729 -0.031702 
-0.001833 -0.021237 
-0.002858 -0.136486 
-0.000000 -0.144668 
-0.008271 -0.119386 
-0.005632 -0.128060 
-0.000000 -0.128020 
-0.002811 -0.128033 
-0.002736 -0.119313 
-0.016301 -0.082356 
-0.014797 -0.091944 
-0.009572 -0.091811 
-0.012128 -0.091864 
-0.011192 -0.082209 
-0.012914 -0.101320 
-0.010719 -0.110470 
0.000000 -0.091721 
-0.002340 -0.091735 
-0.002154 -0.082130 
-0.002632 -0.110344 
-0.002500 -0.101145 
0.000000 -0.110327 
-0.006544 -0.082155 
-0.004702 -0.091752 
-0.007105 -0.091776 
-0.007971 -0.110411 
-0.007582 -0.101201 
-0.005283 -0.110371 
-0.004603 -0.021109 
-0.006172 -0.042001 
-0.005738 -0.031602 
-0.006866 -0.031563 
-0.009051 -0.041942 
-0.003904 -0.072352 
-0.007967 -0.072361 
-0.005905 -0.072356 
-0.005194 -0.062396 
-0.005970 -0.052273 
-0.014773 -0.072463 
-0.011120 -0.052232 
-0.013038 -0.062413 
-0.012372 -0.072405 
-0.010114 -0.072375 
-0.007587 -0.052253 
-0.008907 -0.062383 
-0.009294 -0.052236 
0.000000 0.000000 
0.000302 -0.010684 
0.000920 -0.010669 
0.000608 -0.010679 
0.000000 0.000000 
0.000602 -0.021262 
0.000896 -0.031731 
0.002302 -0.010587 
0.001927 -0.010613 
0.000000 0.000000 
0.003685 -0.031675 
0.003144 -0.021183 
0.004683 -0.031641 
0.000000 0.000000 
0.001576 -0.010635 
0.001241 -0.010654 
0.001707 -0.062403 
0.001942 -0.072348 
0.001181 -0.042083 
0.001453 -0.052311 
0.004421 -0.052292 
0.002921 -0.052305 
0.003596 -0.042057 
0.001833 -0.021237 
0.002729 -0.031702 
0.001803 -0.031721 
0.008906 -0.011667 
0.006886 -0.010882 
0.000000 0.000000 
0.014873 -0.031869 
0.011706 -0.021429 
0.017564 -0.032412 
0.000000 0.000000 
0.005710 -0.010620 
0.004870 -0.010527 
0.017352 -0.072569 
0.017860 -0.062603 
0.020152 -0.072748 
0.012454 -0.041950 
0.015279 -0.052324 
0.013100 -0.052254 
0.020499 -0.052782 
0.017718 -0.052480 
0.016786 -0.042226 
0.000000 0.000000 
0.003147 -0.010534 
0.002705 -0.010560 
0.004202 -0.010504 
0.003639 -0.010512 
0.000000 0.000000 
0.008091 -0.031530 
0.006317 -0.021038 
0.009444 -0.031514 
0.012743 -0.031629 
0.010971 -0.031534 
0.008498 -0.021045 
0.002858 -0.136486 
0.002877 -0.144652 
0.002736 -0.119313 
0.002811 -0.128033 
0.008482 -0.128107 
0.005632 -0.128060 
0.008271 -0.119386 
0.002154 -0.082130 
0.002340 -0.091735 
0.007105 -0.091776 
0.004702 -0.091752 
0.006544 -0.082155 
0.002500 -0.101145 
0.002632 -0.110344 
0.017608 -0.092064 
0.014797 -0.091944 
0.016301 -0.082356 
0.010719 -0.110470 
0.012914 -0.101320 
0.013546 -0.110554 
0.011192 -0.082209 
0.012128 -0.091864 
0.009572 -0.091811 
0.005283 -0.110371 
0.007582 -0.101201 
0.007971 -0.110411 
0.004603 -0.021109 
0.009051 -0.041942 
0.006866 -0.031563 
0.005738 -0.031602 
0.006172 -0.042001 
0.014773 -0.072463 
0.010114 -0.072375 
0.012372 -0.072405 
0.013038 -0.062413 
0.011120 -0.052232 
0.003904 -0.072352 
0.005970 -0.052273 
0.005194 -0.062396 
0.005905 -0.072356 
0.007967 -0.072361 
0.009294 -0.052236 
0.008907 -0.062383 
0.007587 -0.052253 
0.015194 -0.015906 
0.018424 -0.024149 
0.032140 -0.047519 
0.026089 -0.036138 
0.032050 -0.040870 
0.021179 -0.033615 
0.022909 -0.043425 
0.045557 -0.087937 
0.043446 -0.078494 
0.047883 -0.080687 
0.034470 -0.075233 
0.038886 -0.076654 
0.036900 -0.085214 
0.041957 -0.061794 
0.040605 -0.068639 
0.036897 -0.058332 
0.023221 -0.073042 
0.022125 -0.082723 
0.023729 -0.053334 
0.023790 -0.063229 
0.028944 -0.083555 
0.026609 -0.073504 
0.030357 -0.074207 
0.031949 -0.055885 
0.031365 -0.064918 
0.027524 -0.054295 
0.045196 -0.151036 
0.046477 -0.144282 
0.049478 -0.143226 
0.040153 -0.145302 
0.043359 -0.144937 
0.039223 -0.152490 
0.051448 -0.129376 
0.047467 -0.137208 
0.048147 -0.129816 
0.027052 -0.145339 
0.030311 -0.145441 
0.026679 -0.153017 
0.037598 -0.129693 
0.033961 -0.137649 
0.034037 -0.129452 
0.032978 -0.152986 
0.033598 -0.145495 
0.036888 -0.145466 
0.051023 -0.098138 
0.047983 -0.105707 
0.047042 -0.097001 
0.048485 -0.122105 
0.048446 -0.114071 
0.052063 -0.114345 
0.040810 -0.113063 
0.044665 -0.113604 
0.041182 -0.121645 
0.040814 -0.137765 
0.041169 -0.129879 
0.044704 -0.129948 
0.005746 -0.144663 
0.002853 -0.152505 
0.011381 -0.128177 
0.008605 -0.136553 
0.008594 -0.152546 
0.008641 -0.144705 
0.011573 -0.144772 
0.020588 -0.092239 
0.018684 -0.101561 
0.020138 -0.119828 
0.019526 -0.110824 
0.022715 -0.111028 
0.016476 -0.110669 
0.014023 -0.119545 
0.020480 -0.152866 
0.020683 -0.145088 
0.023839 -0.145216 
0.014552 -0.144860 
0.017588 -0.144967 