# vtk DataFile Version 2.0
Unstructured Grid Example
ASCII
DATASET UNSTRUCTURED_GRID

POINTS 16641 float
0.008789 -0.207028 0.000000 
0.991211 -0.207028 0.000000 
1.000000 1.000000 0.000000 
0.000000 1.000000 0.000000 
0.500000 -0.222405 0.000000 
0.951714 0.350170 0.000000 
0.500000 1.000000 0.000000 
0.048286 0.350170 0.000000 
0.500000 0.347445 0.000000 
0.256922 -0.220191 0.000000 
0.500000 0.047814 0.000000 
0.266247 0.048791 0.000000 
0.743078 -0.220191 0.000000 
0.733753 0.048791 0.000000 
0.969282 0.059167 0.000000 
0.726341 0.346961 0.000000 
0.949930 0.660460 0.000000 
0.730731 0.667435 0.000000 
0.750000 1.000000 0.000000 
0.500000 0.667821 0.000000 
0.250000 1.000000 0.000000 
0.269269 0.667435 0.000000 
0.050070 0.660460 0.000000 
0.273659 0.346961 0.000000 
0.030718 0.059167 0.000000 
0.133310 -0.215691 0.000000 
0.261099 -0.089838 0.000000 
0.140693 -0.085988 0.000000 
0.500000 -0.091469 0.000000 
0.380774 -0.091189 0.000000 
0.378978 -0.221988 0.000000 
0.385382 0.194440 0.000000 
0.383228 0.047945 0.000000 
0.500000 0.194474 0.000000 
0.621022 -0.221988 0.000000 
0.619226 -0.091189 0.000000 
0.859307 -0.085988 0.000000 
0.738901 -0.089838 0.000000 
0.866690 -0.215691 0.000000 
0.616772 0.047945 0.000000 
0.614618 0.194440 0.000000 
0.980286 -0.077708 0.000000 
0.851224 0.051746 0.000000 
0.838739 0.347112 0.000000 
0.843905 0.196346 0.000000 
0.959336 0.202058 0.000000 
0.729164 0.194664 0.000000 
0.613445 0.347303 0.000000 
0.947863 0.502990 0.000000 
0.837361 0.503638 0.000000 
0.855106 0.832303 0.000000 
0.841947 0.665651 0.000000 
0.961724 0.823226 0.000000 
0.726501 0.504891 0.000000 
0.613830 0.505478 0.000000 
0.875000 1.000000 0.000000 
0.739204 0.833044 0.000000 
0.500000 0.832890 0.000000 
0.620098 0.832952 0.000000 
0.625000 1.000000 0.000000 
0.616108 0.667779 0.000000 
0.500000 0.505632 0.000000 
0.375000 1.000000 0.000000 
0.379902 0.832952 0.000000 
0.144894 0.832303 0.000000 
0.260796 0.833044 0.000000 
0.125000 1.000000 0.000000 
0.383892 0.667779 0.000000 
0.386170 0.505478 0.000000 
0.038276 0.823226 0.000000 
0.158053 0.665651 0.000000 
0.161261 0.347112 0.000000 
0.162639 0.503638 0.000000 
0.052137 0.502990 0.000000 
0.273499 0.504891 0.000000 
0.386555 0.347303 0.000000 
0.040664 0.202058 0.000000 
0.156095 0.196346 0.000000 
0.148776 0.051746 0.000000 
0.019714 -0.077708 0.000000 
0.270836 0.194664 0.000000 
0.071057 -0.211908 0.000000 
0.136810 -0.151950 0.000000 
0.075532 -0.148317 0.000000 
0.258755 -0.156128 0.000000 
0.197904 -0.154480 0.000000 
0.195306 -0.218386 0.000000 
0.204289 -0.020175 0.000000 
0.200993 -0.088343 0.000000 
0.263664 -0.021487 0.000000 
0.500000 -0.158035 0.000000 
0.439899 -0.157959 0.000000 
0.439560 -0.222321 0.000000 
0.441014 -0.022769 0.000000 
0.440417 -0.091408 0.000000 
0.500000 -0.022813 0.000000 
0.318131 -0.221327 0.000000 
0.379709 -0.157689 0.000000 
0.319347 -0.157130 0.000000 
0.443041 0.270214 0.000000 
0.442681 0.194461 0.000000 
0.500000 0.270241 0.000000 
0.324780 0.048214 0.000000 
0.384387 0.120334 0.000000 
0.326561 0.120485 0.000000 
0.500000 0.120287 0.000000 
0.442196 0.120293 0.000000 
0.441625 0.047840 0.000000 
0.321017 -0.090718 0.000000 
0.381990 -0.022604 0.000000 
0.322886 -0.022227 0.000000 
0.560440 -0.222321 0.000000 
0.560101 -0.157959 0.000000 
0.680653 -0.157130 0.000000 
0.620291 -0.157689 0.000000 
0.681869 -0.221327 0.000000 
0.559583 -0.091408 0.000000 
0.558986 -0.022769 0.000000 
0.924468 -0.148317 0.000000 
0.863190 -0.151950 0.000000 
0.928943 -0.211908 0.000000 
0.736336 -0.021487 0.000000 
0.799007 -0.088343 0.000000 
0.795711 -0.020175 0.000000 
0.804694 -0.218386 0.000000 
0.802096 -0.154480 0.000000 
0.741245 -0.156128 0.000000 
0.557319 0.194461 0.000000 
0.556959 0.270214 0.000000 
0.558375 0.047840 0.000000 
0.557804 0.120293 0.000000 
0.673439 0.120485 0.000000 
0.615613 0.120334 0.000000 
0.675220 0.048214 0.000000 
0.678983 -0.090718 0.000000 
0.677114 -0.022227 0.000000 
0.618010 -0.022604 0.000000 
0.985815 -0.143459 0.000000 
0.919767 -0.082521 0.000000 
0.910200 0.054715 0.000000 
0.914956 -0.014783 0.000000 
0.974728 -0.010093 0.000000 
0.855256 -0.018037 0.000000 
0.792410 0.049879 0.000000 
0.895063 0.348012 0.000000 
0.897922 0.272550 0.000000 
0.955147 0.275493 0.000000 
0.784178 0.270286 0.000000 
0.840961 0.270990 0.000000 
0.782557 0.346885 0.000000 
0.964101 0.129921 0.000000 
0.901516 0.198472 0.000000 
0.905665 0.125834 0.000000 
0.613870 0.270139 0.000000 
0.556763 0.347415 0.000000 
0.731312 0.120876 0.000000 
0.671894 0.194470 0.000000 
0.669980 0.347135 0.000000 
0.670703 0.270059 0.000000 
0.727457 0.270058 0.000000 
0.847384 0.123239 0.000000 
0.786477 0.195200 0.000000 
0.789277 0.121704 0.000000 
0.949197 0.425999 0.000000 
0.893153 0.424827 0.000000 
0.893255 0.582513 0.000000 
0.892446 0.502987 0.000000 
0.947984 0.581133 0.000000 
0.837457 0.424672 0.000000 
0.781809 0.424930 0.000000 
0.922690 0.915279 0.000000 
0.909862 0.829986 0.000000 
0.974173 0.907633 0.000000 
0.786889 0.666860 0.000000 
0.847330 0.748530 0.000000 
0.791610 0.749600 0.000000 
0.954228 0.741073 0.000000 
0.901252 0.745928 0.000000 
0.895997 0.663462 0.000000 
0.613413 0.425797 0.000000 
0.556765 0.425925 0.000000 
0.725972 0.425277 0.000000 
0.669839 0.425579 0.000000 
0.671660 0.586014 0.000000 
0.670376 0.505256 0.000000 
0.728060 0.585668 0.000000 
0.838744 0.583980 0.000000 
0.783768 0.585035 0.000000 
0.782141 0.504345 0.000000 
0.937500 1.000000 0.000000 
0.864854 0.916335 0.000000 
0.744511 0.916424 0.000000 
0.805048 0.916470 0.000000 
0.812500 1.000000 0.000000 
0.797823 0.832928 0.000000 
0.734500 0.749975 0.000000 
0.500000 0.916225 0.000000 
0.561277 0.916239 0.000000 
0.562500 1.000000 0.000000 
0.559038 0.750065 0.000000 
0.560103 0.832906 0.000000 
0.500000 0.750058 0.000000 
0.687500 1.000000 0.000000 
0.622501 0.916281 0.000000 
0.683609 0.916347 0.000000 
0.556989 0.505595 0.000000 
0.500000 0.425966 0.000000 
0.673714 0.667683 0.000000 
0.614728 0.586192 0.000000 
0.500000 0.586299 0.000000 
0.557449 0.586275 0.000000 
0.558140 0.667812 0.000000 
0.679859 0.833012 0.000000 
0.617927 0.750081 0.000000 
0.676492 0.750076 0.000000 
0.437500 1.000000 0.000000 
0.438723 0.916239 0.000000 
0.316391 0.916347 0.000000 
0.377499 0.916281 0.000000 
0.312500 1.000000 0.000000 
0.439897 0.832906 0.000000 
0.440962 0.750065 0.000000 
0.077310 0.915279 0.000000 
0.135146 0.916335 0.000000 
0.062500 1.000000 0.000000 
0.265500 0.749975 0.000000 
0.202177 0.832928 0.000000 
0.208390 0.749600 0.000000 
0.187500 1.000000 0.000000 
0.194952 0.916470 0.000000 
0.255489 0.916424 0.000000 
0.443011 0.505595 0.000000 
0.443235 0.425925 0.000000 
0.441860 0.667812 0.000000 
0.442551 0.586275 0.000000 
0.328340 0.586014 0.000000 
0.385272 0.586192 0.000000 
0.326286 0.667683 0.000000 
0.320141 0.833012 0.000000 
0.323508 0.750076 0.000000 
0.382073 0.750081 0.000000 
0.025827 0.907633 0.000000 
0.090138 0.829986 0.000000 
0.104003 0.663462 0.000000 
0.098748 0.745928 0.000000 
0.045772 0.741073 0.000000 
0.152670 0.748530 0.000000 
0.213111 0.666860 0.000000 
0.104937 0.348012 0.000000 
0.106847 0.424827 0.000000 
0.050803 0.425999 0.000000 
0.218191 0.424930 0.000000 
0.162543 0.424672 0.000000 
0.217443 0.346885 0.000000 
0.052016 0.581133 0.000000 
0.107554 0.502987 0.000000 
0.106745 0.582513 0.000000 
0.386587 0.425797 0.000000 
0.443237 0.347415 0.000000 
0.271940 0.585668 0.000000 
0.329624 0.505256 0.000000 
0.330020 0.347135 0.000000 
0.330161 0.425579 0.000000 
0.274028 0.425277 0.000000 
0.161256 0.583980 0.000000 
0.217859 0.504345 0.000000 
0.216232 0.585035 0.000000 
0.044853 0.275493 0.000000 
0.102078 0.272550 0.000000 
0.094335 0.125834 0.000000 
0.098484 0.198472 0.000000 
0.035899 0.129921 0.000000 
0.159039 0.270990 0.000000 
0.215822 0.270286 0.000000 
0.080233 -0.082521 0.000000 
0.014185 -0.143459 0.000000 
0.207590 0.049879 0.000000 
0.144744 -0.018037 0.000000 
0.025272 -0.010093 0.000000 
0.085044 -0.014783 0.000000 
0.089800 0.054715 0.000000 
0.386130 0.270139 0.000000 
0.272543 0.270058 0.000000 
0.329297 0.270059 0.000000 
0.328106 0.194470 0.000000 
0.268688 0.120876 0.000000 
0.152616 0.123239 0.000000 
0.210723 0.121704 0.000000 
0.213523 0.195200 0.000000 
0.039906 -0.209583 0.000000 
0.073264 -0.180409 0.000000 
0.042361 -0.178111 0.000000 
0.134996 -0.184118 0.000000 
0.104148 -0.182410 0.000000 
0.102203 -0.213944 0.000000 
0.108306 -0.117604 0.000000 
0.106189 -0.150282 0.000000 
0.138719 -0.119230 0.000000 
0.257750 -0.188450 0.000000 
0.227175 -0.187685 0.000000 
0.226166 -0.219386 0.000000 
0.229673 -0.122557 0.000000 
0.228362 -0.155400 0.000000 
0.259884 -0.123251 0.000000 
0.164350 -0.217164 0.000000 
0.196521 -0.186728 0.000000 
0.165791 -0.185548 0.000000 
0.235476 0.013939 0.000000 
0.233997 -0.020917 0.000000 
0.264964 0.013419 0.000000 
0.170866 -0.087289 0.000000 
0.202629 -0.054503 0.000000 
0.172691 -0.053499 0.000000 
0.262368 -0.055911 0.000000 
0.232520 -0.055296 0.000000 
0.231070 -0.089183 0.000000 
0.167385 -0.153340 0.000000 
0.199408 -0.121676 0.000000 
0.169088 -0.120577 0.000000 
0.500000 -0.190501 0.000000 
0.469856 -0.190483 0.000000 
0.469790 -0.222395 0.000000 
0.470076 -0.125004 0.000000 
0.469955 -0.158017 0.000000 
0.500000 -0.125020 0.000000 
0.409295 -0.222189 0.000000 
0.439699 -0.190418 0.000000 
0.409514 -0.190300 0.000000 
0.470663 0.012270 0.000000 
0.470510 -0.022802 0.000000 
0.500000 0.012262 0.000000 
0.410606 -0.091323 0.000000 
0.440710 -0.057342 0.000000 
0.411050 -0.057268 0.000000 
0.500000 -0.057395 0.000000 
0.470358 -0.057382 0.000000 
0.470212 -0.091454 0.000000 
0.287576 -0.220829 0.000000 
0.318662 -0.189513 0.000000 
0.288245 -0.189050 0.000000 
0.379287 -0.190119 0.000000 
0.349006 -0.189863 0.000000 
0.348594 -0.221706 0.000000 
0.350199 -0.124492 0.000000 
0.349554 -0.157453 0.000000 
0.380213 -0.124707 0.000000 
0.440143 -0.124951 0.000000 
0.410191 -0.124856 0.000000 
[...]
POINT_DATA 16641

SCALARS u_h float 2
LOOKUP_TABLE default
0.008789 -0.207028 
-0.008789 -0.207028 
0.000000 0.000000 
0.000000 0.000000 
0.000000 -0.222405 
-0.048286 -0.149830 
0.000000 0.000000 
0.048286 -0.149830 
-0.000000 -0.152555 
0.006922 -0.220191 
0.000000 -0.202186 
0.016247 -0.201209 
-0.006922 -0.220191 
-0.016247 -0.201209 
-0.030718 -0.190833 
-0.023659 -0.153039 
-0.050070 -0.089540 
-0.019269 -0.082565 
0.000000 0.000000 
-0.000000 -0.082179 
0.000000 0.000000 
0.019269 -0.082565 
0.050070 -0.089540 
0.023659 -0.153039 
0.030718 -0.190833 
0.008310 -0.215691 
0.011099 -0.214838 
0.015693 -0.210988 
0.000000 -0.216469 
0.005774 -0.216189 
0.003978 -0.221988 
0.010382 -0.180560 
0.008228 -0.202055 
0.000000 -0.180526 
-0.003978 -0.221988 
-0.005774 -0.216189 
-0.015693 -0.210988 
-0.011099 -0.214838 
-0.008310 -0.215691 
-0.008228 -0.202055 
-0.010382 -0.180560 
-0.019714 -0.202708 
-0.023776 -0.198254 
-0.036261 -0.152888 
-0.031095 -0.178654 
-0.040664 -0.172942 
-0.020836 -0.180336 
-0.011555 -0.152697 
-0.052137 -0.122010 
-0.037639 -0.121362 
-0.019894 -0.042697 
-0.033053 -0.084349 
-0.038276 -0.051774 
-0.023499 -0.120109 
-0.011170 -0.119522 
0.000000 0.000000 
-0.010796 -0.041956 
-0.000000 -0.042110 
-0.004902 -0.042048 
0.000000 0.000000 
-0.008892 -0.082221 
-0.000000 -0.119368 
0.000000 0.000000 
0.004902 -0.042048 
0.019894 -0.042697 
0.010796 -0.041956 
0.000000 0.000000 
0.008892 -0.082221 
0.011170 -0.119522 
0.038276 -0.051774 
0.033053 -0.084349 
0.036261 -0.152888 
0.037639 -0.121362 
0.052137 -0.122010 
0.023499 -0.120109 
0.011555 -0.152697 
0.040664 -0.172942 
0.031095 -0.178654 
0.023776 -0.198254 
0.019714 -0.202708 
0.020836 -0.180336 
0.008557 -0.211908 
0.011810 -0.214450 
0.013032 -0.210817 
0.008755 -0.218628 
0.010404 -0.216980 
0.007806 -0.218386 
0.016789 -0.207675 
0.013493 -0.213343 
0.013664 -0.208987 
0.000000 -0.220535 
0.002399 -0.220459 
0.002060 -0.222321 
0.003514 -0.210269 
0.002917 -0.216408 
0.000000 -0.210313 
0.005631 -0.221327 
0.004709 -0.220189 
0.006847 -0.219630 
0.005541 -0.167286 
0.005181 -0.180539 
-0.000000 -0.167259 
0.012280 -0.201786 
0.009387 -0.192166 
0.014061 -0.192015 
0.000000 -0.192213 
0.004696 -0.192207 
0.004125 -0.202160 
0.008517 -0.215718 
0.006990 -0.210104 
0.010386 -0.209727 
-0.002060 -0.222321 
-0.002399 -0.220459 
-0.006847 -0.219630 
-0.004709 -0.220189 
-0.005631 -0.221327 
-0.002917 -0.216408 
-0.003514 -0.210269 
-0.013032 -0.210817 
-0.011810 -0.214450 
-0.008557 -0.211908 
-0.013664 -0.208987 
-0.013493 -0.213343 
-0.016789 -0.207675 
-0.007806 -0.218386 
-0.010404 -0.216980 
-0.008755 -0.218628 
-0.005181 -0.180539 
-0.005541 -0.167286 
-0.004125 -0.202160 
-0.004696 -0.192207 
-0.014061 -0.192015 
-0.009387 -0.192166 
-0.012280 -0.201786 
-0.008517 -0.215718 
-0.010386 -0.209727 
-0.006990 -0.210104 
-0.014185 -0.205959 
-0.017733 -0.207521 
-0.027300 -0.195285 
-0.022544 -0.202283 
-0.025272 -0.197593 
-0.019744 -0.205537 
-0.020090 -0.200121 
-0.042437 -0.151988 
-0.039578 -0.164950 
-0.044853 -0.162007 
-0.028322 -0.167214 
-0.034039 -0.166510 
-0.029943 -0.153115 
-0.035899 -0.182579 
-0.035984 -0.176528 
-0.031835 -0.186666 
-0.011130 -0.167361 
-0.005737 -0.152585 
-0.018688 -0.191624 
-0.015606 -0.180530 
-0.017520 -0.152865 
-0.016797 -0.167441 
-0.022543 -0.167442 
-0.027616 -0.189261 
-0.026023 -0.179800 
-0.023223 -0.190796 
-0.050803 -0.136501 
-0.044347 -0.137673 
-0.044245 -0.104987 
-0.045054 -0.122013 
-0.052016 -0.106367 
-0.037543 -0.137828 
-0.030691 -0.137570 
-0.014810 -0.022221 
-0.027638 -0.045014 
-0.025827 -0.029867 
-0.025611 -0.083140 
-0.027670 -0.063970 
-0.020890 -0.062900 
-0.045772 -0.071427 
-0.036248 -0.066572 
-0.041503 -0.086538 
-0.011587 -0.136703 
-0.005735 -0.136575 
-0.024028 -0.137223 
-0.017661 -0.136921 
-0.015840 -0.101486 
-0.017124 -0.119744 
-0.021940 -0.101832 
-0.036256 -0.103520 
-0.028732 -0.102465 
-0.030359 -0.120655 
0.000000 0.000000 
-0.010146 -0.021165 
-0.005489 -0.021076 
-0.007452 -0.021030 
0.000000 0.000000 
-0.014677 -0.042072 
-0.015500 -0.062525 
-0.000000 -0.021275 
-0.001223 -0.021261 
0.000000 0.000000 
-0.003462 -0.062435 
-0.002397 -0.042094 
-0.000000 -0.062442 
0.000000 0.000000 
-0.002499 -0.021219 
-0.003891 -0.021153 
-0.005511 -0.119405 
-0.000000 -0.136534 
-0.013786 -0.082317 
-0.010272 -0.101308 
-0.000000 -0.101201 
-0.005051 -0.101225 
-0.004360 -0.082188 
-0.007641 -0.041988 
-0.007073 -0.062419 
-0.011008 -0.062424 
0.000000 0.000000 
0.001223 -0.021261 
0.003891 -0.021153 
0.002499 -0.021219 
0.000000 0.000000 
0.002397 -0.042094 
0.003462 -0.062435 
0.014810 -0.022221 
0.010146 -0.021165 
0.000000 0.000000 
0.015500 -0.062525 
0.014677 -0.042072 
0.020890 -0.062900 
0.000000 0.000000 
0.007452 -0.021030 
0.005489 -0.021076 
0.005511 -0.119405 
0.005735 -0.136575 
0.004360 -0.082188 
0.005051 -0.101225 
0.015840 -0.101486 
0.010272 -0.101308 
0.013786 -0.082317 
0.007641 -0.041988 
0.011008 -0.062424 
0.007073 -0.062419 
0.025827 -0.029867 
0.027638 -0.045014 
0.041503 -0.086538 
0.036248 -0.066572 
0.045772 -0.071427 
0.027670 -0.063970 
0.025611 -0.083140 
0.042437 -0.151988 
0.044347 -0.137673 
0.050803 -0.136501 
0.030691 -0.137570 
0.037543 -0.137828 
0.029943 -0.153115 
0.052016 -0.106367 
0.045054 -0.122013 
0.044245 -0.104987 
0.011587 -0.136703 
0.005737 -0.152585 
0.021940 -0.101832 
0.017124 -0.119744 
0.017520 -0.152865 
0.017661 -0.136921 
0.024028 -0.137223 
0.036256 -0.103520 
0.030359 -0.120655 
0.028732 -0.102465 
0.044853 -0.162007 
0.039578 -0.164950 
0.031835 -0.186666 
0.035984 -0.176528 
0.035899 -0.182579 
0.034039 -0.166510 
0.028322 -0.167214 
0.017733 -0.207521 
0.014185 -0.205959 
0.020090 -0.200121 
0.019744 -0.205537 
0.025272 -0.197593 
0.022544 -0.202283 
0.027300 -0.195285 
0.011130 -0.167361 
0.022543 -0.167442 
0.016797 -0.167441 
0.015606 -0.180530 
0.018688 -0.191624 
0.027616 -0.189261 
0.023223 -0.190796 
0.026023 -0.179800 
0.008656 -0.209583 
0.010764 -0.211659 
0.011111 -0.209361 
0.009996 -0.215368 
0.010398 -0.213660 
0.008453 -0.213944 
0.014556 -0.211354 
0.012439 -0.212782 
0.013719 -0.212980 
0.007750 -0.219700 
0.008425 -0.218935 
0.007416 -0.219386 
0.010923 -0.216307 
0.009612 -0.217900 
0.009884 -0.217001 
0.008100 -0.217164 
0.009021 -0.217978 
0.009541 -0.216798 
0.016726 -0.204811 
0.015247 -0.208417 
0.014964 -0.205331 
0.014616 -0.212289 
0.015129 -0.210753 
0.016441 -0.209749 
0.012368 -0.212161 
0.013770 -0.211546 
0.012320 -0.214183 
0.011135 -0.215840 
0.011908 -0.215426 
0.012838 -0.214327 
0.000000 -0.221751 
0.001106 -0.221733 
0.001040 -0.222395 
0.001326 -0.218754 
0.001205 -0.220517 
0.000000 -0.218770 
0.003045 -0.222189 
0.002199 -0.221668 
0.003264 -0.221550 
0.001913 -0.206480 
0.001760 -0.210302 
0.000000 -0.206488 
0.004356 -0.216323 
0.003210 -0.213592 
0.004800 -0.213518 
0.000000 -0.213645 
0.001608 -0.213632 
0.001462 -0.216454 
0.006326 -0.220829 
0.006162 -0.220763 
0.006995 -0.220300 
0.004287 -0.221369 
0.005256 -0.221113 
0.004844 -0.221706 
0.006449 -0.218242 
0.005804 -0.219953 
0.005213 -0.218457 
0.002643 -0.218701 
0.003941 -0.218606 
0.003571 -0.220352 
0.002826 -0.160083 
0.002767 -0.167266 
-0.000000 -0.160076 
0.007778 -0.180551 
0.005379 -0.174102 
0.008080 -0.174126 
-0.000000 -0.174082 
0.002687 -0.174087 
0.002589 -0.180530 
0.014277 -0.201548 
0.013193 -0.197122 
0.015355 -0.196925 
0.008823 -0.197333 
0.011014 -0.197252 
0.010262 -0.201949 
0.012391 -0.186541 
0.011728 -0.192111 
0.009910 -0.186570 
0.000000 -0.197422 
0.002210 -0.197418 
0.002064 -0.202180 
0.002475 -0.186577 
0.002348 -0.192212 
0.000000 -0.186576 
0.006181 -0.202121 
0.004418 -0.197406 
0.006623 -0.197380 
0.007430 -0.186579 
0.007042 -0.192194 
0.004952 -0.186579 
0.007832 -0.219196 
0.007163 -0.215994 
0.007644 -0.217942 
0.008790 -0.217536 
0.009830 -0.215341 
0.003822 -0.206453 
0.007613 -0.206317 
0.005723 -0.206402 
0.005260 -0.210206 
0.006372 -0.213400 
0.013167 -0.205716 
0.010922 -0.212628 
0.012042 -0.209414 
0.011339 -0.205993 
0.009486 -0.206186 
0.007920 -0.213224 
0.008700 -0.209950 
0.009438 -0.212974 
-0.001040 -0.222395 
-0.001106 -0.221733 
-0.003264 -0.221550 
-0.002199 -0.221668 
-0.003045 -0.222189 
-0.001205 -0.220517 
-0.001326 -0.218754 
-0.006995 -0.220300 
-0.006162 -0.220763 
-0.006326 -0.220829 
-0.005213 -0.218457 
-0.005804 -0.219953 
-0.006449 -0.218242 
-0.004844 -0.221706 
-0.005256 -0.221113 
-0.004287 -0.221369 
-0.001760 -0.210302 
-0.001913 -0.206480 
-0.001462 -0.216454 
-0.001608 -0.213632 
-0.004800 -0.213518 
-0.003210 -0.213592 
-0.004356 -0.216323 
-0.003571 -0.220352 
-0.003941 -0.218606 
-0.002643 -0.218701 
-0.011111 -0.209361 
-0.010764 -0.211659 
-0.008656 -0.209583 
-0.013719 -0.212980 
-0.012439 -0.212782 
-0.014556 -0.211354 
-0.008453 -0.213944 
-0.010398 -0.213660 
-0.009996 -0.215368 
-0.014964 -0.205331 
-0.015247 -0.208417 
-0.016726 -0.204811 
-0.012320 -0.214183 
-0.013770 -0.211546 
-0.012368 -0.212161 
-0.016441 -0.209749 
-0.015129 -0.210753 
-0.014616 -0.212289 
-0.007416 -0.219386 
-0.008425 -0.218935 
-0.007750 -0.219700 
-0.009541 -0.216798 
-0.009021 -0.217978 
-0.008100 -0.217164 
-0.009884 -0.217001 
-0.009612 -0.217900 
-0.010923 -0.216307 
-0.012838 -0.214327 
-0.011908 -0.215426 
-0.011135 -0.215840 
-0.002767 -0.167266 
-0.002826 -0.160083 
-0.002589 -0.180530 
-0.002687 -0.174087 
-0.008080 -0.174126 
-0.005379 -0.174102 
-0.007778 -0.180551 
-0.002064 -0.202180 
-0.002210 -0.197418 
-0.006623 -0.197380 
-0.004418 -0.197406 
-0.006181 -0.202121 
-0.002348 -0.192212 
-0.002475 -0.186577 
-0.015355 -0.196925 
-0.013193 -0.197122 
-0.014277 -0.201548 
-0.009910 -0.186570 
-0.011728 -0.192111 
-0.012391 -0.186541 
-0.010262 -0.201949 
-0.011014 -0.197252 
-0.008823 -0.197333 
-0.004952 -0.186579 
-0.007042 -0.192194 
-0.007430 -0.186579 
-0.007832 -0.219196 
-0.009830 -0.215341 
-0.008790 -0.217536 
-0.007644 -0.217942 
-0.007163 -0.215994 
-0.013167 -0.205716 
-0.009486 -0.206186 
-0.011339 -0.205993 
-0.012042 -0.209414 
-0.010922 -0.212628 
-0.003822 -0.206453 
-0.006372 -0.213400 
-0.005260 -0.210206 
-0.005723 -0.206402 
-0.007613 -0.206317 
-0.009438 -0.212974 
-0.008700 -0.209950 
-0.007920 -0.213224 
-0.011463 -0.206788 
-0.013605 -0.208543 
-0.018720 -0.205297 
-0.016145 -0.207175 
-0.016938 -0.204585 
-0.015359 -0.209426 
-0.016729 -0.209409 
-0.029015 -0.193271 
-0.026482 -0.196908 
-0.028019 -0.194408 
-0.023373 -0.200715 
-0.024939 -0.198994 
-0.025556 -0.196930 
-0.022498 -0.200368 
-0.023908 -0.200139 
-0.021314 -0.202943 
-0.018450 -0.204126 
-0.018187 -0.200744 
-0.017710 -0.208500 
-0.018288 -0.206727 
-0.021954 -0.199303 
-0.020133 -0.203240 
-0.021773 -0.202116 
-0.020135 -0.205132 
-0.021160 -0.204068 
-0.018938 -0.206973 
-0.045412 -0.151115 
-0.043934 -0.157563 
-0.046677 -0.156073 
-0.038213 -0.159387 
-0.041111 -0.158640 
-0.039379 -0.152553 
-0.042841 -0.167632 
-0.042250 -0.163689 
-0.040381 -0.169488 
-0.026201 -0.160418 
-0.029229 -0.160350 
-0.026788 -0.153099 
-0.032645 -0.172771 
-0.031195 -0.166942 
-0.029963 -0.173325 
-0.033108 -0.153058 
-0.032252 -0.160184 
-0.035253 -0.159881 
-0.033351 -0.186885 
-0.033882 -0.184839 
-0.031489 -0.189243 
-0.038348 -0.174951 
-0.036175 -0.180072 
-0.038344 -0.177927 
-0.031714 -0.183122 
-0.033968 -0.181782 
-0.033566 -0.177741 
-0.036838 -0.165867 
-0.035281 -0.171987 
-0.037861 -0.170915 
-0.005662 -0.160108 
-0.002863 -0.152556 
-0.010791 -0.174152 
-0.008327 -0.167320 
-0.008631 -0.152632 
-0.008513 -0.160150 
-0.011387 -0.160204 
-0.017495 -0.196636 
-0.016383 -0.191861 
-0.018222 -0.180463 
-0.017344 -0.186369 
-0.019808 -0.186187 
-0.014870 -0.186480 
-0.012991 -0.180557 
-0.020568 -0.152956 
-0.020190 -0.160388 
-0.023185 -0.160423 
-0.014290 -0.160267 
-0.017224 -0.160332 
-0.014516 -0.152776 
-0.021754 -0.174084 
-0.019662 -0.167459 
-0.019001 -0.174155 
-0.013516 -0.174173 
-0.016253 -0.174179 
-0.013953 -0.167405 
-0.029605 -0.191171 
-0.029411 -0.184154 
-0.029747 -0.188121 
-0.027688 -0.192727 
-0.025730 -0.193965 
-0.025433 -0.167370 
-0.023439 -0.180125 
-0.024505 -0.173942 
-0.027245 -0.173701 
-0.028578 -0.179324 
-0.019608 -0.196229 
-0.023730 -0.194932 
-0.021688 -0.195673 
-0.020970 -0.191280 
-0.022254 -0.185908 
-0.027063 -0.184931 
-0.024675 -0.185501 
-0.025440 -0.190137 
-0.049681 -0.143315 
-0.046657 -0.144348 
-0.048317 -0.129866 
-0.047635 -0.137265 
-0.051633 -0.129399 
-0.043525 -0.144999 
-0.040308 -0.145367 
-0.047303 -0.097049 
-0.048210 -0.105750 
-0.051299 -0.098106 
-0.041357 -0.121721 
-0.044862 -0.113674 
-0.041004 -0.113144 
-0.052279 -0.114333 
-0.048647 -0.114114 
-0.048668 -0.122150 
-0.030439 -0.145519 
-0.027170 -0.145421 
-0.037034 -0.145535 
-0.033735 -0.145569 
-0.034191 -0.129531 
-0.034106 -0.137724 
-0.037757 -0.129769 
-0.044869 -0.130012 
-0.041332 -0.129950 
-0.040970 -0.137832 
-0.009654 -0.011883 
-0.019208 -0.024296 
-0.016219 -0.017258 
-0.023356 -0.043506 
-0.021765 -0.033701 
-0.018010 -0.032478 
-0.032860 -0.041189 
-0.026829 -0.036295 
-0.032774 -0.047665 
-0.022315 -0.082796 
-0.023451 -0.073116 
-0.020348 -0.072815 
-0.030654 -0.074297 
-0.026874 -0.073587 
-0.029187 -0.083641 
-0.020787 -0.052850 
-0.024071 -0.063306 
-0.024079 -0.053413 
-0.048257 -0.080655 
-0.043807 -0.078568 
-0.045862 -0.087996 
-0.037422 -0.058454 
-0.041038 -0.068735 
-0.042499 -0.061819 
-0.037185 -0.085308 
-0.039235 -0.076751 
-0.034796 -0.075329 
-0.027938 -0.054386 
-0.031736 -0.065012 
-0.032426 -0.055990 
-0.005763 -0.144734 
-0.002876 -0.144704 
-0.011624 -0.144858 
-0.008675 -0.144786 
-0.008520 -0.128177 
-0.008640 -0.136628 
-0.011438 -0.128252 
-0.023947 -0.145301 
-0.020778 -0.145175 
-0.020635 -0.128634 
-0.020805 -0.137063 
-0.023884 -0.128821 
-0.017669 -0.145056 
-0.014620 -0.144949 
-0.017742 -0.092129 
-0.018812 -0.101632 
-0.020746 -0.092310 
-0.014102 -0.119618 
-0.016579 -0.110740 
-0.013630 -0.110621 
-0.022855 -0.111106 
-0.019648 -0.110898 
-0.020253 -0.119906 
-0.014591 -0.136801 
-0.017483 -0.128478 
-0.014421 -0.128351 
-0.043147 -0.095946 
-0.034905 -0.094096 
-0.038973 -0.094938 
-0.040226 -0.104217 
-0.037153 -0.112611 
-0.023947 -0.092569 
-0.026211 -0.111374 
-0.025242 -0.102104 
-0.027368 -0.092933 
-0.031023 -0.093432 
-0.027326 -0.137396 
-0.033959 -0.120995 
-0.030674 -0.129279 
-0.027233 -0.129038 
-0.026868 -0.120358 
-0.032409 -0.102934 
-0.029721 -0.111713 
-0.033377 -0.112126 
0.000000 0.000000 
-0.007206 -0.010903 
-0.004995 -0.010524 
-0.005899 -0.010618 
0.000000 0.000000 
-0.012066 -0.021461 
-0.015195 -0.031914 
-0.002741 -0.010561 
-0.003194 -0.010534 
0.000000 0.000000 
-0.009576 -0.031532 
-0.006410 -0.021044 
-0.008192 -0.031545 
0.000000 0.000000 
-0.003703 -0.010511 
-0.004290 -0.010502 
-0.018055 -0.062660 
-0.017516 -0.072627 
-0.017061 -0.042278 
-0.017950 -0.052535 
-0.013248 -0.052291 
-0.015465 -0.052370 
-0.012618 -0.041982 
-0.008667 -0.021055 
-0.011146 -0.031557 
-0.012977 -0.031660 
-0.000000 -0.010690 
-0.000305 -0.010688 
0.000000 0.000000 
-0.000905 -0.031747 
-0.000608 -0.021272 
-0.000000 -0.031751 
0.000000 0.000000 
-0.000614 -0.010682 
-0.000929 -0.010671 
-0.001957 -0.072393 
-0.001722 -0.062441 
-0.000000 -0.072392 
-0.003629 -0.042074 
-0.002947 -0.052331 
-0.004461 -0.052316 
-0.000000 -0.052344 
-0.001466 -0.052341 
-0.001192 -0.042106 
0.000000 0.000000 
-0.001949 -0.010614 
-0.002329 -0.010588 
-0.001253 -0.010656 
-0.001592 -0.010637 
0.000000 0.000000 
-0.004731 -0.031651 
-0.003176 -0.021188 
-0.003721 -0.031685 
-0.001820 -0.031734 
-0.002755 -0.031713 
-0.001851 -0.021244 
-0.002861 -0.136544 
-0.000000 -0.144695 
-0.008313 -0.119452 
-0.005652 -0.128126 
-0.000000 -0.128085 
-0.002818 -0.128095 
-0.002746 -0.119377 
-0.016438 -0.082414 
-0.014908 -0.092004 
-0.009641 -0.091863 
-0.012217 -0.091920 
-0.011281 -0.082257 
-0.013001 -0.101381 
-0.010782 -0.110534 
-0.000000 -0.091788 
-0.002356 -0.091792 
-0.002170 -0.082182 
-0.002645 -0.110408 
-0.002515 -0.101207 
-0.000000 -0.110400 
-0.006594 -0.082200 
-0.004734 -0.091805 
-0.007154 -0.091827 
-0.008016 -0.110473 
-0.007629 -0.101258 
-0.005310 -0.110432 
-0.004657 -0.021114 
-0.006233 -0.042018 
-0.005799 -0.031613 
-0.006945 -0.031576 
-0.009152 -0.041964 
-0.003935 -0.072393 
-0.008033 -0.072400 
-0.005953 -0.072394 
-0.005239 -0.062427 
-0.006025 -0.052297 
-0.014907 -0.072514 
-0.011238 -0.052264 
-0.013167 -0.062455 
-0.012481 -0.072450 
-0.010200 -0.072416 
-0.007659 -0.052278 
-0.008988 -0.062416 
-0.009387 -0.052264 
0.000000 0.000000 
0.000305 -0.010688 
0.000929 -0.010671 
0.000614 -0.010682 
0.000000 0.000000 
0.000608 -0.021272 
0.000905 -0.031747 
0.002329 -0.010588 
0.001949 -0.010614 
0.000000 0.000000 
0.003721 -0.031685 
0.003176 -0.021188 
0.004731 -0.031651 
0.000000 0.000000 
0.001592 -0.010637 
0.001253 -0.010656 
0.001722 -0.062441 
0.001957 -0.072393 
0.001192 -0.042106 
0.001466 -0.052341 
0.004461 -0.052316 
0.002947 -0.052331 
0.003629 -0.042074 
0.001851 -0.021244 
0.002755 -0.031713 
0.001820 -0.031734 
0.009654 -0.011883 
0.007206 -0.010903 
0.000000 0.000000 
0.015195 -0.031914 
0.012066 -0.021461 
0.018010 -0.032478 
0.000000 0.000000 
0.005899 -0.010618 
0.004995 -0.010524 
0.017516 -0.072627 
0.018055 -0.062660 
0.020348 -0.072815 
0.012618 -0.041982 
0.015465 -0.052370 
0.013248 -0.052291 
0.020787 -0.052850 
0.017950 -0.052535 
0.017061 -0.042278 
0.000000 0.000000 
0.003194 -0.010534 
0.002741 -0.010561 
0.004290 -0.010502 
0.003703 -0.010511 
0.000000 0.000000 
0.008192 -0.031545 
0.006410 -0.021044 
0.009576 -0.031532 
0.012977 -0.031660 
0.011146 -0.031557 
0.008667 -0.021055 
0.002861 -0.136544 
0.002876 -0.144704 
0.002746 -0.119377 
0.002818 -0.128095 
0.008520 -0.128177 
0.005652 -0.128126 
0.008313 -0.119452 
0.002170 -0.082182 
0.002356 -0.091792 
0.007154 -0.091827 
0.004734 -0.091805 
0.006594 -0.082200 
0.002515 -0.101207 
0.002645 -0.110408 
0.017742 -0.092129 
0.014908 -0.092004 
0.016438 -0.082414 
0.010782 -0.110534 
0.013001 -0.101381 
0.013630 -0.110621 
0.011281 -0.082257 
0.012217 -0.091920 
0.009641 -0.091863 
0.005310 -0.110432 
0.007629 -0.101258 
0.008016 -0.110473 
0.004657 -0.021114 
0.009152 -0.041964 
0.006945 -0.031576 
0.005799 -0.031613 
0.006233 -0.042018 
0.014907 -0.072514 
0.010200 -0.072416 
0.012481 -0.072450 
0.013167 -0.062455 
0.011238 -0.052264 
0.003935 -0.072393 
0.006025 -0.052297 
0.005239 -0.062427 
0.005953 -0.072394 
0.008033 -0.072400 
0.009387 -0.052264 
0.008988 -0.062416 
0.007659 -0.052278 
0.016219 -0.017258 
0.019208 -0.024296 
0.032774 -0.047665 
0.026829 -0.036295 
0.032860 -0.041189 
0.021765 -0.033701 
0.023356 -0.043506 
0.045862 -0.087996 
0.043807 -0.078568 
0.048257 -0.080655 
0.034796 -0.075329 
0.039235 -0.076751 
0.037185 -0.085308 
0.042499 -0.061819 
0.041038 -0.068735 
0.037422 -0.058454 
0.023451 -0.073116 
0.022315 -0.082796 
0.024079 -0.053413 
0.024071 -0.063306 
0.029187 -0.083641 
0.026874 -0.073587 
0.030654 -0.074297 
0.032426 -0.055990 
0.031736 -0.065012 
0.027938 -0.054386 
0.045412 -0.151115 
0.046657 -0.144348 
0.049681 -0.143315 
0.040308 -0.145367 
0.043525 -0.144999 
0.039379 -0.152553 
0.051633 -0.129399 
0.047635 -0.137265 
0.048317 -0.129866 
0.027170 -0.145421 
0.030439 -0.145519 
0.026788 -0.153099 
0.037757 -0.129769 
0.034106 -0.137724 
0.034191 -0.129531 
0.033108 -0.153058 
0.033735 -0.145569 
0.037034 -0.145535 
0.051299 -0.098106 
0.048210 -0.105750 
0.047303 -0.097049 
0.048668 -0.122150 
0.048647 -0.114114 
0.052279 -0.114333 
0.041004 -0.113144 
0.044862 -0.113674 
0.041357 -0.121721 
0.040970 -0.137832 
0.041332 -0.129950 
0.044869 -0.130012 
0.005763 -0.144734 
0.002863 -0.152556 
0.011438 -0.128252 
0.008640 -0.136628 
0.008631 -0.152632 
0.008675 -0.144786 
0.011624 -0.144858 
0.020746 -0.092310 
0.018812 -0.101632 
0.020253 -0.119906 
0.019648 -0.110898 
0.022855 -0.111106 
0.016579 -0.110740 
0.014102 -0.119618 
0.020568 -0.152956 
0.020778 -0.145175 
0.023947 -0.145301 
0.014620 -0.144949 
0.017669 -0.145056 