# vtk DataFile Version 2.0
Unstructured Grid Example
ASCII
DATASET UNSTRUCTURED_GRID

POINTS 64 float
0.000000 0.000000 0.000000 
0.031250 0.000000 0.000000 
0.031250 0.000000 0.000000 
0.062500 0.000000 0.000000 
0.062500 0.000000 0.000000 
0.093750 0.000000 0.000000 
0.093750 0.000000 0.000000 
0.125000 0.000000 0.000000 
0.187500 0.000000 0.000000 
0.218750 0.000000 0.000000 
0.218750 0.000000 0.000000 
0.250000 0.000000 0.000000 
0.125000 0.000000 0.000000 
0.156250 0.000000 0.000000 
0.156250 0.000000 0.000000 
0.187500 0.000000 0.000000 
0.437500 -14.050582 0.000000 
0.468750 1.856579 0.000000 
0.468750 105.332138 0.000000 
0.500000 -221.001700 0.000000 
0.375000 -2.434481 0.000000 
0.406250 -7.734101 0.000000 
0.406250 -3.186927 0.000000 
0.437500 -11.528829 0.000000 
0.250000 0.242618 0.000000 
0.281250 -0.485236 0.000000 
0.281250 1.228195 0.000000 
0.312500 -3.184243 0.000000 
0.312500 -0.555240 0.000000 
0.343750 -4.029813 0.000000 
0.343750 -1.542222 0.000000 
0.375000 -5.530421 0.000000 
0.500000 -221.001700 0.000000 
0.531250 105.332138 0.000000 
0.531250 1.856579 0.000000 
0.562500 -14.050582 0.000000 
0.562500 -11.528829 0.000000 
0.593750 -3.186927 0.000000 
0.593750 -7.734101 0.000000 
0.625000 -2.434481 0.000000 
0.687500 -3.184243 0.000000 
0.718750 1.228195 0.000000 
0.718750 -0.485236 0.000000 
0.750000 0.242618 0.000000 
0.625000 -5.530421 0.000000 
0.656250 -1.542222 0.000000 
0.656250 -4.029813 0.000000 
0.687500 -0.555240 0.000000 
0.937500 0.000000 0.000000 
0.968750 0.000000 0.000000 
0.968750 0.000000 0.000000 
1.000000 0.000000 0.000000 
0.875000 0.000000 0.000000 
0.906250 0.000000 0.000000 
0.906250 0.000000 0.000000 
0.937500 0.000000 0.000000 
0.750000 0.000000 0.000000 
0.781250 0.000000 0.000000 
0.781250 0.000000 0.000000 
0.812500 0.000000 0.000000 
0.812500 0.000000 0.000000 
0.843750 0.000000 0.000000 
0.843750 0.000000 0.000000 
0.875000 0.000000 0.000000 

CELLS 32 96
2  0 1 
2  2 3 
2  4 5 
2  6 7 
2  8 9 
2  10 11 
2  12 13 
2  14 15 
2  16 17 
2  18 19 
2  20 21 
2  22 23 
2  24 25 
2  26 27 
2  28 29 
2  30 31 
2  32 33 
2  34 35 
2  36 37 
2  38 39 
2  40 41 
2  42 43 
2  44 45 
2  46 47 
2  48 49 
2  50 51 
2  52 53 
2  54 55 
2  56 57 
2  58 59 
2  60 61 
2  62 63 

CELL_TYPES 32
3
3
3
3
3
3
3
3
3
3
3
3
3
3
3
3
3
3
3
3
3
3
3
3
3
3
3
3
3
3
3
3

POINT_DATA 64

SCALARS lambda_h float 1
LOOKUP_TABLE default
0.000000 
0.000000 
0.000000 
0.000000 
0.000000 
0.000000 
0.000000 
0.000000 
0.000000 
0.000000 
0.000000 
0.000000 
0.000000 
0.000000 
0.000000 
0.000000 
-14.050582 
1.856579 
105.332138 
-221.001700 
-2.434481 
-7.734101 
-3.186927 
-11.528829 
0.242618 
-0.485236 
1.228195 
-3.184243 
-0.555240 
-4.029813 
-1.542222 
-5.530421 
-221.001700 
105.332138 
1.856579 
-14.050582 
-11.528829 
-3.186927 
-7.734101 
-2.434481 
-3.184243 
1.228195 
-0.485236 
0.242618 
-5.530421 
-1.542222 
-4.029813 
-0.555240 
0.000000 
0.000000 
0.000000 
0.000000 
0.000000 
0.000000 
0.000000 
0.000000 
0.000000 
0.000000 
0.000000 
0.000000 
0.000000 
0.000000 
0.000000 
0.000000 

