# vtk DataFile Version 2.0
Unstructured Grid Example
ASCII
DATASET UNSTRUCTURED_GRID

POINTS 256 float
0.000000 0.000000 0.000000 
0.007812 0.000000 0.000000 
0.007812 0.000000 0.000000 
0.015625 0.000000 0.000000 
0.015625 0.000000 0.000000 
0.023438 0.000000 0.000000 
0.023438 0.000000 0.000000 
0.031250 0.000000 0.000000 
0.046875 0.000000 0.000000 
0.054688 0.000000 0.000000 
0.054688 0.000000 0.000000 
0.062500 0.000000 0.000000 
0.031250 0.000000 0.000000 
0.039062 0.000000 0.000000 
0.039062 0.000000 0.000000 
0.046875 0.000000 0.000000 
0.109375 0.000000 0.000000 
0.117188 0.000000 0.000000 
0.117188 0.000000 0.000000 
0.125000 0.000000 0.000000 
0.093750 0.000000 0.000000 
0.101562 0.000000 0.000000 
0.101562 0.000000 0.000000 
0.109375 0.000000 0.000000 
0.062500 0.000000 0.000000 
0.070312 0.000000 0.000000 
0.070312 0.000000 0.000000 
0.078125 0.000000 0.000000 
0.078125 0.000000 0.000000 
0.085938 0.000000 0.000000 
0.085938 0.000000 0.000000 
0.093750 0.000000 0.000000 
0.234375 0.000000 0.000000 
0.242188 0.000000 0.000000 
0.242188 0.000000 0.000000 
0.250000 0.000000 0.000000 
0.218750 0.000000 0.000000 
0.226562 0.000000 0.000000 
0.226562 0.000000 0.000000 
0.234375 0.000000 0.000000 
0.187500 0.000000 0.000000 
0.195312 0.000000 0.000000 
0.195312 0.000000 0.000000 
0.203125 0.000000 0.000000 
0.203125 0.000000 0.000000 
0.210938 0.000000 0.000000 
0.210938 0.000000 0.000000 
0.218750 0.000000 0.000000 
0.125000 0.000000 0.000000 
0.132812 0.000000 0.000000 
0.132812 0.000000 0.000000 
0.140625 0.000000 0.000000 
0.140625 0.000000 0.000000 
0.148438 0.000000 0.000000 
0.148438 0.000000 0.000000 
0.156250 0.000000 0.000000 
0.171875 0.000000 0.000000 
0.179688 0.000000 0.000000 
0.179688 0.000000 0.000000 
0.187500 0.000000 0.000000 
0.156250 0.000000 0.000000 
0.164062 0.000000 0.000000 
0.164062 0.000000 0.000000 
0.171875 0.000000 0.000000 
0.484375 -42.487794 0.000000 
0.492188 21.243897 0.000000 
0.492188 350.531097 0.000000 
0.500000 -701.062195 0.000000 
0.468750 -10.613667 0.000000 
0.476562 -20.176411 0.000000 
0.476562 -12.733762 0.000000 
0.484375 -25.498964 0.000000 
0.437500 -7.540820 0.000000 
0.445312 -10.250866 0.000000 
0.445312 -8.247655 0.000000 
0.453125 -11.547243 0.000000 
0.453125 -9.042986 0.000000 
0.460938 -13.256168 0.000000 
0.460938 -9.902300 0.000000 
0.468750 -15.750722 0.000000 
0.375000 -3.823682 0.000000 
0.382812 -4.960433 0.000000 
0.382812 -4.175993 0.000000 
0.390625 -5.392563 0.000000 
0.390625 -4.549254 0.000000 
0.398438 -5.862609 0.000000 
0.398438 -4.947652 0.000000 
0.406250 -6.379168 0.000000 
0.421875 -6.350181 0.000000 
0.429688 -8.342634 0.000000 
0.429688 -6.912798 0.000000 
0.437500 -9.209855 0.000000 
0.406250 -5.376234 0.000000 
0.414062 -6.953521 0.000000 
0.414062 -5.841185 0.000000 
0.421875 -7.600905 0.000000 
0.250000 0.000000 0.000000 
0.257812 0.000000 0.000000 
0.257812 0.000000 0.000000 
0.265625 0.000000 0.000000 
0.265625 0.000000 0.000000 
0.273438 0.000000 0.000000 
0.273438 0.439036 0.000000 
0.281250 -0.878073 0.000000 
0.296875 -0.808539 0.000000 
0.304688 -1.697879 0.000000 
0.304688 -1.110361 0.000000 
0.312500 -1.983573 0.000000 
0.281250 -0.082236 0.000000 
0.289062 -1.152637 0.000000 
0.289062 -0.486688 0.000000 
0.296875 -1.414134 0.000000 
0.359375 -3.168234 0.000000 
0.367188 -4.184419 0.000000 
0.367188 -3.488782 0.000000 
0.375000 -4.559507 0.000000 
0.343750 -2.559532 0.000000 
0.351562 -3.494943 0.000000 
0.351562 -2.859316 0.000000 
0.359375 -3.830785 0.000000 
0.312500 -1.402889 0.000000 
0.320312 -2.271728 0.000000 
0.320312 -1.690880 0.000000 
0.328125 -2.564586 0.000000 
0.328125 -1.977789 0.000000 
0.335938 -2.864474 0.000000 
0.335938 -2.266490 0.000000 
0.343750 -3.173758 0.000000 
0.500000 -701.062195 0.000000 
0.507812 350.531097 0.000000 
0.507812 17.924979 0.000000 
0.515625 -35.849958 0.000000 
0.515625 -18.805910 0.000000 
0.523438 -16.163117 0.000000 
0.523438 -20.395674 0.000000 
0.531250 -10.340797 0.000000 
0.546875 -11.408242 0.000000 
0.554688 -8.140103 0.000000 
0.554688 -10.122573 0.000000 
0.562500 -7.443302 0.000000 
0.531250 -15.667227 0.000000 
0.539062 -9.742813 0.000000 
0.539062 -13.116374 0.000000 
0.546875 -8.920106 0.000000 
0.609375 -5.321456 0.000000 
0.617188 -4.119249 0.000000 
0.617188 -4.894438 0.000000 
0.625000 -3.771077 0.000000 
0.593750 -6.296278 0.000000 
0.601562 -4.881833 0.000000 
0.601562 -5.785910 0.000000 
0.609375 -4.488125 0.000000 
0.562500 -9.092930 0.000000 
0.570312 -6.823317 0.000000 
0.570312 -8.235973 0.000000 
0.578125 -6.267617 0.000000 
0.578125 -7.503225 0.000000 
0.585938 -5.764757 0.000000 
0.585938 -6.863697 0.000000 
0.593750 -5.305346 0.000000 
0.734375 0.000000 0.000000 
0.742188 0.000000 0.000000 
0.742188 0.000000 0.000000 
0.750000 0.000000 0.000000 
0.718750 -0.850525 0.000000 
0.726562 0.425262 0.000000 
0.726562 0.000000 0.000000 
0.734375 0.000000 0.000000 
0.687500 -1.952926 0.000000 
0.695312 -1.090453 0.000000 
0.695312 -1.670747 0.000000 
0.703125 -0.792339 0.000000 
0.703125 -1.390657 0.000000 
0.710938 -0.474110 0.000000 
0.710938 -1.133989 0.000000 
0.718750 -0.070899 0.000000 
0.625000 -4.498236 0.000000 
0.632812 -3.440119 0.000000 
0.632812 -4.127558 0.000000 
0.640625 -3.123358 0.000000 
0.640625 -3.778082 0.000000 
0.648438 -2.818111 0.000000 
0.648438 -3.446196 0.000000 
0.656250 -2.521911 0.000000 
0.671875 -2.526903 0.000000 
0.679688 -1.663808 0.000000 
0.679688 -2.237577 0.000000 
0.687500 -1.379364 0.000000 
0.656250 -3.128809 0.000000 
0.664062 -2.232400 0.000000 
0.664062 -2.823202 0.000000 
0.671875 -1.947206 0.000000 
0.984375 0.000000 0.000000 
0.992188 0.000000 0.000000 
0.992188 0.000000 0.000000 
1.000000 0.000000 0.000000 
0.968750 0.000000 0.000000 
0.976562 0.000000 0.000000 
0.976562 0.000000 0.000000 
0.984375 0.000000 0.000000 
0.937500 0.000000 0.000000 
0.945312 0.000000 0.000000 
0.945312 0.000000 0.000000 
0.953125 0.000000 0.000000 
0.953125 0.000000 0.000000 
0.960938 0.000000 0.000000 
0.960938 0.000000 0.000000 
0.968750 0.000000 0.000000 
0.875000 0.000000 0.000000 
0.882812 0.000000 0.000000 
0.882812 0.000000 0.000000 
0.890625 0.000000 0.000000 
0.890625 0.000000 0.000000 
0.898438 0.000000 0.000000 
0.898438 0.000000 0.000000 
0.906250 0.000000 0.000000 
0.921875 0.000000 0.000000 
0.929688 0.000000 0.000000 
0.929688 0.000000 0.000000 
0.937500 0.000000 0.000000 
0.906250 0.000000 0.000000 
0.914062 0.000000 0.000000 
0.914062 0.000000 0.000000 
0.921875 0.000000 0.000000 
0.750000 0.000000 0.000000 
0.757812 0.000000 0.000000 
0.757812 0.000000 0.000000 
0.765625 0.000000 0.000000 
0.765625 0.000000 0.000000 
0.773438 0.000000 0.000000 
0.773438 0.000000 0.000000 
0.781250 0.000000 0.000000 
0.796875 0.000000 0.000000 
0.804688 0.000000 0.000000 
0.804688 0.000000 0.000000 
0.812500 0.000000 0.000000 
0.781250 0.000000 0.000000 
0.789062 0.000000 0.000000 
0.789062 0.000000 0.000000 
0.796875 0.000000 0.000000 
0.859375 0.000000 0.000000 
0.867188 0.000000 0.000000 
0.867188 0.000000 0.000000 
0.875000 0.000000 0.000000 
0.843750 0.000000 0.000000 
0.851562 0.000000 0.000000 
0.851562 0.000000 0.000000 
0.859375 0.000000 0.000000 
0.812500 0.000000 0.000000 
0.820312 0.000000 0.000000 
0.820312 0.000000 0.000000 
0.828125 0.000000 0.000000 
0.828125 0.000000 0.000000 
0.835938 0.000000 0.000000 
0.835938 0.000000 0.000000 
0.843750 0.000000 0.000000 

CELLS 128 384
2  0 1 
2  2 3 
2  4 5 
2  6 7 
2  8 9 
2  10 11 
2  12 13 
2  14 15 
2  16 17 
2  18 19 
2  20 21 
2  22 23 
2  24 25 
2  26 27 
2  28 29 
2  30 31 
2  32 33 
2  34 35 
2  36 37 
2  38 39 
2  40 41 
2  42 43 
2  44 45 
2  46 47 
2  48 49 
2  50 51 
2  52 53 
2  54 55 
2  56 57 
2  58 59 
2  60 61 
2  62 63 
2  64 65 
2  66 67 
2  68 69 
2  70 71 
2  72 73 
2  74 75 
2  76 77 
2  78 79 
2  80 81 
2  82 83 
2  84 85 
2  86 87 
2  88 89 
2  90 91 
2  92 93 
2  94 95 
2  96 97 
2  98 99 
2  100 101 
2  102 103 
2  104 105 
2  106 107 
2  108 109 
2  110 111 
2  112 113 
2  114 115 
2  116 117 
2  118 119 
2  120 121 
2  122 123 
2  124 125 
2  126 127 
2  128 129 
2  130 131 
2  132 133 
2  134 135 
2  136 137 
2  138 139 
2  140 141 
2  142 143 
2  144 145 
2  146 147 
2  148 149 
2  150 151 
2  152 153 
2  154 155 
2  156 157 
2  158 159 
2  160 161 
2  162 163 
2  164 165 
2  166 167 
2  168 169 
2  170 171 
2  172 173 
2  174 175 
2  176 177 
2  178 179 
2  180 181 
2  182 183 
2  184 185 
2  186 187 
2  188 189 
2  190 191 
2  192 193 
2  194 195 
2  196 197 
2  198 199 
2  200 201 
2  202 203 
2  204 205 
2  206 207 
2  208 209 
2  210 211 
2  212 213 
2  214 215 
2  216 217 
2  218 219 
2  220 221 
2  222 223 
2  224 225 
2  226 227 
2  228 229 
2  230 231 
2  232 233 
2  234 235 
2  236 237 
2  238 239 
2  240 241 
2  242 243 
2  244 245 
2  246 247 
2  248 249 
2  250 251 
2  252 253 
2  254 255 

CELL_TYPES 128
3
3
3
3
3
3
3
3
3
3
3
3
3
3
3
3
3
3
3
3
3
3
3
3
3
3
3
3
3
3
3
3
3
3
3
3
3
3
3
3
3
3
3
3
3
3
3
3
3
3
3
3
3
3
3
3
3
3
3
3
3
3
3
3
3
3
3
3
3
3
3
3
3
3
3
3
3
3
3
3
3
3
3
3
3
3
3
3
3
3
3
3
3
3
3
3
3
3
3
3
3
3
3
3
3
3
3
3
3
3
3
3
3
3
3
3
3
3
3
3
3
3
3
3
3
3
3
3

POINT_DATA 256

SCALARS lambda_h float 1
LOOKUP_TABLE default
0.000000 
0.000000 
0.000000 
0.000000 
0.000000 
0.000000 
0.000000 
0.000000 
0.000000 
0.000000 
0.000000 
0.000000 
0.000000 
0.000000 
0.000000 
0.000000 
0.000000 
0.000000 
0.000000 
0.000000 
0.000000 
0.000000 
0.000000 
0.000000 
0.000000 
0.000000 
0.000000 
0.000000 
0.000000 
0.000000 
0.000000 
0.000000 
0.000000 
0.000000 
0.000000 
0.000000 
0.000000 
0.000000 
0.000000 
0.000000 
0.000000 
0.000000 
0.000000 
0.000000 
0.000000 
0.000000 
0.000000 
0.000000 
0.000000 
0.000000 
0.000000 
0.000000 
0.000000 
0.000000 
0.000000 
0.000000 
0.000000 
0.000000 
0.000000 
0.000000 
0.000000 
0.000000 
0.000000 
0.000000 
-42.487794 
21.243897 
350.531097 
-701.062195 
-10.613667 
-20.176411 
-12.733762 
-25.498964 
-7.540820 
-10.250866 
-8.247655 
-11.547243 
-9.042986 
-13.256168 
-9.902300 
-15.750722 
-3.823682 
-4.960433 
-4.175993 
-5.392563 
-4.549254 
-5.862609 
-4.947652 
-6.379168 
-6.350181 
-8.342634 
-6.912798 
-9.209855 
-5.376234 
-6.953521 
-5.841185 
-7.600905 
0.000000 
0.000000 
0.000000 
0.000000 
0.000000 
0.000000 
0.439036 
-0.878073 
-0.808539 
-1.697879 
-1.110361 
-1.983573 
-0.082236 
-1.152637 
-0.486688 
-1.414134 
-3.168234 
-4.184419 
-3.488782 
-4.559507 
-2.559532 
-3.494943 
-2.859316 
-3.830785 
-1.402889 
-2.271728 
-1.690880 
-2.564586 
-1.977789 
-2.864474 
-2.266490 
-3.173758 
-701.062195 
350.531097 
17.924979 
-35.849958 
-18.805910 
-16.163117 
-20.395674 
-10.340797 
-11.408242 
-8.140103 
-10.122573 
-7.443302 
-15.667227 
-9.742813 
-13.116374 
-8.920106 
-5.321456 
-4.119249 
-4.894438 
-3.771077 
-6.296278 
-4.881833 
-5.785910 
-4.488125 
-9.092930 
-6.823317 
-8.235973 
-6.267617 
-7.503225 
-5.764757 
-6.863697 
-5.305346 
0.000000 
0.000000 
0.000000 
0.000000 
-0.850525 
0.425262 
0.000000 
0.000000 
-1.952926 
-1.090453 
-1.670747 
-0.792339 
-1.390657 
-0.474110 
-1.133989 
-0.070899 
-4.498236 
-3.440119 
-4.127558 
-3.123358 
-3.778082 
-2.818111 
-3.446196 
-2.521911 
-2.526903 
-1.663808 
-2.237577 
-1.379364 
-3.128809 
-2.232400 
-2.823202 
-1.947206 
0.000000 
0.000000 
0.000000 
0.000000 
0.000000 
0.000000 
0.000000 
0.000000 
0.000000 
0.000000 
0.000000 
0.000000 
0.000000 
0.000000 
0.000000 
0.000000 
0.000000 
0.000000 
0.000000 
0.000000 
0.000000 
0.000000 
0.000000 
0.000000 
0.000000 
0.000000 
0.000000 
0.000000 
0.000000 
0.000000 
0.000000 
0.000000 
0.000000 
0.000000 
0.000000 
0.000000 
0.000000 
0.000000 
0.000000 
0.000000 
0.000000 
0.000000 
0.000000 
0.000000 
0.000000 
0.000000 
0.000000 
0.000000 
0.000000 
0.000000 
0.000000 
0.000000 
0.000000 
0.000000 
0.000000 
0.000000 
0.000000 
0.000000 
0.000000 
0.000000 
0.000000 
0.000000 
0.000000 
0.000000 

