# vtk DataFile Version 2.0
Unstructured Grid Example
ASCII
DATASET UNSTRUCTURED_GRID

POINTS 128 float
0.000000 0.000000 0.000000 
0.015625 0.000000 0.000000 
0.015625 0.000000 0.000000 
0.031250 0.000000 0.000000 
0.031250 0.000000 0.000000 
0.046875 0.000000 0.000000 
0.046875 0.000000 0.000000 
0.062500 0.000000 0.000000 
0.093750 0.000000 0.000000 
0.109375 0.000000 0.000000 
0.109375 0.000000 0.000000 
0.125000 0.000000 0.000000 
0.062500 0.000000 0.000000 
0.078125 0.000000 0.000000 
0.078125 0.000000 0.000000 
0.093750 0.000000 0.000000 
0.218750 0.000000 0.000000 
0.234375 0.000000 0.000000 
0.234375 0.000000 0.000000 
0.250000 0.000000 0.000000 
0.187500 0.000000 0.000000 
0.203125 0.000000 0.000000 
0.203125 0.000000 0.000000 
0.218750 0.000000 0.000000 
0.125000 0.000000 0.000000 
0.140625 0.000000 0.000000 
0.140625 0.000000 0.000000 
0.156250 0.000000 0.000000 
0.156250 0.000000 0.000000 
0.171875 0.000000 0.000000 
0.171875 0.000000 0.000000 
0.187500 0.000000 0.000000 
0.468750 -29.612662 0.000000 
0.484375 14.806331 0.000000 
0.484375 197.246702 0.000000 
0.500000 -394.493404 0.000000 
0.437500 -6.222993 0.000000 
0.453125 -13.061935 0.000000 
0.453125 -6.758244 0.000000 
0.468750 -18.830375 0.000000 
0.375000 -3.349900 0.000000 
0.390625 -5.710353 0.000000 
0.390625 -3.999017 0.000000 
0.406250 -6.772570 0.000000 
0.406250 -4.707496 0.000000 
0.421875 -8.129166 0.000000 
0.421875 -5.474579 0.000000 
0.437500 -10.016670 0.000000 
0.250000 0.000000 0.000000 
0.265625 0.000000 0.000000 
0.265625 0.284094 0.000000 
0.281250 -0.568188 0.000000 
0.281250 0.494602 0.000000 
0.296875 -1.841486 0.000000 
0.296875 -0.480187 0.000000 
0.312500 -2.227997 0.000000 
0.343750 -2.176883 0.000000 
0.359375 -4.074555 0.000000 
0.359375 -2.747278 0.000000 
0.375000 -4.831437 0.000000 
0.312500 -1.073754 0.000000 
0.328125 -2.788672 0.000000 
0.328125 -1.624625 0.000000 
0.343750 -3.401848 0.000000 
0.500000 -394.493404 0.000000 
0.515625 197.246702 0.000000 
0.515625 14.806331 0.000000 
0.531250 -29.612662 0.000000 
0.531250 -18.830375 0.000000 
0.546875 -6.758244 0.000000 
0.546875 -13.061935 0.000000 
0.562500 -6.222993 0.000000 
0.593750 -6.772570 0.000000 
0.609375 -3.999017 0.000000 
0.609375 -5.710353 0.000000 
0.625000 -3.349900 0.000000 
0.562500 -10.016670 0.000000 
0.578125 -5.474579 0.000000 
0.578125 -8.129166 0.000000 
0.593750 -4.707496 0.000000 
0.718750 -0.568188 0.000000 
0.734375 0.284094 0.000000 
0.734375 0.000000 0.000000 
0.750000 0.000000 0.000000 
0.687500 -2.227997 0.000000 
0.703125 -0.480187 0.000000 
0.703125 -1.841486 0.000000 
0.718750 0.494602 0.000000 
0.625000 -4.831437 0.000000 
0.640625 -2.747278 0.000000 
0.640625 -4.074555 0.000000 
0.656250 -2.176883 0.000000 
0.656250 -3.401848 0.000000 
0.671875 -1.624625 0.000000 
0.671875 -2.788672 0.000000 
0.687500 -1.073754 0.000000 
0.968750 0.000000 0.000000 
0.984375 0.000000 0.000000 
0.984375 0.000000 0.000000 
1.000000 0.000000 0.000000 
0.937500 0.000000 0.000000 
0.953125 0.000000 0.000000 
0.953125 0.000000 0.000000 
0.968750 0.000000 0.000000 
0.875000 0.000000 0.000000 
0.890625 0.000000 0.000000 
0.890625 0.000000 0.000000 
0.906250 0.000000 0.000000 
0.906250 0.000000 0.000000 
0.921875 0.000000 0.000000 
0.921875 0.000000 0.000000 
0.937500 0.000000 0.000000 
0.750000 0.000000 0.000000 
0.765625 0.000000 0.000000 
0.765625 0.000000 0.000000 
0.781250 0.000000 0.000000 
0.781250 0.000000 0.000000 
0.796875 0.000000 0.000000 
0.796875 0.000000 0.000000 
0.812500 0.000000 0.000000 
0.843750 0.000000 0.000000 
0.859375 0.000000 0.000000 
0.859375 0.000000 0.000000 
0.875000 0.000000 0.000000 
0.812500 0.000000 0.000000 
0.828125 0.000000 0.000000 
0.828125 0.000000 0.000000 
0.843750 0.000000 0.000000 

CELLS 64 192
2  0 1 
2  2 3 
2  4 5 
2  6 7 
2  8 9 
2  10 11 
2  12 13 
2  14 15 
2  16 17 
2  18 19 
2  20 21 
2  22 23 
2  24 25 
2  26 27 
2  28 29 
2  30 31 
2  32 33 
2  34 35 
2  36 37 
2  38 39 
2  40 41 
2  42 43 
2  44 45 
2  46 47 
2  48 49 
2  50 51 
2  52 53 
2  54 55 
2  56 57 
2  58 59 
2  60 61 
2  62 63 
2  64 65 
2  66 67 
2  68 69 
2  70 71 
2  72 73 
2  74 75 
2  76 77 
2  78 79 
2  80 81 
2  82 83 
2  84 85 
2  86 87 
2  88 89 
2  90 91 
2  92 93 
2  94 95 
2  96 97 
2  98 99 
2  100 101 
2  102 103 
2  104 105 
2  106 107 
2  108 109 
2  110 111 
2  112 113 
2  114 115 
2  116 117 
2  118 119 
2  120 121 
2  122 123 
2  124 125 
2  126 127 

CELL_TYPES 64
3
3
3
3
3
3
3
3
3
3
3
3
3
3
3
3
3
3
3
3
3
3
3
3
3
3
3
3
3
3
3
3
3
3
3
3
3
3
3
3
3
3
3
3
3
3
3
3
3
3
3
3
3
3
3
3
3
3
3
3
3
3
3
3

POINT_DATA 128

SCALARS lambda_h float 1
LOOKUP_TABLE default
0.000000 
0.000000 
0.000000 
0.000000 
0.000000 
0.000000 
0.000000 
0.000000 
0.000000 
0.000000 
0.000000 
0.000000 
0.000000 
0.000000 
0.000000 
0.000000 
0.000000 
0.000000 
0.000000 
0.000000 
0.000000 
0.000000 
0.000000 
0.000000 
0.000000 
0.000000 
0.000000 
0.000000 
0.000000 
0.000000 
0.000000 
0.000000 
-29.612662 
14.806331 
197.246702 
-394.493404 
-6.222993 
-13.061935 
-6.758244 
-18.830375 
-3.349900 
-5.710353 
-3.999017 
-6.772570 
-4.707496 
-8.129166 
-5.474579 
-10.016670 
0.000000 
0.000000 
0.284094 
-0.568188 
0.494602 
-1.841486 
-0.480187 
-2.227997 
-2.176883 
-4.074555 
-2.747278 
-4.831437 
-1.073754 
-2.788672 
-1.624625 
-3.401848 
-394.493404 
197.246702 
14.806331 
-29.612662 
-18.830375 
-6.758244 
-13.061935 
-6.222993 
-6.772570 
-3.999017 
-5.710353 
-3.349900 
-10.016670 
-5.474579 
-8.129166 
-4.707496 
-0.568188 
0.284094 
0.000000 
0.000000 
-2.227997 
-0.480187 
-1.841486 
0.494602 
-4.831437 
-2.747278 
-4.074555 
-2.176883 
-3.401848 
-1.624625 
-2.788672 
-1.073754 
0.000000 
0.000000 
0.000000 
0.000000 
0.000000 
0.000000 
0.000000 
0.000000 
0.000000 
0.000000 
0.000000 
0.000000 
0.000000 
0.000000 
0.000000 
0.000000 
0.000000 
0.000000 
0.000000 
0.000000 
0.000000 
0.000000 
0.000000 
0.000000 
0.000000 
0.000000 
0.000000 
0.000000 
0.000000 
0.000000 
0.000000 
0.000000 

