# vtk DataFile Version 2.0
Unstructured Grid Example
ASCII
DATASET UNSTRUCTURED_GRID

POINTS 25 float
0.016875 -0.325240 0.000000 
0.983125 -0.325240 0.000000 
1.000000 1.000000 0.000000 
0.000000 1.000000 0.000000 
0.500000 -0.100000 0.000000 
0.959060 0.256866 0.000000 
0.500000 1.000000 0.000000 
0.040940 0.256866 0.000000 
0.500000 0.283013 0.000000 
0.263212 -0.260427 0.000000 
0.500000 0.058628 0.000000 
0.243894 -0.024765 0.000000 
0.736788 -0.260427 0.000000 
0.756106 -0.024765 0.000000 
0.994404 -0.053923 0.000000 
0.733751 0.257461 0.000000 
0.931600 0.586718 0.000000 
0.722374 0.602524 0.000000 
0.750000 1.000000 0.000000 
0.500000 0.617668 0.000000 
0.250000 1.000000 0.000000 
0.277626 0.602524 0.000000 
0.068400 0.586718 0.000000 
0.266249 0.257461 0.000000 
0.005596 -0.053923 0.000000 

CELLS 32 128
3  0 9 11 
3  4 10 9 
3  8 11 10 
3  9 10 11 
3  4 12 10 
3  1 13 12 
3  8 10 13 
3  12 13 10 
3  1 14 13 
3  5 15 14 
3  8 13 15 
3  14 15 13 
3  5 16 15 
3  2 17 16 
3  8 15 17 
3  16 17 15 
3  2 18 17 
3  6 19 18 
3  8 17 19 
3  18 19 17 
3  6 20 19 
3  3 21 20 
3  8 19 21 
3  20 21 19 
3  3 22 21 
3  7 23 22 
3  8 21 23 
3  22 23 21 
3  7 24 23 
3  0 11 24 
3  8 23 11 
3  24 11 23 

CELL_TYPES 32
5
5
5
5
5
5
5
5
5
5
5
5
5
5
5
5
5
5
5
5
5
5
5
5
5
5
5
5
5
5
5
5

POINT_DATA 25

SCALARS u_h float 2
LOOKUP_TABLE default
0.016875 -0.325240 
-0.016875 -0.325240 
0.000000 0.000000 
0.000000 0.000000 
0.000000 -0.100000 
-0.040940 -0.243134 
0.000000 0.000000 
0.040940 -0.243134 
0.000000 -0.216987 
0.013212 -0.260427 
0.000000 -0.191372 
-0.006106 -0.274765 
-0.013212 -0.260427 
0.006106 -0.274765 
-0.005596 -0.303923 
-0.016249 -0.242539 
-0.068400 -0.163282 
-0.027626 -0.147476 
0.000000 0.000000 
0.000000 -0.132332 
0.000000 0.000000 
0.027626 -0.147476 
0.068400 -0.163282 
0.016249 -0.242539 
0.005596 -0.303923 

CELL_DATA 32

SCALARS epsilon float 4
LOOKUP_TABLE default
0.009895 -0.000380 0.000000 0.098354
-0.054241 0.159948 0.000000 0.504096
0.024126 -0.041831 0.000000 0.185718
0.053468 0.023890 0.000000 0.138830
-0.054241 0.159948 0.000000 -0.504096
0.009895 -0.000380 0.000000 -0.098354
0.024126 -0.041831 0.000000 -0.185718
0.053468 0.023890 0.000000 -0.138830
-0.041896 0.092985 0.000000 -0.030131
-0.095912 0.214440 0.000000 -0.076385
-0.072095 0.116882 0.000000 -0.092264
-0.054090 0.117070 0.000000 -0.097859
-0.099530 0.271180 0.000000 -0.058263
-0.144826 0.484601 0.000000 0.118468
-0.070064 0.313263 0.000000 -0.059352
-0.177506 0.312642 0.000000 -0.047159
0.002415 0.439864 0.000000 0.047647
0.000000 0.406017 0.000000 -0.000000
-0.116518 0.286250 0.000000 -0.022278
-0.108841 0.444840 0.000000 0.034648
0.000000 0.406017 0.000000 -0.000000
0.002415 0.439864 0.000000 -0.047647
-0.116518 0.286250 0.000000 0.022278
-0.108841 0.444840 0.000000 -0.034648
-0.144826 0.484601 0.000000 -0.118468
-0.099530 0.271180 0.000000 0.058263
-0.070064 0.313263 0.000000 0.059352
-0.177506 0.312642 0.000000 0.047159
-0.095912 0.214440 0.000000 0.076385
-0.041896 0.092985 0.000000 0.030131
-0.072095 0.116882 0.000000 0.092264
-0.054090 0.117070 0.000000 0.097859

SCALARS sigma float 4
LOOKUP_TABLE default
0.194708 -0.551484 -0.098398 1.557882
-5.388931 -25.766750 -4.198697 8.755720
-0.479960 -2.994115 -0.887062 2.974852
1.369526 0.075979 0.413649 2.175653
-5.388931 -25.766750 -4.198697 -8.755720
0.194708 -0.551484 -0.098398 -1.557882
-0.479960 -2.994115 -0.887062 -2.974852
1.369526 0.075979 0.413649 -2.175653
-0.262807 1.729093 0.414821 -0.595247
-1.177702 3.490277 0.657244 -0.912458
-1.302683 1.699943 0.109085 -1.484959
-0.747901 1.866131 0.311616 -1.539720
-0.668047 4.472878 1.108802 -0.609149
-1.128486 6.911301 1.713394 0.723277
0.807504 5.494073 1.922571 -0.840605
-3.420789 4.147488 0.196959 -0.759970
4.398643 8.469838 4.398643 0.192711
4.060171 7.962786 4.060171 -0.000000
-1.016884 4.544125 1.020336 -0.417182
0.623104 7.033543 2.367649 0.024076
4.060171 7.962786 4.060171 -0.000000
4.398643 8.469838 4.398643 -0.192711
-1.016884 4.544125 1.020336 0.417182
0.623104 7.033543 2.367649 -0.024076
-1.128486 6.911301 1.713394 -0.723277
-0.668047 4.472878 1.108802 0.609149
0.807504 5.494073 1.922571 0.840605
-3.420789 4.147488 0.196959 0.759970
-1.177702 3.490277 0.657244 0.912458
-0.262807 1.729093 0.414821 0.595247
-1.302683 1.699943 0.109085 1.484959
-0.747901 1.866131 0.311616 1.539720

