# vtk DataFile Version 2.0
Unstructured Grid Example
ASCII
DATASET UNSTRUCTURED_GRID

POINTS 16641 float
0.064494 -0.395992 0.000000 
0.936025 -0.398705 0.000000 
1.000000 1.000000 0.000000 
0.000000 1.000000 0.000000 
0.500597 -0.100000 0.000000 
0.970148 0.220673 0.000000 
0.500000 1.000000 0.000000 
0.036344 0.221880 0.000000 
0.504072 0.241638 0.000000 
0.302000 -0.295069 0.000000 
0.502371 0.009050 0.000000 
0.237684 -0.058385 0.000000 
0.699150 -0.296235 0.000000 
0.766101 -0.059808 0.000000 
0.995435 -0.115931 0.000000 
0.747392 0.220675 0.000000 
0.918403 0.574228 0.000000 
0.715338 0.572282 0.000000 
0.750000 1.000000 0.000000 
0.504958 0.579343 0.000000 
0.250000 1.000000 0.000000 
0.294707 0.569259 0.000000 
0.090271 0.571112 0.000000 
0.260017 0.220587 0.000000 
0.007689 -0.112698 0.000000 
0.185393 -0.356527 0.000000 
0.252375 -0.183211 0.000000 
0.142410 -0.232923 0.000000 
0.501460 -0.067651 0.000000 
0.364375 -0.116647 0.000000 
0.391045 -0.208955 0.000000 
0.369536 0.101025 0.000000 
0.362178 -0.014255 0.000000 
0.503244 0.112968 0.000000 
0.609826 -0.209826 0.000000 
0.637962 -0.117830 0.000000 
0.859485 -0.234938 0.000000 
0.749721 -0.184685 0.000000 
0.815496 -0.358249 0.000000 
0.642149 -0.015248 0.000000 
0.636673 0.100500 0.000000 
0.973122 -0.269336 0.000000 
0.882088 -0.096655 0.000000 
0.861717 0.210494 0.000000 
0.880136 0.052142 0.000000 
0.991946 0.050636 0.000000 
0.762204 0.074107 0.000000 
0.627709 0.235185 0.000000 
0.942139 0.393954 0.000000 
0.837257 0.380900 0.000000 
0.816111 0.776575 0.000000 
0.816976 0.567873 0.000000 
0.912163 0.764949 0.000000 
0.729248 0.385243 0.000000 
0.618103 0.393361 0.000000 
0.875000 1.000000 0.000000 
0.716735 0.782055 0.000000 
0.503880 0.785228 0.000000 
0.611705 0.784592 0.000000 
0.625000 1.000000 0.000000 
0.611168 0.577541 0.000000 
0.504739 0.396797 0.000000 
0.375000 1.000000 0.000000 
0.396694 0.783482 0.000000 
0.196590 0.769042 0.000000 
0.293659 0.778728 0.000000 
0.125000 1.000000 0.000000 
0.398846 0.576121 0.000000 
0.391230 0.392568 0.000000 
0.099331 0.760300 0.000000 
0.192490 0.563849 0.000000 
0.145140 0.210733 0.000000 
0.170961 0.379382 0.000000 
0.065513 0.393153 0.000000 
0.279632 0.383809 0.000000 
0.380216 0.235109 0.000000 
0.012976 0.053269 0.000000 
0.125046 0.053556 0.000000 
0.121312 -0.094663 0.000000 
0.028485 -0.266267 0.000000 
0.243456 0.074983 0.000000 
0.124412 -0.377431 0.000000 
0.162219 -0.296988 0.000000 
0.104319 -0.316263 0.000000 
0.271194 -0.241817 0.000000 
0.218306 -0.272924 0.000000 
0.245888 -0.329919 0.000000 
0.185098 -0.145829 0.000000 
0.197981 -0.210895 0.000000 
0.241779 -0.121829 0.000000 
0.500949 -0.091308 0.000000 
0.430139 -0.123366 0.000000 
0.438542 -0.161458 0.000000 
0.428314 -0.043190 0.000000 
0.427284 -0.084691 0.000000 
0.501925 -0.033201 0.000000 
0.347301 -0.252699 0.000000 
0.373861 -0.164119 0.000000 
0.321946 -0.204167 0.000000 
0.438759 0.171883 0.000000 
0.435749 0.109851 0.000000 
0.503668 0.174166 0.000000 
0.298291 -0.036037 0.000000 
0.365219 0.041374 0.000000 
0.300547 0.024775 0.000000 
0.502810 0.057915 0.000000 
0.432947 0.053527 0.000000 
0.430425 0.002626 0.000000 
0.307104 -0.150813 0.000000 
0.361304 -0.066685 0.000000 
0.299898 -0.094512 0.000000 
0.562016 -0.162016 0.000000 
0.571322 -0.124202 0.000000 
0.679532 -0.205373 0.000000 
0.627583 -0.165181 0.000000 
0.653747 -0.253747 0.000000 
0.575330 -0.085554 0.000000 
0.575342 -0.043930 0.000000 
0.896875 -0.318613 0.000000 
0.839117 -0.298871 0.000000 
0.876280 -0.379623 0.000000 
0.761109 -0.123342 0.000000 
0.804024 -0.212576 0.000000 
0.817636 -0.147558 0.000000 
0.755180 -0.331290 0.000000 
0.783135 -0.274463 0.000000 
0.730289 -0.243150 0.000000 
0.570663 0.109563 0.000000 
0.568511 0.171753 0.000000 
0.574186 0.002036 0.000000 
0.572576 0.053088 0.000000 
0.704452 0.023762 0.000000 
0.640066 0.040596 0.000000 
0.705744 -0.037271 0.000000 
0.695089 -0.152150 0.000000 
0.703181 -0.095863 0.000000 
0.642031 -0.067830 0.000000 
0.954972 -0.336936 0.000000 
0.916175 -0.253006 0.000000 
0.939185 -0.108703 0.000000 
0.930849 -0.182821 0.000000 
0.987368 -0.195228 0.000000 
0.874069 -0.167312 0.000000 
0.824539 -0.080126 0.000000 
0.916740 0.211872 0.000000 
0.928325 0.128958 0.000000 
0.982564 0.135393 0.000000 
0.814770 0.136231 0.000000 
0.872326 0.130035 0.000000 
0.805245 0.214123 0.000000 
0.996714 -0.033431 0.000000 
0.936880 0.047799 0.000000 
0.940937 -0.031566 0.000000 
0.632441 0.165160 0.000000 
0.566198 0.239993 0.000000 
0.766052 0.005881 0.000000 
0.700543 0.087861 0.000000 
0.688185 0.228265 0.000000 
0.694895 0.155782 0.000000 
0.755660 0.145476 0.000000 
0.883806 -0.023421 0.000000 
0.821954 0.061535 0.000000 
0.825610 -0.010468 0.000000 
0.956257 0.306677 0.000000 
0.903561 0.296801 0.000000 
0.877584 0.474606 0.000000 
0.890085 0.384193 0.000000 
0.929069 0.482988 0.000000 
0.849617 0.293937 0.000000 
0.794508 0.295798 0.000000 
0.880168 0.882722 0.000000 
0.863755 0.771189 0.000000 
0.924072 0.866716 0.000000 
0.766394 0.569556 0.000000 
0.812581 0.669220 0.000000 
0.763257 0.671990 0.000000 
0.911878 0.668059 0.000000 
0.861773 0.667163 0.000000 
0.867492 0.568671 0.000000 
0.622802 0.311107 0.000000 
0.563834 0.314636 0.000000 
0.738293 0.300386 0.000000 
0.681023 0.305974 0.000000 
0.667950 0.479168 0.000000 
0.674043 0.389477 0.000000 
0.721212 0.475770 0.000000 
0.825889 0.471993 0.000000 
0.773823 0.472951 0.000000 
0.783652 0.381873 0.000000 
0.937500 1.000000 0.000000 
0.833784 0.889388 0.000000 
0.728505 0.891967 0.000000 
0.782438 0.891215 0.000000 
0.812500 1.000000 0.000000 
0.767254 0.779914 0.000000 
0.713156 0.674685 0.000000 
0.502350 0.892815 0.000000 
0.559580 0.892793 0.000000 
0.562500 1.000000 0.000000 
0.557546 0.679832 0.000000 
0.557935 0.785163 0.000000 
0.504673 0.679992 0.000000 
0.687500 1.000000 0.000000 
0.616594 0.892649 0.000000 
0.673037 0.892384 0.000000 
0.561586 0.395989 0.000000 
0.504436 0.315821 0.000000 
0.663599 0.575148 0.000000 
0.614046 0.482197 0.000000 
0.504938 0.484707 0.000000 
0.559634 0.484182 0.000000 
0.558201 0.579030 0.000000 
0.664768 0.783557 0.000000 
0.610131 0.678794 0.000000 
0.662085 0.677018 0.000000 
0.437500 1.000000 0.000000 
0.445274 0.892623 0.000000 
0.333308 0.891566 0.000000 
0.388761 0.892240 0.000000 
0.312500 1.000000 0.000000 
0.449982 0.784668 0.000000 
0.451891 0.679148 0.000000 
0.141300 0.870531 0.000000 
0.182617 0.882804 0.000000 
0.062500 1.000000 0.000000 
0.297317 0.671107 0.000000 
0.244491 0.774637 0.000000 
0.247428 0.667157 0.000000 
0.187500 1.000000 0.000000 
0.228786 0.888003 0.000000 
0.279614 0.890361 0.000000 
0.447857 0.395587 0.000000 
0.444991 0.314419 0.000000 
0.451744 0.578341 0.000000 
0.450229 0.483609 0.000000 
0.341753 0.477448 0.000000 
0.395768 0.481047 0.000000 
0.346475 0.572936 0.000000 
0.344458 0.781567 0.000000 
0.347996 0.674604 0.000000 
0.399568 0.677332 0.000000 
0.095419 0.865275 0.000000 
0.148539 0.763204 0.000000 
0.141523 0.564914 0.000000 
0.148163 0.661712 0.000000 
0.097648 0.663876 0.000000 
0.197913 0.663508 0.000000 
0.243455 0.565845 0.000000 
0.089903 0.212501 0.000000 
0.103760 0.296564 0.000000 
0.050863 0.306938 0.000000 
0.213369 0.295083 0.000000 
0.157962 0.293373 0.000000 
0.201875 0.214136 0.000000 
0.079066 0.481043 0.000000 
0.117822 0.382949 0.000000 
0.130853 0.472203 0.000000 
0.385882 0.310682 0.000000 
0.441887 0.239955 0.000000 
0.288286 0.473541 0.000000 
0.335101 0.388325 0.000000 
0.319504 0.228161 0.000000 
0.327440 0.305373 0.000000 
0.269891 0.299672 0.000000 
0.182922 0.469340 0.000000 
0.224906 0.380298 0.000000 
0.235367 0.470373 0.000000 
0.023193 0.137403 0.000000 
0.077544 0.130305 0.000000 
0.063187 -0.029276 0.000000 
0.068137 0.049704 0.000000 
0.007309 -0.030385 0.000000 
0.133726 0.130933 0.000000 
0.191520 0.136844 0.000000 
0.085582 -0.250521 0.000000 
0.046067 -0.334054 0.000000 
0.179038 -0.078474 0.000000 
0.128520 -0.165248 0.000000 
0.014932 -0.192011 0.000000 
0.071593 -0.180268 0.000000 
0.064060 -0.106203 0.000000 
0.374653 0.165400 0.000000 
0.250903 0.145919 0.000000 
0.311948 0.156116 0.000000 
0.305397 0.088569 0.000000 
0.238672 0.007088 0.000000 
0.120477 -0.021643 0.000000 
0.178874 -0.009030 0.000000 
0.183447 0.062625 0.000000 
0.094330 -0.386785 0.000000 
0.114474 -0.347382 0.000000 
0.084851 -0.356496 0.000000 
0.173651 -0.327379 0.000000 
0.144126 -0.337828 0.000000 
0.154811 -0.367495 0.000000 
0.123241 -0.275128 0.000000 
0.133396 -0.307040 0.000000 
0.151679 -0.265461 0.000000 
0.284655 -0.269477 0.000000 
0.258705 -0.286938 0.000000 
0.274861 -0.313638 0.000000 
0.234126 -0.228488 0.000000 
0.245186 -0.258333 0.000000 
0.260613 -0.212945 0.000000 
0.215884 -0.344118 0.000000 
0.231293 -0.302249 0.000000 
0.202812 -0.315634 0.000000 
0.210007 -0.101848 0.000000 
0.213359 -0.134361 0.000000 
0.239010 -0.090350 0.000000 
0.170379 -0.222577 0.000000 
0.190640 -0.178677 0.000000 
0.162751 -0.189706 0.000000 
0.246171 -0.152802 0.000000 
0.218395 -0.166352 0.000000 
0.225263 -0.197764 0.000000 
0.190592 -0.285724 0.000000 
0.207190 -0.242372 0.000000 
0.179698 -0.254634 0.000000 
0.500688 -0.097406 0.000000 
0.464141 -0.117891 0.000000 
0.466437 -0.133563 0.000000 
0.461982 -0.088664 0.000000 
0.461996 -0.103643 0.000000 
0.501213 -0.081143 0.000000 
0.414028 -0.185972 0.000000 
0.434047 -0.142058 0.000000 
0.406901 -0.164876 0.000000 
0.465305 -0.014940 0.000000 
0.464484 -0.035769 0.000000 
0.502149 -0.012952 0.000000 
0.394822 -0.100018 0.000000 
0.427565 -0.064397 0.000000 
0.393905 -0.077297 0.000000 
0.501696 -0.051525 0.000000 
0.463627 -0.054977 0.000000 
0.462743 -0.072563 0.000000 
0.325831 -0.274169 0.000000 
0.333037 -0.229174 0.000000 
0.309130 -0.249884 0.000000 
0.381477 -0.186800 0.000000 
0.357020 -0.208161 0.000000 
0.368923 -0.231077 0.000000 
0.340419 -0.159428 0.000000 
0.347593 -0.184278 0.000000 
0.368185 -0.140733 0.000000 
0.427930 -0.104296 0.000000 
0.397130 -0.122181 0.000000 
[...]
POINT_DATA 16641

SCALARS u_h float 2
LOOKUP_TABLE default
0.064494 -0.395992 
-0.063975 -0.398705 
0.000000 0.000000 
0.000000 0.000000 
0.000597 -0.100000 
-0.029852 -0.279327 
0.000000 0.000000 
0.036344 -0.278120 
0.004072 -0.258362 
0.052000 -0.295069 
0.002371 -0.240950 
-0.012316 -0.308385 
-0.050850 -0.296235 
0.016101 -0.309808 
-0.004565 -0.365931 
-0.002608 -0.279325 
-0.081597 -0.175772 
-0.034662 -0.177718 
0.000000 0.000000 
0.004958 -0.170657 
0.000000 0.000000 
0.044707 -0.180741 
0.090271 -0.178888 
0.010017 -0.279413 
0.007689 -0.362698 
0.060393 -0.356527 
0.002375 -0.308211 
0.017410 -0.357923 
0.001460 -0.192651 
-0.010625 -0.241647 
0.016045 -0.208955 
-0.005464 -0.273975 
-0.012822 -0.264255 
0.003244 -0.262032 
-0.015174 -0.209826 
0.012962 -0.242830 
-0.015515 -0.359938 
-0.000279 -0.309685 
-0.059504 -0.358249 
0.017149 -0.265248 
0.011673 -0.274500 
-0.026878 -0.394336 
0.007088 -0.346655 
-0.013283 -0.289506 
0.005136 -0.322858 
-0.008054 -0.324364 
0.012204 -0.300893 
0.002709 -0.264815 
-0.057861 -0.231046 
-0.037743 -0.244100 
-0.058889 -0.098425 
-0.058024 -0.182127 
-0.087837 -0.110051 
-0.020752 -0.239757 
-0.006897 -0.231639 
0.000000 0.000000 
-0.033265 -0.092945 
0.003880 -0.089772 
-0.013295 -0.090408 
0.000000 0.000000 
-0.013832 -0.172459 
0.004739 -0.228203 
0.000000 0.000000 
0.021694 -0.091518 
0.071590 -0.105958 
0.043659 -0.096272 
0.000000 0.000000 
0.023846 -0.173879 
0.016230 -0.232432 
0.099331 -0.114700 
0.067490 -0.186151 
0.020140 -0.289267 
0.045961 -0.245618 
0.065513 -0.231847 
0.029632 -0.241191 
0.005216 -0.264891 
0.012976 -0.321731 
0.000046 -0.321444 
-0.003688 -0.344663 
0.028485 -0.391267 
-0.006544 -0.300017 
0.061912 -0.377431 
0.037219 -0.359488 
0.041819 -0.378763 
0.021194 -0.304317 
0.030806 -0.335424 
0.058388 -0.329919 
-0.002402 -0.333329 
0.010481 -0.335895 
-0.008221 -0.309329 
0.000949 -0.153808 
-0.007361 -0.185866 
0.001042 -0.161458 
-0.009186 -0.230690 
-0.010216 -0.209691 
0.001925 -0.220701 
0.034801 -0.252699 
-0.001139 -0.226619 
0.009446 -0.266667 
0.001259 -0.265617 
-0.001751 -0.265149 
0.003668 -0.263334 
-0.014209 -0.286037 
-0.009781 -0.271126 
-0.011953 -0.287725 
0.002810 -0.254585 
-0.004553 -0.258973 
-0.007075 -0.247374 
-0.005396 -0.275813 
-0.013696 -0.254185 
-0.012602 -0.282012 
-0.000484 -0.162016 
0.008822 -0.186702 
-0.007968 -0.267873 
0.002583 -0.227681 
-0.033753 -0.253747 
0.012830 -0.210554 
0.012842 -0.231430 
-0.040625 -0.381113 
-0.035883 -0.361371 
-0.061220 -0.379623 
0.011109 -0.310842 
-0.008476 -0.337576 
0.005136 -0.335058 
-0.057320 -0.331290 
-0.029365 -0.336963 
-0.019711 -0.305650 
0.008163 -0.265437 
0.006011 -0.265747 
0.011686 -0.247964 
0.010076 -0.259412 
0.016952 -0.288738 
0.015066 -0.271904 
0.018244 -0.287271 
0.007589 -0.277150 
0.015681 -0.283363 
0.017031 -0.255330 
-0.045028 -0.399436 
-0.021325 -0.378006 
0.001685 -0.358703 
-0.006651 -0.370321 
-0.012632 -0.382728 
-0.000931 -0.354812 
0.012039 -0.330126 
-0.020760 -0.288128 
-0.009175 -0.308542 
-0.017436 -0.302107 
0.002270 -0.301269 
-0.002674 -0.307465 
-0.007255 -0.285877 
-0.003286 -0.345931 
-0.000620 -0.327201 
0.003437 -0.344066 
0.007441 -0.272340 
0.003698 -0.260007 
0.016052 -0.306619 
0.013043 -0.287139 
0.000685 -0.271735 
0.007395 -0.281718 
0.005660 -0.292024 
0.008806 -0.335921 
0.009454 -0.313465 
0.013110 -0.322968 
-0.043743 -0.255823 
-0.033939 -0.265699 
-0.059916 -0.212894 
-0.047415 -0.240807 
-0.070931 -0.204512 
-0.025383 -0.268563 
-0.017992 -0.266702 
-0.057332 -0.054778 
-0.073745 -0.103811 
-0.075928 -0.070784 
-0.046106 -0.180444 
-0.062419 -0.143280 
-0.049243 -0.140510 
-0.088122 -0.144441 
-0.075727 -0.145337 
-0.070008 -0.181329 
-0.002198 -0.251393 
0.001334 -0.247864 
-0.011707 -0.262114 
-0.006477 -0.256526 
-0.019550 -0.208332 
-0.013457 -0.235523 
-0.028788 -0.211730 
-0.049111 -0.215507 
-0.038677 -0.214549 
-0.028848 -0.243127 
0.000000 0.000000 
-0.041216 -0.048112 
-0.021495 -0.045533 
-0.030062 -0.046285 
0.000000 0.000000 
-0.045246 -0.095086 
-0.036844 -0.137815 
0.002350 -0.044685 
-0.002920 -0.044707 
0.000000 0.000000 
-0.004954 -0.132668 
-0.004565 -0.089837 
0.004673 -0.132508 
0.000000 0.000000 
-0.008406 -0.044851 
-0.014463 -0.045116 
-0.000914 -0.229011 
0.004436 -0.246679 
-0.023901 -0.174852 
-0.010954 -0.205303 
0.004938 -0.202793 
-0.002866 -0.203318 
-0.004299 -0.170970 
-0.022732 -0.091443 
-0.014869 -0.133706 
-0.025415 -0.135482 
0.000000 0.000000 
0.007774 -0.044877 
0.020808 -0.045934 
0.013761 -0.045260 
0.000000 0.000000 
0.012482 -0.090332 
0.014391 -0.133352 
0.078800 -0.066969 
0.057617 -0.054696 
0.000000 0.000000 
0.047317 -0.141393 
0.056991 -0.100363 
0.059928 -0.145343 
0.000000 0.000000 
0.041286 -0.049497 
0.029614 -0.047139 
0.010357 -0.229413 
0.007491 -0.248081 
0.014244 -0.171659 
0.012729 -0.203891 
0.029253 -0.210052 
0.020768 -0.206453 
0.033975 -0.177064 
0.031958 -0.093433 
0.035496 -0.137896 
0.024568 -0.135168 
0.095419 -0.072225 
0.086039 -0.111796 
0.079023 -0.185086 
0.085663 -0.150788 
0.097648 -0.148624 
0.072913 -0.148992 
0.055955 -0.184155 
0.027403 -0.287499 
0.041260 -0.265936 
0.050863 -0.255562 
0.025869 -0.267417 
0.032962 -0.269127 
0.014375 -0.285864 
0.079066 -0.206457 
0.055322 -0.242051 
0.068353 -0.215297 
0.010882 -0.251818 
0.004387 -0.260045 
0.038286 -0.213959 
0.022601 -0.236675 
0.007004 -0.271839 
0.014940 -0.257127 
0.019891 -0.262828 
0.057922 -0.218160 
0.037406 -0.244702 
0.047867 -0.217127 
0.023193 -0.300097 
0.015044 -0.307195 
0.000687 -0.341776 
0.005637 -0.325296 
0.007309 -0.342885 
0.008726 -0.306567 
0.004020 -0.300656 
0.023082 -0.375521 
0.046067 -0.396554 
-0.008462 -0.328474 
0.003520 -0.352748 
0.014932 -0.379511 
0.009093 -0.367768 
0.001560 -0.356203 
-0.000347 -0.272100 
0.000903 -0.291581 
-0.000552 -0.281384 
-0.007103 -0.286431 
-0.011328 -0.305412 
-0.004523 -0.334143 
-0.008626 -0.321530 
-0.004053 -0.312375 
0.063080 -0.386785 
0.051974 -0.378632 
0.053601 -0.387746 
0.048651 -0.358629 
0.050376 -0.369078 
0.061061 -0.367495 
0.029491 -0.368878 
0.039646 -0.369540 
0.026679 -0.359211 
0.034655 -0.300727 
0.039955 -0.318188 
0.056111 -0.313638 
0.015376 -0.322238 
0.026436 -0.320833 
0.010613 -0.306695 
0.059634 -0.344118 
0.043793 -0.333499 
0.046562 -0.346884 
-0.008743 -0.320598 
-0.005391 -0.321861 
-0.010990 -0.309100 
0.014129 -0.347577 
0.003140 -0.334927 
0.006501 -0.345956 
-0.003829 -0.309052 
-0.000355 -0.322602 
0.006513 -0.322764 
0.034342 -0.348224 
0.019690 -0.336122 
0.023448 -0.348384 
0.000688 -0.128656 
-0.004609 -0.149141 
-0.002313 -0.133563 
-0.006768 -0.182414 
-0.006754 -0.166143 
0.001213 -0.174893 
0.007778 -0.185972 
-0.003453 -0.173308 
0.000651 -0.196126 
-0.003445 -0.233690 
-0.004266 -0.223269 
0.002149 -0.231702 
-0.011428 -0.225018 
-0.009935 -0.220647 
-0.012345 -0.233547 
0.001696 -0.207775 
-0.005123 -0.211227 
-0.006007 -0.197563 
0.044581 -0.274169 
0.020537 -0.260424 
0.027880 -0.281134 
0.006477 -0.218050 
0.013270 -0.239411 
0.025173 -0.231077 
-0.003331 -0.253178 
0.003843 -0.246778 
-0.006815 -0.234483 
-0.009570 -0.198046 
-0.009120 -0.215931 
-0.005080 -0.206270 
0.003303 -0.262125 
0.002413 -0.263895 
0.003873 -0.261637 
-0.003834 -0.268958 
-0.000267 -0.266116 
-0.001806 -0.269367 
0.003458 -0.263458 
0.001531 -0.264106 
0.000663 -0.262788 
-0.013588 -0.297347 
-0.013474 -0.287207 
-0.013245 -0.297274 
-0.011502 -0.268144 
-0.012929 -0.277348 
-0.014009 -0.274844 
-0.009098 -0.279978 
-0.011252 -0.279093 
-0.007747 -0.273100 
0.002591 -0.248556 
-0.001835 -0.249844 
-0.002640 -0.242534 
-0.000188 -0.259964 
-0.001020 -0.255649 
0.003028 -0.259073 
-0.010521 -0.254864 
-0.005853 -0.253834 
-0.009133 -0.260117 
-0.005750 -0.267238 
-0.007527 -0.264268 
-0.003183 -0.262756 
0.015357 -0.286048 
-0.008475 -0.258743 
0.000932 -0.271701 
0.005681 -0.289699 
-0.001688 -0.292441 
-0.008200 -0.239637 
-0.013615 -0.259566 
-0.011618 -0.248603 
-0.012297 -0.241452 
-0.012807 -0.248200 
-0.012802 -0.296895 
-0.007066 -0.294481 
-0.010697 -0.295944 
-0.013987 -0.284289 
-0.014332 -0.271679 
-0.011835 -0.263625 
-0.013692 -0.267927 
-0.009821 -0.279206 
0.002553 -0.133803 
0.005528 -0.149636 
0.000369 -0.196978 
0.004377 -0.174018 
-0.007037 -0.186713 
0.008389 -0.166726 
0.009028 -0.182985 
-0.026625 -0.282317 
-0.019315 -0.261545 
-0.043468 -0.275282 
0.008680 -0.235625 
-0.002379 -0.247917 
0.005162 -0.254395 
-0.024203 -0.232047 
-0.012098 -0.240460 
-0.005372 -0.219011 
0.008060 -0.223676 
0.007699 -0.234047 
0.008818 -0.198082 
0.008439 -0.211688 
0.015323 -0.234583 
0.013085 -0.221456 
0.013879 -0.226079 
0.006512 -0.207238 
0.011046 -0.216972 
0.011616 -0.198927 
-0.052742 -0.390279 
-0.051032 -0.380904 
-0.062478 -0.389237 
-0.025080 -0.361168 
-0.038378 -0.371644 
-0.027957 -0.371054 
-0.060273 -0.369441 
-0.049352 -0.371103 
-0.047548 -0.360431 
0.014318 -0.310585 
0.008200 -0.323470 
0.011976 -0.322183 
-0.004461 -0.324328 
0.002767 -0.324204 
0.006304 -0.310562 
-0.004210 -0.347824 
-0.000788 -0.336646 
-0.012176 -0.349407 
-0.054982 -0.314889 
-0.038689 -0.319520 
-0.033382 -0.301972 
-0.045388 -0.348493 
-0.042562 -0.334951 
-0.058649 -0.345648 
-0.008851 -0.308108 
-0.024966 -0.322253 
-0.013641 -0.323740 
-0.021793 -0.350154 
-0.017990 -0.337741 
-0.032946 -0.349918 
0.004906 -0.263962 
0.004427 -0.262150 
0.005806 -0.262935 
0.005367 -0.264213 
0.008569 -0.269671 
0.007113 -0.266326 
0.010157 -0.269373 
0.007347 -0.242846 
0.006988 -0.250113 
0.014084 -0.260840 
0.010924 -0.254348 
0.014998 -0.255680 
0.006615 -0.255877 
0.006222 -0.260152 
0.017626 -0.298507 
0.017992 -0.288343 
0.017492 -0.298676 
0.013498 -0.273755 
0.016395 -0.279998 
0.014714 -0.280749 
0.018186 -0.275972 
0.017592 -0.278373 
0.016313 -0.269035 
0.009153 -0.263120 
0.012943 -0.264892 
0.011623 -0.267759 
-0.013872 -0.287315 
0.003830 -0.293843 
-0.003896 -0.291043 
0.000875 -0.272984 
0.010731 -0.260011 
0.016237 -0.298290 
0.018019 -0.272886 
0.017540 -0.285597 
0.013675 -0.297374 
0.009609 -0.295913 
0.012340 -0.240302 
0.015640 -0.249383 
0.015789 -0.242431 
0.015609 -0.249507 
0.017450 -0.260645 
0.012444 -0.280567 
0.016890 -0.269188 
0.014552 -0.264907 
-0.054545 -0.399653 
-0.042798 -0.390211 
-0.024040 -0.386177 
-0.033078 -0.388870 
-0.035664 -0.397718 
-0.030568 -0.380153 
-0.018533 -0.369377 
-0.001273 -0.362947 
-0.004556 -0.370366 
-0.007750 -0.374855 
0.001143 -0.358540 
-0.001646 -0.364948 
0.004446 -0.353261 
-0.019087 -0.389294 
-0.009527 -0.376818 
-0.016088 -0.382134 
0.009378 -0.332873 
0.014235 -0.320367 
-0.007422 -0.357789 
0.002063 -0.345507 
0.009631 -0.338923 
0.006658 -0.342525 
0.003902 -0.351080 
-0.013265 -0.374706 
-0.003822 -0.363041 
-0.010419 -0.366681 
-0.025090 -0.284827 
-0.018788 -0.295789 
-0.023357 -0.290794 
-0.010997 -0.299474 
-0.014680 -0.298566 
-0.016832 -0.289584 
-0.012269 -0.313297 
-0.013065 -0.306435 
-0.008103 -0.316785 
-0.000107 -0.290352 
-0.002271 -0.294008 
-0.004760 -0.282844 
0.001665 -0.315462 
-0.000011 -0.304874 
0.004135 -0.312108 
-0.010094 -0.288181 
-0.004806 -0.296918 
-0.007712 -0.298830 
-0.003100 -0.356213 
0.000289 -0.345898 
0.000319 -0.354737 
-0.004096 -0.326839 
-0.001237 -0.336565 
-0.004995 -0.335270 
0.004980 -0.333498 
0.002060 -0.335875 
0.002443 -0.325781 
-0.005722 -0.308782 
-0.001183 -0.317544 
-0.004426 -0.318085 
0.004870 -0.263656 
0.003930 -0.258735 
0.009639 -0.274054 
0.006884 -0.268592 
0.003311 -0.262071 
0.005123 -0.266078 
0.005117 -0.269283 
0.016626 -0.308499 
0.016806 -0.297727 
0.012886 -0.294027 
0.015182 -0.296262 
0.014530 -0.304107 
0.015263 -0.288368 
0.012643 -0.280526 
-0.000795 -0.275549 
0.003098 -0.281781 
0.001684 -0.286197 
0.004800 -0.273103 
0.004134 -0.277341 
0.001846 -0.268093 
0.009206 -0.296893 
0.006740 -0.286879 
0.010036 -0.290930 
0.010257 -0.279237 
0.010391 -0.284954 
0.007623 -0.276791 
0.003353 -0.351706 
0.007571 -0.329675 
0.006257 -0.340677 
0.006122 -0.347283 
0.008689 -0.341590 
0.004165 -0.296903 
0.011044 -0.307458 
0.007927 -0.302579 
0.006228 -0.307733 
0.007475 -0.318675 
0.015123 -0.318020 
0.011071 -0.334732 
0.013239 -0.326826 
0.014788 -0.315116 
0.013379 -0.311614 
0.009849 -0.324617 
0.011799 -0.318527 
0.011098 -0.329964 
-0.036684 -0.267708 
-0.031772 -0.273511 
-0.045655 -0.249604 
-0.038679 -0.261791 
-0.050855 -0.243623 
-0.027234 -0.277190 
-0.023057 -0.279065 
-0.071038 -0.194856 
-0.065404 -0.209578 
-0.076660 -0.190443 
-0.042482 -0.243118 
-0.053870 -0.227266 
-0.048686 -0.229436 
-0.064607 -0.218029 
-0.059178 -0.223564 
-0.052541 -0.236883 
-0.012541 -0.276800 
-0.009671 -0.274299 
-0.019225 -0.279439 
-0.015723 -0.278596 
-0.027420 -0.256592 
-0.021547 -0.268092 
-0.031607 -0.256809 
-0.040718 -0.253595 
-0.036038 -0.255900 
-0.029511 -0.267858 
-0.053762 -0.035545 
-0.066882 -0.062336 
-0.066734 -0.043680 
-0.066250 -0.100838 
-0.068011 -0.080452 
-0.059929 -0.076465 
-0.083771 -0.091355 
-0.076134 -0.085642 
-0.081062 -0.107083 
-0.040307 -0.179146 
-0.048361 -0.161207 
-0.042254 -0.159857 
-0.060955 -0.163428 
-0.054614 -0.162437 
-0.052028 -0.181489 
-0.055033 -0.119922 
-0.055762 -0.141914 
-0.061943 -0.121618 
-0.085513 -0.160454 
-0.079670 -0.162898 
-0.075876 -0.179323 
-0.082766 -0.126939 
-0.082106 -0.145481 
-0.089059 -0.127672 
-0.064038 -0.182158 
-0.073575 -0.163944 
-0.067306 -0.164011 
-0.068988 -0.123475 
-0.069116 -0.144491 
-0.076001 -0.125357 
0.002510 -0.254758 
0.003418 -0.253682 
0.000254 -0.258871 
0.001472 -0.256519 
-0.002141 -0.240583 
-0.000356 -0.249371 
-0.004598 -0.242329 
-0.007109 -0.271325 
-0.004848 -0.268098 
-0.013051 -0.249225 
-0.008965 -0.259347 
-0.016293 -0.251615 
-0.002878 -0.264822 
-0.001185 -0.261689 
-0.026959 -0.193915 
-0.024086 -0.210037 
-0.032080 -0.195479 
-0.010092 -0.233473 
-0.016663 -0.222716 
-0.012772 -0.220908 
-0.024962 -0.226479 
-0.020724 -0.224615 
-0.017006 -0.237665 
-0.004228 -0.253823 
-0.010031 -0.246778 
-0.007220 -0.244433 
-0.065367 -0.197611 
-0.053983 -0.199458 
-0.059670 -0.199045 
-0.054478 -0.214773 
-0.043634 -0.230360 
-0.037363 -0.196954 
-0.029378 -0.228162 
-0.033655 -0.213283 
-0.042793 -0.198214 
-0.048344 -0.199109 
-0.014714 -0.264635 
-0.033197 -0.244022 
-0.023474 -0.255503 
-0.019766 -0.253773 
-0.024699 -0.241638 
-0.043836 -0.215356 
-0.033969 -0.229499 
-0.038724 -0.230302 
0.000000 0.000000 
-0.036867 -0.024586 
-0.023934 -0.022622 
-0.028942 -0.023030 
0.000000 0.000000 
-0.048460 -0.050274 
-0.052381 -0.073792 
-0.011955 -0.022192 
-0.014293 -0.022222 
0.000000 0.000000 
-0.033705 -0.069987 
-0.025539 -0.045843 
-0.028547 -0.069326 
0.000000 0.000000 
-0.016967 -0.022282 
-0.020105 -0.022402 
-0.042926 -0.139131 
-0.036330 -0.158471 
-0.051860 -0.096550 
-0.048363 -0.118415 
-0.035925 -0.115894 
-0.041989 -0.117079 
-0.039055 -0.093913 
-0.035211 -0.046967 
-0.039338 -0.070851 
-0.045533 -0.072045 
0.001270 -0.022121 
-0.000165 -0.022128 
0.000000 0.000000 
-0.000338 -0.067335 
-0.000280 -0.044681 
0.003219 -0.067355 
0.000000 0.000000 
-0.001607 -0.022132 
-0.003082 -0.022138 
0.000076 -0.152241 
-0.000128 -0.132472 
0.004864 -0.152264 
-0.008867 -0.090063 
-0.004906 -0.111697 
-0.009620 -0.112018 
0.004355 -0.111592 
-0.000265 -0.111552 
-0.000334 -0.089739 
0.000000 0.000000 
-0.007978 -0.022165 
-0.009869 -0.022176 
-0.004617 -0.022146 
-0.006239 -0.022155 
0.000000 0.000000 
-0.015220 -0.068015 
-0.011340 -0.044969 
-0.011297 -0.067736 
-0.003907 -0.067393 
-0.007543 -0.067528 
-0.005614 -0.044764 
0.002915 -0.246952 
0.004259 -0.253346 
-0.003847 -0.230124 
0.000185 -0.239290 
0.004598 -0.238306 
0.002418 -0.238517 
0.001936 -0.228359 
-0.029191 -0.176259 
-0.022006 -0.192368 
-0.012578 -0.189672 
-0.017217 -0.190928 
-0.018787 -0.173566 
-0.015177 -0.206723 
-0.009036 -0.219298 
0.004977 -0.187536 
0.000674 -0.187564 
0.000345 -0.170656 
0.001478 -0.216468 
0.001055 -0.202858 
0.004855 -0.216361 
-0.009013 -0.171581 
-0.003663 -0.187947 
-0.008070 -0.188661 
-0.005435 -0.217978 
-0.006859 -0.204148 
-0.001940 -0.217018 
-0.017828 -0.045300 
-0.017900 -0.090869 
-0.019366 -0.068367 
-0.023789 -0.068798 
-0.027838 -0.092130 
-0.004741 -0.152493 
-0.014627 -0.153757 
-0.009628 -0.153006 
-0.009852 -0.133085 
-0.014457 -0.112504 
-0.030608 -0.157118 
-0.030166 -0.114845 
-0.031009 -0.136591 
-0.025092 -0.155850 
-0.019772 -0.154716 
-0.019466 -0.113144 
-0.020044 -0.134512 
-0.024690 -0.113927 
0.000000 0.000000 
0.002728 -0.022146 
0.005847 -0.022203 
0.004243 -0.022171 
0.000000 0.000000 
0.005019 -0.044762 
0.006818 -0.067497 
0.014077 -0.022500 
0.011622 -0.022385 
0.000000 0.000000 
0.018444 -0.068516 
0.017115 -0.045551 
0.022800 -0.069098 
0.000000 0.000000 
0.009483 -0.022305 
0.007578 -0.022247 
0.009497 -0.132808 
0.009668 -0.152590 
0.008134 -0.089978 
0.009007 -0.111852 
0.018615 -0.112974 
0.013743 -0.112311 
0.016984 -0.090842 
0.010669 -0.045040 
0.014371 -0.068066 
0.010516 -0.067731 
0.091273 -0.048203 
0.069182 -0.035715 
0.000000 0.000000 
0.066970 -0.081680 
0.068026 -0.059799 
0.075312 -0.085973 
0.000000 0.000000 
0.050157 -0.027258 
0.038348 -0.024900 
0.046614 -0.161828 
0.053543 -0.143344 
0.052545 -0.163706 
0.050124 -0.098136 
0.052904 -0.121467 
0.046480 -0.119497 
0.066415 -0.125952 
0.059574 -0.123638 
0.064195 -0.102984 
0.000000 0.000000 
0.020461 -0.022935 
0.016964 -0.022671 
0.030539 -0.023965 
0.024839 -0.023347 
0.000000 0.000000 
0.038274 -0.071981 
0.034999 -0.048109 
0.044487 -0.073529 
0.058867 -0.078207 
0.051343 -0.075550 
0.048727 -0.051541 
0.005946 -0.247061 
0.005087 -0.253746 
0.007534 -0.228560 
0.006767 -0.238673 
0.011240 -0.241044 
0.008967 -0.239599 
0.013244 -0.230724 
0.009579 -0.170998 
0.009281 -0.187883 
0.018031 -0.189631 
0.013622 -0.188588 
0.018990 -0.172628 
0.008818 -0.203144 
0.008226 -0.216714 
0.036823 -0.196236 
0.031924 -0.194354 
0.039267 -0.178880 
0.018636 -0.220275 
0.024946 -0.208162 
0.022303 -0.222120 
0.028836 -0.175375 
0.027164 -0.192572 
0.022538 -0.190976 
0.011625 -0.217508 
0.016703 -0.205009 
0.015085 -0.218713 
0.024935 -0.046444 
0.037609 -0.094720 
0.032640 -0.070780 
0.027507 -0.069839 
0.026668 -0.092375 
0.040837 -0.159972 
0.029815 -0.156625 
0.035235 -0.158219 
0.041295 -0.139562 
0.040343 -0.117751 
0.014528 -0.153200 
0.023672 -0.113846 
0.019402 -0.134140 
0.019484 -0.154088 
0.024571 -0.155237 
0.034505 -0.116229 
0.029925 -0.136424 
0.028956 -0.114929 
0.106880 -0.045131 
0.087665 -0.072420 
0.092811 -0.113649 
0.090503 -0.093503 
0.097574 -0.095357 
0.083270 -0.090397 
0.078947 -0.109059 
0.084700 -0.182773 
0.088854 -0.167027 
0.094546 -0.164132 
0.076957 -0.168807 
0.082972 -0.168489 
0.073275 -0.186122 
0.099328 -0.132235 
0.091786 -0.150331 
0.093206 -0.132577 
0.058594 -0.165502 
0.050278 -0.182542 
0.073314 -0.128277 
0.066411 -0.147280 
0.061705 -0.185422 
0.064716 -0.167078 
0.070855 -0.168253 
0.086788 -0.131908 
0.079353 -0.150251 
0.080140 -0.130373 
0.031649 -0.283934 
0.038671 -0.273051 
0.043503 -0.266958 
0.030162 -0.279052 
0.034228 -0.276976 
0.023575 -0.289172 
0.058250 -0.243881 
0.045893 -0.261799 
0.053159 -0.250111 
0.017328 -0.274676 
0.020049 -0.277136 
0.012024 -0.282895 
0.039514 -0.257829 
0.029271 -0.268752 
0.035485 -0.257690 
0.017078 -0.288074 
0.023087 -0.278855 
0.026453 -0.279583 
0.085047 -0.192975 
0.073680 -0.211765 
0.079573 -0.197659 
0.060314 -0.237922 
0.067206 -0.225162 
0.072502 -0.219394 
0.057025 -0.231397 
0.062045 -0.229069 
0.050539 -0.244524 
0.036954 -0.268280 
0.043797 -0.256795 
0.048343 -0.254317 
0.005956 -0.254884 
0.004198 -0.258754 
0.013623 -0.242937 
0.009121 -0.249694 
0.004706 -0.262129 
0.006930 -0.256707 
0.008062 -0.259118 
0.041861 -0.198115 
0.033699 -0.212025 
0.026028 -0.238971 
0.030055 -0.226260 
0.034160 -0.228303 
0.026105 -0.224154 
0.019341 -0.234452 
0.008347 -0.275652 
0.012798 -0.268474 
0.014915 -0.271714 
0.009395 -0.261990 
0.010965 -0.265168 
0.005969 -0.268186 
0.024835 -0.252677 
0.017294 -0.260016 
0.021738 -0.250204 
0.016150 -0.245179 