# vtk DataFile Version 2.0
Unstructured Grid Example
ASCII
DATASET UNSTRUCTURED_GRID

POINTS 9 float
-0.010909 -0.293962 0.000000 
1.010909 -0.293962 0.000000 
1.000000 1.000000 0.000000 
0.000000 1.000000 0.000000 
0.500000 -0.100000 0.000000 
0.956123 0.283803 0.000000 
0.500000 1.000000 0.000000 
0.043877 0.283803 0.000000 
0.500000 0.305221 0.000000 

CELLS 8 32
3  0 4 8 
3  4 1 8 
3  1 5 8 
3  5 2 8 
3  2 6 8 
3  6 3 8 
3  3 7 8 
3  7 0 8 

CELL_TYPES 8
5
5
5
5
5
5
5
5

POINT_DATA 9

SCALARS u_h float 2
LOOKUP_TABLE default
-0.010909 -0.293962 
0.010909 -0.293962 
0.000000 0.000000 
0.000000 0.000000 
-0.000000 -0.100000 
-0.043877 -0.216197 
0.000000 0.000000 
0.043877 -0.216197 
-0.000000 -0.194779 

CELL_DATA 8

SCALARS epsilon float 4
LOOKUP_TABLE default
0.021580 -0.096826 0.000000 0.239219
0.021580 -0.096826 0.000000 -0.239219
-0.090537 0.140103 0.000000 -0.077375
-0.086480 0.350573 0.000000 0.028834
0.000000 0.319644 0.000000 0.000000
0.000000 0.319644 0.000000 0.000000
-0.086480 0.350573 0.000000 -0.028834
-0.090537 0.140103 0.000000 0.077375

SCALARS sigma float 4
LOOKUP_TABLE default
-1.551721 -6.952138 -1.938767 3.841179
-1.551721 -6.952138 -1.938767 -3.841179
-1.653105 2.097984 0.122231 -1.167982
0.633269 5.959199 2.017959 0.081392
3.196444 6.590879 3.196444 0.000000
3.196444 6.590879 3.196444 0.000000
0.633269 5.959199 2.017959 -0.081392
-1.653105 2.097984 0.122231 1.167982

