# vtk DataFile Version 2.0
Unstructured Grid Example
ASCII
DATASET UNSTRUCTURED_GRID

POINTS 64 float
-1.000000 0.000000 0.000000 
-0.937500 0.000000 0.000000 
-0.937500 0.000000 0.000000 
-0.875000 0.000000 0.000000 
-0.875000 0.000000 0.000000 
-0.812500 0.000000 0.000000 
-0.812500 0.000000 0.000000 
-0.750000 0.000000 0.000000 
-0.625000 0.000000 0.000000 
-0.562500 0.000000 0.000000 
-0.562500 0.000000 0.000000 
-0.500000 0.000000 0.000000 
-0.750000 0.000000 0.000000 
-0.687500 0.000000 0.000000 
-0.687500 0.000000 0.000000 
-0.625000 0.000000 0.000000 
-0.125000 -0.189841 0.000000 
-0.062500 -0.485854 0.000000 
-0.062500 -0.354838 0.000000 
0.000000 -0.451874 0.000000 
-0.250000 0.133535 0.000000 
-0.187500 -0.309482 0.000000 
-0.187500 -0.035108 0.000000 
-0.125000 -0.415214 0.000000 
-0.500000 0.000000 0.000000 
-0.437500 0.000000 0.000000 
-0.437500 0.000000 0.000000 
-0.375000 0.000000 0.000000 
-0.375000 0.000000 0.000000 
-0.312500 0.000000 0.000000 
-0.312500 0.014138 0.000000 
-0.250000 -0.028275 0.000000 
0.000000 -0.474461 0.000000 
0.062500 -0.309664 0.000000 
0.062500 -0.484938 0.000000 
0.125000 -0.123913 0.000000 
0.125000 -0.378414 0.000000 
0.187500 0.024064 0.000000 
0.187500 -0.220139 0.000000 
0.250000 0.109993 0.000000 
0.375000 0.018567 0.000000 
0.437500 -0.037134 0.000000 
0.437500 -0.006035 0.000000 
0.500000 -0.043631 0.000000 
0.250000 -0.000102 0.000000 
0.312500 0.000051 0.000000 
0.312500 0.000000 0.000000 
0.375000 0.000000 0.000000 
0.875000 -0.001519 0.000000 
0.937500 -0.003463 0.000000 
0.937500 -0.001238 0.000000 
1.000000 -0.005969 0.000000 
0.750000 -0.001269 0.000000 
0.812500 -0.001987 0.000000 
0.812500 -0.001329 0.000000 
0.875000 -0.002586 0.000000 
0.500000 -0.056211 0.000000 
0.562500 0.019124 0.000000 
0.562500 -0.009531 0.000000 
0.625000 0.001098 0.000000 
0.625000 -0.003313 0.000000 
0.687500 -0.000709 0.000000 
0.687500 -0.001645 0.000000 
0.750000 -0.001440 0.000000 

CELLS 32 96
2  0 1 
2  2 3 
2  4 5 
2  6 7 
2  8 9 
2  10 11 
2  12 13 
2  14 15 
2  16 17 
2  18 19 
2  20 21 
2  22 23 
2  24 25 
2  26 27 
2  28 29 
2  30 31 
2  32 33 
2  34 35 
2  36 37 
2  38 39 
2  40 41 
2  42 43 
2  44 45 
2  46 47 
2  48 49 
2  50 51 
2  52 53 
2  54 55 
2  56 57 
2  58 59 
2  60 61 
2  62 63 

CELL_TYPES 32
3
3
3
3
3
3
3
3
3
3
3
3
3
3
3
3
3
3
3
3
3
3
3
3
3
3
3
3
3
3
3
3

POINT_DATA 64

SCALARS lambda_h float 1
LOOKUP_TABLE default
0.000000 
0.000000 
0.000000 
0.000000 
0.000000 
0.000000 
0.000000 
0.000000 
0.000000 
0.000000 
0.000000 
0.000000 
0.000000 
0.000000 
0.000000 
0.000000 
-0.189841 
-0.485854 
-0.354838 
-0.451874 
0.133535 
-0.309482 
-0.035108 
-0.415214 
0.000000 
0.000000 
0.000000 
0.000000 
0.000000 
0.000000 
0.014138 
-0.028275 
-0.474461 
-0.309664 
-0.484938 
-0.123913 
-0.378414 
0.024064 
-0.220139 
0.109993 
0.018567 
-0.037134 
-0.006035 
-0.043631 
-0.000102 
0.000051 
0.000000 
0.000000 
-0.001519 
-0.003463 
-0.001238 
-0.005969 
-0.001269 
-0.001987 
-0.001329 
-0.002586 
-0.056211 
0.019124 
-0.009531 
0.001098 
-0.003313 
-0.000709 
-0.001645 
-0.001440 

