# vtk DataFile Version 2.0
Unstructured Grid Example
ASCII
DATASET UNSTRUCTURED_GRID

POINTS 128 float
-1.000000 0.000000 0.000000 
-0.968750 0.000000 0.000000 
-0.968750 0.000000 0.000000 
-0.937500 0.000000 0.000000 
-0.937500 0.000000 0.000000 
-0.906250 0.000000 0.000000 
-0.906250 0.000000 0.000000 
-0.875000 0.000000 0.000000 
-0.812500 0.000000 0.000000 
-0.781250 0.000000 0.000000 
-0.781250 0.000000 0.000000 
-0.750000 0.000000 0.000000 
-0.875000 0.000000 0.000000 
-0.843750 0.000000 0.000000 
-0.843750 0.000000 0.000000 
-0.812500 0.000000 0.000000 
-0.562500 -0.001987 0.000000 
-0.531250 0.000993 0.000000 
-0.531250 0.000000 0.000000 
-0.500000 0.000000 0.000000 
-0.625000 0.000139 0.000000 
-0.593750 -0.000278 0.000000 
-0.593750 0.000715 0.000000 
-0.562500 -0.001848 0.000000 
-0.750000 0.000000 0.000000 
-0.718750 0.000000 0.000000 
-0.718750 0.000000 0.000000 
-0.687500 0.000000 0.000000 
-0.687500 0.000000 0.000000 
-0.656250 0.000000 0.000000 
-0.656250 0.000000 0.000000 
-0.625000 0.000000 0.000000 
-0.062500 -0.309886 0.000000 
-0.031250 -0.368843 0.000000 
-0.031250 -0.343803 0.000000 
0.000000 -0.359966 0.000000 
-0.125000 -0.218833 0.000000 
-0.093750 -0.337803 0.000000 
-0.093750 -0.266754 0.000000 
-0.062500 -0.360930 0.000000 
-0.250000 -0.042788 0.000000 
-0.218750 -0.165372 0.000000 
-0.218750 -0.080329 0.000000 
-0.187500 -0.212874 0.000000 
-0.187500 -0.123147 0.000000 
-0.156250 -0.259784 0.000000 
-0.156250 -0.169987 0.000000 
-0.125000 -0.302741 0.000000 
-0.500000 0.000000 0.000000 
-0.468750 0.000000 0.000000 
-0.468750 0.000000 0.000000 
-0.437500 0.000000 0.000000 
-0.437500 0.000000 0.000000 
-0.406250 0.000000 0.000000 
-0.406250 0.000000 0.000000 
-0.375000 0.000000 0.000000 
-0.312500 0.024318 0.000000 
-0.281250 -0.082989 0.000000 
-0.281250 -0.010791 0.000000 
-0.250000 -0.120079 0.000000 
-0.375000 0.000000 0.000000 
-0.343750 0.000000 0.000000 
-0.343750 0.011451 0.000000 
-0.312500 -0.022902 0.000000 
0.000000 -0.364344 0.000000 
0.031250 -0.335046 0.000000 
0.031250 -0.368676 0.000000 
0.062500 -0.297085 0.000000 
0.062500 -0.356137 0.000000 
0.093750 -0.250571 0.000000 
0.093750 -0.328444 0.000000 
0.125000 -0.200391 0.000000 
0.187500 -0.193541 0.000000 
0.218750 -0.066809 0.000000 
0.218750 -0.145512 0.000000 
0.250000 -0.036135 0.000000 
0.125000 -0.289150 0.000000 
0.156250 -0.150926 0.000000 
0.156250 -0.242704 0.000000 
0.187500 -0.105594 0.000000 
0.437500 -0.008389 0.000000 
0.468750 -0.017041 0.000000 
0.468750 -0.019347 0.000000 
0.500000 -0.003776 0.000000 
0.375000 -0.004162 0.000000 
0.406250 -0.008148 0.000000 
0.406250 -0.002367 0.000000 
0.437500 -0.015726 0.000000 
0.250000 -0.101681 0.000000 
0.281250 -0.014421 0.000000 
0.281250 -0.064346 0.000000 
0.312500 -0.001831 0.000000 
0.312500 -0.035117 0.000000 
0.343750 0.002226 0.000000 
0.343750 -0.014953 0.000000 
0.375000 -0.000760 0.000000 
0.937500 0.000000 0.000000 
0.968750 0.000000 0.000000 
0.968750 0.000000 0.000000 
1.000000 0.000000 0.000000 
0.875000 0.000000 0.000000 
0.906250 0.000000 0.000000 
0.906250 0.000000 0.000000 
0.937500 0.000000 0.000000 
0.750000 -0.000019 0.000000 
0.781250 0.000009 0.000000 
0.781250 0.000000 0.000000 
0.812500 0.000000 0.000000 
0.812500 0.000000 0.000000 
0.843750 0.000000 0.000000 
0.843750 0.000000 0.000000 
0.875000 0.000000 0.000000 
0.500000 -0.015059 0.000000 
0.531250 0.003219 0.000000 
0.531250 -0.004374 0.000000 
0.562500 0.000127 0.000000 
0.562500 -0.002015 0.000000 
0.593750 -0.000090 0.000000 
0.593750 -0.001039 0.000000 
0.625000 -0.000118 0.000000 
0.687500 -0.000244 0.000000 
0.718750 -0.000048 0.000000 
0.718750 -0.000217 0.000000 
0.750000 0.000094 0.000000 
0.625000 -0.000582 0.000000 
0.656250 -0.000110 0.000000 
0.656250 -0.000357 0.000000 
0.687500 -0.000089 0.000000 

CELLS 64 192
2  0 1 
2  2 3 
2  4 5 
2  6 7 
2  8 9 
2  10 11 
2  12 13 
2  14 15 
2  16 17 
2  18 19 
2  20 21 
2  22 23 
2  24 25 
2  26 27 
2  28 29 
2  30 31 
2  32 33 
2  34 35 
2  36 37 
2  38 39 
2  40 41 
2  42 43 
2  44 45 
2  46 47 
2  48 49 
2  50 51 
2  52 53 
2  54 55 
2  56 57 
2  58 59 
2  60 61 
2  62 63 
2  64 65 
2  66 67 
2  68 69 
2  70 71 
2  72 73 
2  74 75 
2  76 77 
2  78 79 
2  80 81 
2  82 83 
2  84 85 
2  86 87 
2  88 89 
2  90 91 
2  92 93 
2  94 95 
2  96 97 
2  98 99 
2  100 101 
2  102 103 
2  104 105 
2  106 107 
2  108 109 
2  110 111 
2  112 113 
2  114 115 
2  116 117 
2  118 119 
2  120 121 
2  122 123 
2  124 125 
2  126 127 

CELL_TYPES 64
3
3
3
3
3
3
3
3
3
3
3
3
3
3
3
3
3
3
3
3
3
3
3
3
3
3
3
3
3
3
3
3
3
3
3
3
3
3
3
3
3
3
3
3
3
3
3
3
3
3
3
3
3
3
3
3
3
3
3
3
3
3
3
3

POINT_DATA 128

SCALARS lambda_h float 1
LOOKUP_TABLE default
0.000000 
0.000000 
0.000000 
0.000000 
0.000000 
0.000000 
0.000000 
0.000000 
0.000000 
0.000000 
0.000000 
0.000000 
0.000000 
0.000000 
0.000000 
0.000000 
-0.001987 
0.000993 
0.000000 
0.000000 
0.000139 
-0.000278 
0.000715 
-0.001848 
0.000000 
0.000000 
0.000000 
0.000000 
0.000000 
0.000000 
0.000000 
0.000000 
-0.309886 
-0.368843 
-0.343803 
-0.359966 
-0.218833 
-0.337803 
-0.266754 
-0.360930 
-0.042788 
-0.165372 
-0.080329 
-0.212874 
-0.123147 
-0.259784 
-0.169987 
-0.302741 
0.000000 
0.000000 
0.000000 
0.000000 
0.000000 
0.000000 
0.000000 
0.000000 
0.024318 
-0.082989 
-0.010791 
-0.120079 
0.000000 
0.000000 
0.011451 
-0.022902 
-0.364344 
-0.335046 
-0.368676 
-0.297085 
-0.356137 
-0.250571 
-0.328444 
-0.200391 
-0.193541 
-0.066809 
-0.145512 
-0.036135 
-0.289150 
-0.150926 
-0.242704 
-0.105594 
-0.008389 
-0.017041 
-0.019347 
-0.003776 
-0.004162 
-0.008148 
-0.002367 
-0.015726 
-0.101681 
-0.014421 
-0.064346 
-0.001831 
-0.035117 
0.002226 
-0.014953 
-0.000760 
0.000000 
0.000000 
0.000000 
0.000000 
0.000000 
0.000000 
0.000000 
0.000000 
-0.000019 
0.000009 
0.000000 
0.000000 
0.000000 
0.000000 
0.000000 
0.000000 
-0.015059 
0.003219 
-0.004374 
0.000127 
-0.002015 
-0.000090 
-0.001039 
-0.000118 
-0.000244 
-0.000048 
-0.000217 
0.000094 
-0.000582 
-0.000110 
-0.000357 
-0.000089 

