# vtk DataFile Version 2.0
Unstructured Grid Example
ASCII
DATASET UNSTRUCTURED_GRID

POINTS 32 float
-1.000000 0.000000 0.000000 
-0.875000 0.000000 0.000000 
-0.875000 0.000000 0.000000 
-0.750000 0.000000 0.000000 
-0.750000 0.000000 0.000000 
-0.625000 0.000000 0.000000 
-0.625000 0.000000 0.000000 
-0.500000 0.000000 0.000000 
-0.250000 0.291895 0.000000 
-0.125000 -0.583789 0.000000 
-0.125000 -0.001788 0.000000 
0.000000 -0.872108 0.000000 
-0.500000 0.000000 0.000000 
-0.375000 0.000000 0.000000 
-0.375000 0.000000 0.000000 
-0.250000 0.000000 0.000000 
0.000000 -0.973511 0.000000 
0.125000 0.201017 0.000000 
0.125000 -0.380984 0.000000 
0.250000 0.190492 0.000000 
0.250000 0.000000 0.000000 
0.375000 0.000000 0.000000 
0.375000 0.011927 0.000000 
0.500000 -0.023854 0.000000 
0.750000 0.002092 0.000000 
0.875000 -0.004183 0.000000 
0.875000 0.015822 0.000000 
1.000000 -0.037920 0.000000 
0.500000 -0.023854 0.000000 
0.625000 0.011927 0.000000 
0.625000 0.000000 0.000000 
0.750000 0.000000 0.000000 

CELLS 16 48
2  0 1 
2  2 3 
2  4 5 
2  6 7 
2  8 9 
2  10 11 
2  12 13 
2  14 15 
2  16 17 
2  18 19 
2  20 21 
2  22 23 
2  24 25 
2  26 27 
2  28 29 
2  30 31 

CELL_TYPES 16
3
3
3
3
3
3
3
3
3
3
3
3
3
3
3
3

POINT_DATA 32

SCALARS lambda_h float 1
LOOKUP_TABLE default
0.000000 
0.000000 
0.000000 
0.000000 
0.000000 
0.000000 
0.000000 
0.000000 
0.291895 
-0.583789 
-0.001788 
-0.872108 
0.000000 
0.000000 
0.000000 
0.000000 
-0.973511 
0.201017 
-0.380984 
0.190492 
0.000000 
0.000000 
0.011927 
-0.023854 
0.002092 
-0.004183 
0.015822 
-0.037920 
-0.023854 
0.011927 
0.000000 
0.000000 

