# vtk DataFile Version 2.0
Unstructured Grid Example
ASCII
DATASET UNSTRUCTURED_GRID

POINTS 12 float
-0.970543 -0.007645 0.000000 
0.043742 0.020903 0.000000 
1.065059 0.037332 0.000000 
-1.040495 0.977673 0.000000 
-0.039880 1.017337 0.000000 
0.958720 1.033499 0.000000 
-1.062049 1.998797 0.000000 
-0.057084 2.027388 0.000000 
0.950831 2.006795 0.000000 
-1.000000 3.000000 0.000000 
0.000000 3.000000 0.000000 
1.000000 3.000000 0.000000 

CELLS 12 48
3  0 1 3 
3  1 4 3 
3  1 2 4 
3  2 5 4 
3  3 4 6 
3  4 7 6 
3  4 5 7 
3  5 8 7 
3  6 7 9 
3  7 10 9 
3  7 8 10 
3  8 11 10 

CELL_TYPES 12
5
5
5
5
5
5
5
5
5
5
5
5

POINT_DATA 12

SCALARS u_h float 2
LOOKUP_TABLE default
0.029457 -0.007645 
0.043742 0.020903 
0.065059 0.037332 
-0.040495 -0.022327 
-0.039880 0.017337 
-0.041280 0.033499 
-0.062049 -0.001203 
-0.057084 0.027388 
-0.049169 0.006795 
0.000000 0.000000 
0.000000 0.000000 
0.000000 0.000000 

CELL_DATA 12

SCALARS epsilon float 4
LOOKUP_TABLE default
0.018619 -0.012388 0.000000 -0.019995
0.007430 0.000535 0.000000 -0.021883
0.025805 -0.002093 0.000000 -0.032699
0.006020 -0.001982 0.000000 -0.045132
0.001673 0.022489 0.000000 0.008656
0.005580 0.010881 0.000000 0.005594
-0.000980 0.010405 0.000000 -0.000612
0.007751 -0.027005 0.000000 -0.014488
0.005095 -0.000157 0.000000 0.045149
0.001722 -0.027763 0.000000 0.028520
0.010774 -0.026345 0.000000 0.017712
0.001225 -0.006819 0.000000 0.024583

SCALARS sigma float 4
LOOKUP_TABLE default
0.141775 -0.080746 0.018309 -0.159027
0.051427 0.019277 0.021211 -0.169013
0.285896 0.098067 0.115189 -0.253607
-0.007824 -0.026606 -0.010329 -0.348055
0.143587 0.297857 0.132433 0.068115
0.133161 0.171691 0.091456 0.043126
0.043833 0.131137 0.052491 -0.003971
-0.055759 -0.327264 -0.114907 -0.111683
0.039594 0.010791 0.015115 0.347088
-0.162456 -0.379065 -0.162456 0.225738
-0.033635 -0.310324 -0.103188 0.143002
-0.039473 -0.092104 -0.039473 0.190404

