# vtk DataFile Version 2.0
Unstructured Grid Example
ASCII
DATASET UNSTRUCTURED_GRID

POINTS 6305 float
-1.000455 0.000103 0.000000 
-0.000510 0.035261 0.000000 
0.999861 0.000009 0.000000 
-1.000190 1.000093 0.000000 
-0.000108 1.036363 0.000000 
0.999791 0.999943 0.000000 
-1.000083 2.000068 0.000000 
-0.000013 2.074085 0.000000 
0.999928 1.999944 0.000000 
-1.000000 3.000000 0.000000 
0.000000 3.000000 0.000000 
1.000000 3.000000 0.000000 
-0.500349 0.000017 0.000000 
-0.500325 0.499962 0.000000 
-1.000321 0.500114 0.000000 
-0.000170 0.530411 0.000000 
-0.500189 1.000087 0.000000 
0.499817 -0.000001 0.000000 
0.499787 0.500001 0.000000 
0.999820 0.500000 0.000000 
0.499765 0.999943 0.000000 
-0.500118 1.500881 0.000000 
-1.000139 1.500060 0.000000 
-0.000302 1.552120 0.000000 
-0.500113 2.005402 0.000000 
0.499884 1.500849 0.000000 
0.999847 1.499914 0.000000 
0.499949 2.005488 0.000000 
-0.499996 2.512038 0.000000 
-1.000002 2.500051 0.000000 
0.000017 2.566443 0.000000 
-0.500000 3.000000 0.000000 
0.499933 2.511896 0.000000 
0.999965 2.499983 0.000000 
0.500000 3.000000 0.000000 
-0.750450 0.000035 0.000000 
-0.750399 0.250040 0.000000 
-1.000393 0.250107 0.000000 
-0.274796 0.260196 0.000000 
-0.500411 0.249984 0.000000 
-0.251046 0.010969 0.000000 
-1.000246 0.750109 0.000000 
-0.750322 0.500047 0.000000 
-0.750244 0.750051 0.000000 
-0.000374 0.280975 0.000000 
-0.274740 0.510344 0.000000 
-0.225781 1.014459 0.000000 
-0.250283 0.761647 0.000000 
-0.000055 0.782279 0.000000 
-0.500256 0.750000 0.000000 
-0.750185 1.000054 0.000000 
0.250533 0.011018 0.000000 
0.274290 0.259919 0.000000 
0.749847 0.250001 0.000000 
0.499862 0.250025 0.000000 
0.749860 -0.000000 0.000000 
0.274171 0.510057 0.000000 
0.249716 0.761628 0.000000 
0.999846 0.250010 0.000000 
0.749811 0.499988 0.000000 
0.749781 0.999938 0.000000 
0.749783 0.749961 0.000000 
0.999797 0.749974 0.000000 
0.499753 0.749945 0.000000 
0.225332 1.014713 0.000000 
-0.750150 1.250047 0.000000 
-1.000157 1.250073 0.000000 
-0.225695 1.269212 0.000000 
-0.500137 1.250286 0.000000 
-1.000118 1.750060 0.000000 
-0.750134 1.500033 0.000000 
-0.750119 1.750023 0.000000 
-0.000246 1.292902 0.000000 
-0.250083 1.526159 0.000000 
-0.274565 2.044478 0.000000 
-0.274530 1.785055 0.000000 
-0.000195 1.813395 0.000000 
-0.500121 1.752411 0.000000 
-0.750087 2.000027 0.000000 
0.225425 1.269474 0.000000 
0.749806 1.249930 0.000000 
0.499818 1.250149 0.000000 
0.249931 1.526162 0.000000 
0.274374 1.784795 0.000000 
0.999809 1.249920 0.000000 
0.749851 1.499942 0.000000 
0.749935 1.999976 0.000000 
0.749899 1.749961 0.000000 
0.999891 1.749925 0.000000 
0.499932 1.752487 0.000000 
0.274335 2.044210 0.000000 
-0.750039 2.250043 0.000000 
-1.000037 2.250069 0.000000 
-0.250121 2.300548 0.000000 
-0.500068 2.259498 0.000000 
-0.999999 2.750021 0.000000 
-0.749995 2.500191 0.000000 
-0.749986 2.750436 0.000000 
0.000080 2.328235 0.000000 
-0.225598 2.545920 0.000000 
-0.250000 3.000000 0.000000 
-0.225466 2.773583 0.000000 
-0.000087 2.782053 0.000000 
-0.499953 2.757974 0.000000 
-0.750000 3.000000 0.000000 
0.249865 2.300514 0.000000 
0.749960 2.249989 0.000000 
0.499945 2.259484 0.000000 
0.225438 2.546097 0.000000 
0.225502 2.773723 0.000000 
0.999953 2.249964 0.000000 
0.749975 2.500142 0.000000 
0.750000 3.000000 0.000000 
0.749961 2.750402 0.000000 
0.999966 2.749993 0.000000 
0.499927 2.757811 0.000000 
0.250000 3.000000 0.000000 
-0.875455 0.000070 0.000000 
-0.875424 0.125071 0.000000 
-1.000423 0.125104 0.000000 
-0.625430 0.125003 0.000000 
-0.750425 0.125035 0.000000 
-0.625430 0.000004 0.000000 
-1.000358 0.375111 0.000000 
-0.875395 0.250073 0.000000 
-0.875360 0.375077 0.000000 
-0.139392 0.150208 0.000000 
-0.264636 0.135511 0.000000 
-0.126348 0.027069 0.000000 
-0.500364 0.374966 0.000000 
-0.382644 0.251294 0.000000 
-0.383747 0.376280 0.000000 
-0.375416 0.001358 0.000000 
-0.379624 0.126354 0.000000 
-0.500447 0.125000 0.000000 
-1.000215 0.875102 0.000000 
-0.875245 0.750079 0.000000 
-0.875212 0.875076 0.000000 
-0.875321 0.500079 0.000000 
-0.875282 0.625080 0.000000 
-1.000282 0.625114 0.000000 
-0.625284 0.625016 0.000000 
-0.750282 0.625049 0.000000 
-0.625324 0.500011 0.000000 
-0.625407 0.250010 0.000000 
-0.625366 0.375011 0.000000 
-0.750363 0.375044 0.000000 
-0.000456 0.157461 0.000000 
-0.149256 0.274193 0.000000 
-0.149077 0.523940 0.000000 
-0.152842 0.398807 0.000000 
-0.000271 0.405350 0.000000 
-0.278530 0.385137 0.000000 
-0.382621 0.501350 0.000000 
-0.101285 1.029343 0.000000 
-0.111353 0.902205 0.000000 
-0.000062 0.909036 0.000000 
-0.371083 0.877381 0.000000 
-0.236147 0.887836 0.000000 
-0.367951 1.003104 0.000000 
-0.000093 0.656069 0.000000 
-0.125134 0.775624 0.000000 
-0.138940 0.649546 0.000000 
-0.750211 0.875054 0.000000 
-0.875187 1.000072 0.000000 
-0.500290 0.624974 0.000000 
-0.625247 0.750024 0.000000 
-0.625184 1.000042 0.000000 
-0.625213 0.875035 0.000000 
-0.500222 0.875037 0.000000 
-0.264406 0.635834 0.000000 
-0.375323 0.751869 0.000000 
-0.379543 0.626536 0.000000 
0.125502 0.027135 0.000000 
0.138627 0.150064 0.000000 
0.379202 0.126302 0.000000 
0.264141 0.135365 0.000000 
0.374996 0.001238 0.000000 
0.148595 0.273893 0.000000 
0.152302 0.398446 0.000000 
0.874855 0.125003 0.000000 
0.749857 0.125001 0.000000 
0.874861 0.000003 0.000000 
0.499821 0.375021 0.000000 
0.624851 0.250008 0.000000 
0.624826 0.375004 0.000000 
0.624858 -0.000000 0.000000 
0.624864 0.125002 0.000000 
0.499889 0.125004 0.000000 
0.124863 0.775615 0.000000 
0.111089 0.902376 0.000000 
0.148657 0.523622 0.000000 
0.138614 0.649358 0.000000 
0.378896 0.626514 0.000000 
0.263824 0.635660 0.000000 
0.382014 0.501336 0.000000 
0.382171 0.251271 0.000000 
0.383207 0.376266 0.000000 
0.277992 0.384812 0.000000 
0.999855 0.125010 0.000000 
0.874846 0.250002 0.000000 
0.874816 0.499991 0.000000 
0.874832 0.374998 0.000000 
0.999834 0.375007 0.000000 
0.749829 0.374997 0.000000 
0.624802 0.499991 0.000000 
0.874786 0.999944 0.000000 
0.874785 0.874955 0.000000 
0.999791 0.874959 0.000000 
0.624769 0.874935 0.000000 
0.749778 0.874948 0.000000 
0.624774 0.999923 0.000000 
0.999807 0.624989 0.000000 
0.874790 0.749968 0.000000 
0.874801 0.624980 0.000000 
0.235626 0.887974 0.000000 
0.100987 1.029646 0.000000 
0.499764 0.624973 0.000000 
0.374681 0.751837 0.000000 
0.367462 1.003057 0.000000 
0.370495 0.877339 0.000000 
0.499753 0.874930 0.000000 
0.749794 0.624975 0.000000 
0.624772 0.749953 0.000000 
0.624783 0.624973 0.000000 
-0.875167 1.125066 0.000000 
-1.000171 1.125083 0.000000 
-0.625161 1.125044 0.000000 
-0.750164 1.125052 0.000000 
-1.000147 1.375065 0.000000 
-0.875154 1.250060 0.000000 
-0.875144 1.375054 0.000000 
-0.097623 1.157095 0.000000 
-0.221956 1.141570 0.000000 
-0.500124 1.375506 0.000000 
-0.367831 1.255333 0.000000 
-0.370865 1.381927 0.000000 
-0.366763 1.129074 0.000000 
-0.500160 1.125162 0.000000 
-1.000102 1.875064 0.000000 
-0.875119 1.750044 0.000000 
-0.875104 1.875045 0.000000 
-0.875137 1.500049 0.000000 
-0.875129 1.625045 0.000000 
-1.000130 1.625059 0.000000 
-0.625124 1.625005 0.000000 
-0.750128 1.625027 0.000000 
-0.625128 1.500016 0.000000 
-0.625145 1.250040 0.000000 
-0.625134 1.375029 0.000000 
-0.750141 1.375040 0.000000 
-0.000177 1.164303 0.000000 
-0.101344 1.285511 0.000000 
-0.125226 1.544349 0.000000 
-0.111449 1.414607 0.000000 
-0.000293 1.422182 0.000000 
-0.235991 1.397409 0.000000 
-0.375049 1.508909 0.000000 
-0.148916 2.065708 0.000000 
-0.152660 1.935763 0.000000 
-0.000103 1.944095 0.000000 
-0.383523 1.892459 0.000000 
-0.278329 1.914867 0.000000 
-0.382427 2.020977 0.000000 
-0.000267 1.682603 0.000000 
-0.149022 1.805219 0.000000 
-0.138979 1.674626 0.000000 
-0.750106 1.875023 0.000000 
-0.875084 2.000048 0.000000 
-0.500118 1.626490 0.000000 
-0.625120 1.750014 0.000000 
-0.625097 2.000295 0.000000 
-0.625111 1.875088 0.000000 
-0.500120 1.878710 0.000000 
-0.264190 1.655412 0.000000 
-0.382362 1.764189 0.000000 
-0.379259 1.636324 0.000000 
0.097267 1.157448 0.000000 
0.366397 1.129029 0.000000 
0.221597 1.141869 0.000000 
0.100931 1.285818 0.000000 
0.111001 1.414785 0.000000 
0.874793 1.124935 0.000000 
0.749790 1.124932 0.000000 
0.499852 1.375413 0.000000 
0.624808 1.249921 0.000000 
0.624833 1.374932 0.000000 
0.624788 1.124918 0.000000 
0.499788 1.125006 0.000000 
0.148715 1.804914 0.000000 
0.152459 1.935408 0.000000 
0.124782 1.544351 0.000000 
0.138585 1.674451 0.000000 
0.379180 1.636336 0.000000 
0.264051 1.655264 0.000000 
0.374964 1.508904 0.000000 
0.367590 1.255295 0.000000 
0.370724 1.381904 0.000000 
0.235794 1.397563 0.000000 
0.999797 1.124930 0.000000 
0.874807 1.249930 0.000000 
0.874848 1.499931 0.000000 
0.874826 1.374929 0.000000 
0.999826 1.374915 0.000000 
0.749827 1.374934 0.000000 
0.624859 1.499948 0.000000 
0.874932 1.999960 0.000000 
0.874915 1.874952 0.000000 
0.999911 1.874934 0.000000 
0.624928 1.875093 0.000000 
0.749919 1.874970 0.000000 
0.624945 2.000303 0.000000 
0.999869 1.624918 0.000000 
0.874894 1.749944 0.000000 
0.874871 1.624937 0.000000 
0.278138 1.914564 0.000000 
0.148817 2.065396 0.000000 
0.499911 1.626518 0.000000 
0.382245 1.764214 0.000000 
0.382181 2.021000 0.000000 
0.383343 1.892488 0.000000 
0.499944 1.878807 0.000000 
0.749876 1.624951 0.000000 
0.624908 1.750003 0.000000 
0.624885 1.624968 0.000000 
-0.875061 2.125050 0.000000 
-1.000060 2.125070 0.000000 
-0.625076 2.125702 0.000000 
-0.750064 2.125033 0.000000 
-1.000017 2.375062 0.000000 
-0.875036 2.250051 0.000000 
-0.875014 2.375050 0.000000 
-0.138789 2.194275 0.000000 
-0.264242 2.173312 0.000000 
-0.500033 2.386253 0.000000 
-0.375146 2.277247 0.000000 
-0.370900 2.403664 0.000000 
-0.379362 2.149422 0.000000 
-0.500096 2.132407 0.000000 
-1.000004 2.875010 0.000000 
-0.874993 2.750027 0.000000 
-0.874999 2.875020 0.000000 
-0.874998 2.500045 0.000000 
-0.874991 2.625036 0.000000 
-0.999996 2.625036 0.000000 
-0.624977 2.628261 0.000000 
[...]
POINT_DATA 6305

SCALARS u_h float 2
LOOKUP_TABLE default
-0.000455 0.000103 
-0.000510 0.035261 
-0.000139 0.000009 
-0.000190 0.000093 
-0.000108 0.036363 
-0.000209 -0.000057 
-0.000083 0.000068 
-0.000013 0.074085 
-0.000072 -0.000056 
0.000000 0.000000 
0.000000 0.000000 
0.000000 0.000000 
-0.000349 0.000017 
-0.000325 -0.000038 
-0.000321 0.000114 
-0.000170 0.030411 
-0.000189 0.000087 
-0.000183 -0.000001 
-0.000213 0.000001 
-0.000180 0.000000 
-0.000235 -0.000057 
-0.000118 0.000881 
-0.000139 0.000060 
-0.000302 0.052120 
-0.000113 0.005402 
-0.000116 0.000849 
-0.000153 -0.000086 
-0.000051 0.005488 
0.000004 0.012038 
-0.000002 0.000051 
0.000017 0.066443 
0.000000 0.000000 
-0.000067 0.011896 
-0.000035 -0.000017 
0.000000 0.000000 
-0.000450 0.000035 
-0.000399 0.000040 
-0.000393 0.000107 
-0.024796 0.010196 
-0.000411 -0.000016 
-0.001046 0.010969 
-0.000246 0.000109 
-0.000322 0.000047 
-0.000244 0.000051 
-0.000374 0.030975 
-0.024740 0.010344 
0.024219 0.014459 
-0.000283 0.011647 
-0.000055 0.032279 
-0.000256 -0.000000 
-0.000185 0.000054 
0.000533 0.011018 
0.024290 0.009919 
-0.000153 0.000001 
-0.000138 0.000025 
-0.000140 -0.000000 
0.024171 0.010057 
-0.000284 0.011628 
-0.000154 0.000010 
-0.000189 -0.000012 
-0.000219 -0.000062 
-0.000217 -0.000039 
-0.000203 -0.000026 
-0.000247 -0.000055 
-0.024668 0.014713 
-0.000150 0.000047 
-0.000157 0.000073 
0.024305 0.019212 
-0.000137 0.000286 
-0.000118 0.000060 
-0.000134 0.000033 
-0.000119 0.000023 
-0.000246 0.042902 
-0.000083 0.026159 
-0.024565 0.044478 
-0.024530 0.035055 
-0.000195 0.063395 
-0.000121 0.002411 
-0.000087 0.000027 
-0.024575 0.019474 
-0.000194 -0.000070 
-0.000182 0.000149 
-0.000069 0.026162 
0.024374 0.034795 
-0.000191 -0.000080 
-0.000149 -0.000058 
-0.000065 -0.000024 
-0.000101 -0.000039 
-0.000109 -0.000075 
-0.000068 0.002487 
0.024335 0.044210 
-0.000039 0.000043 
-0.000037 0.000069 
-0.000121 0.050548 
-0.000068 0.009498 
0.000001 0.000021 
0.000005 0.000191 
0.000014 0.000436 
0.000080 0.078235 
0.024402 0.045920 
0.000000 0.000000 
0.024534 0.023583 
-0.000087 0.032053 
0.000047 0.007974 
0.000000 0.000000 
-0.000135 0.050514 
-0.000040 -0.000011 
-0.000055 0.009484 
-0.024562 0.046097 
-0.024498 0.023723 
-0.000047 -0.000036 
-0.000025 0.000142 
0.000000 0.000000 
-0.000039 0.000402 
-0.000034 -0.000007 
-0.000073 0.007811 
0.000000 0.000000 
-0.000455 0.000070 
-0.000424 0.000071 
-0.000423 0.000104 
-0.000430 0.000003 
-0.000425 0.000035 
-0.000430 0.000004 
-0.000358 0.000111 
-0.000395 0.000073 
-0.000360 0.000077 
-0.014392 0.025208 
-0.014636 0.010511 
-0.001348 0.027069 
-0.000364 -0.000034 
-0.007644 0.001294 
-0.008747 0.001280 
-0.000416 0.001358 
-0.004624 0.001354 
-0.000447 -0.000000 
-0.000215 0.000102 
-0.000245 0.000079 
-0.000212 0.000076 
-0.000321 0.000079 
-0.000282 0.000080 
-0.000282 0.000114 
-0.000284 0.000016 
-0.000282 0.000049 
-0.000324 0.000011 
-0.000407 0.000010 
-0.000366 0.000011 
-0.000363 0.000044 
-0.000456 0.032461 
-0.024256 0.024193 
-0.024077 0.023940 
-0.027842 0.023807 
-0.000271 0.030350 
-0.028530 0.010137 
-0.007621 0.001350 
0.023715 0.029343 
0.013647 0.027205 
-0.000062 0.034036 
0.003917 0.002381 
0.013853 0.012836 
0.007049 0.003104 
-0.000093 0.031069 
-0.000134 0.025624 
-0.013940 0.024546 
-0.000211 0.000054 
-0.000187 0.000072 
-0.000290 -0.000026 
-0.000247 0.000024 
-0.000184 0.000042 
-0.000213 0.000035 
-0.000222 0.000037 
-0.014406 0.010834 
-0.000323 0.001869 
-0.004543 0.001536 
0.000502 0.027135 
0.013627 0.025064 
0.004202 0.001302 
0.014141 0.010365 
-0.000004 0.001238 
0.023595 0.023893 
0.027302 0.023446 
-0.000145 0.000003 
-0.000143 0.000001 
-0.000139 0.000003 
-0.000179 0.000021 
-0.000149 0.000008 
-0.000174 0.000004 
-0.000142 -0.000000 
-0.000136 0.000002 
-0.000111 0.000004 
-0.000137 0.025615 
-0.013911 0.027376 
0.023657 0.023622 
0.013614 0.024358 
0.003896 0.001514 
0.013824 0.010660 
0.007014 0.001336 
0.007171 0.001271 
0.008207 0.001266 
0.027992 0.009812 
-0.000145 0.000010 
-0.000154 0.000002 
-0.000184 -0.000009 
-0.000168 -0.000002 
-0.000166 0.000007 
-0.000171 -0.000003 
-0.000198 -0.000009 
-0.000214 -0.000056 
-0.000215 -0.000045 
-0.000209 -0.000041 
-0.000231 -0.000065 
-0.000222 -0.000052 
-0.000226 -0.000077 
-0.000193 -0.000011 
-0.000210 -0.000032 
-0.000199 -0.000020 
-0.014374 0.012974 
-0.024013 0.029646 
-0.000236 -0.000027 
-0.000319 0.001837 
-0.007538 0.003057 
-0.004505 0.002339 
-0.000247 -0.000070 
-0.000206 -0.000025 
-0.000228 -0.000047 
-0.000217 -0.000027 
-0.000167 0.000066 
-0.000171 0.000083 
-0.000161 0.000044 
-0.000164 0.000052 
-0.000147 0.000065 
-0.000154 0.000060 
-0.000144 0.000054 
0.027377 0.032095 
0.028044 0.016570 
-0.000124 0.000506 
0.007169 0.005333 
0.004135 0.006927 
0.008237 0.004074 
-0.000160 0.000162 
-0.000102 0.000064 
-0.000119 0.000044 
-0.000104 0.000045 
-0.000137 0.000049 
-0.000129 0.000045 
-0.000130 0.000059 
-0.000124 0.000005 
-0.000128 0.000027 
-0.000128 0.000016 
-0.000145 0.000040 
-0.000134 0.000029 
-0.000141 0.000040 
-0.000177 0.039303 
0.023656 0.035511 
-0.000226 0.044349 
0.013551 0.039607 
-0.000293 0.047182 
0.014009 0.022409 
-0.000049 0.008909 
-0.023916 0.065708 
-0.027660 0.060763 
-0.000103 0.069095 
-0.008523 0.017459 
-0.028329 0.039867 
-0.007427 0.020977 
-0.000267 0.057603 
-0.024022 0.055219 
-0.013979 0.049626 
-0.000106 0.000023 
-0.000084 0.000048 
-0.000118 0.001490 
-0.000120 0.000014 
-0.000097 0.000295 
-0.000111 0.000088 
-0.000120 0.003710 
-0.014190 0.030412 
-0.007362 0.014189 
-0.004259 0.011324 
-0.027733 0.032448 
-0.008603 0.004029 
-0.028403 0.016869 
-0.024069 0.035818 
-0.013999 0.039785 
-0.000207 -0.000065 
-0.000210 -0.000068 
-0.000148 0.000413 
-0.000192 -0.000079 
-0.000167 -0.000068 
-0.000212 -0.000082 
-0.000212 0.000006 
0.023715 0.054914 
0.027459 0.060408 
-0.000218 0.044351 
0.013585 0.049451 
0.004180 0.011336 
0.014051 0.030264 
-0.000036 0.008904 
-0.007410 0.005295 
-0.004276 0.006904 
-0.014206 0.022563 
-0.000203 -0.000070 
-0.000193 -0.000070 
-0.000152 -0.000069 
-0.000174 -0.000071 
-0.000174 -0.000085 
-0.000173 -0.000066 
-0.000141 -0.000052 
-0.000068 -0.000040 
-0.000085 -0.000048 
-0.000089 -0.000066 
-0.000072 0.000093 
-0.000081 -0.000030 
-0.000055 0.000303 
-0.000131 -0.000082 
-0.000106 -0.000056 
-0.000129 -0.000063 
0.028138 0.039564 
0.023817 0.065396 
-0.000089 0.001518 
0.007245 0.014214 
0.007181 0.021000 
0.008343 0.017488 
-0.000056 0.003807 
-0.000124 -0.000049 
-0.000092 0.000003 
-0.000115 -0.000032 
-0.000061 0.000050 
-0.000060 0.000070 
-0.000076 0.000702 
-0.000064 0.000033 
-0.000017 0.000062 
-0.000036 0.000051 
-0.000014 0.000050 
-0.013789 0.069275 
-0.014242 0.048312 
-0.000033 0.011253 
-0.000146 0.027247 
0.004100 0.028664 
-0.004362 0.024422 
-0.000096 0.007407 
-0.000004 0.000010 
0.000007 0.000027 
0.000001 0.000020 
0.000002 0.000045 
0.000009 0.000036 
0.000004 0.000036 
0.000023 0.003261 
0.000015 0.000351 
0.000006 0.002916 
-0.000049 0.001341 
-0.000020 0.002150 
-0.000014 0.000083 
0.000054 0.077503 
0.000012 0.070441 
0.023872 0.060665 
0.013794 0.067983 
0.000065 0.074975 
0.014021 0.050136 
0.007243 0.027700 
0.000000 0.000000 
0.013799 0.010382 
-0.000090 0.011132 
0.004308 0.005844 
0.014236 0.008468 
0.000000 0.000000 
-0.000043 0.051880 
0.023868 0.029668 
0.027555 0.047693 
0.000005 0.000269 
0.000000 0.000000 
0.000035 0.011114 
0.000026 0.002739 
0.000000 0.000000 
0.000013 0.001245 
0.000026 0.003167 
0.028248 0.037008 
0.007378 0.015612 
0.008444 0.023437 
0.013765 0.069085 
0.004073 0.024426 
0.013986 0.048143 
-0.000002 0.070417 
-0.013792 0.068121 
-0.000054 -0.000033 
-0.000051 -0.000019 
-0.000060 0.011170 
-0.000035 0.001319 
-0.000031 0.002103 
-0.000043 0.000700 
-0.000051 0.007453 
-0.023967 0.029886 
-0.013872 0.010475 
-0.023909 0.060914 
-0.027636 0.047971 
-0.008498 0.023308 
-0.028317 0.037201 
-0.007407 0.027598 
-0.000147 0.027221 
-0.004349 0.028601 
-0.014246 0.050230 
-0.000058 -0.000046 
-0.000043 -0.000026 
-0.000031 -0.000013 
-0.000035 -0.000020 
-0.000039 -0.000026 
-0.000030 0.000030 
-0.000033 0.002847 
0.000000 0.000000 
-0.000029 0.000008 
-0.000026 -0.000008 
-0.000063 0.001191 
-0.000045 0.000245 
0.000000 0.000000 
-0.000034 -0.000010 
-0.000033 0.000002 
-0.000031 -0.000006 
-0.014125 0.008517 
0.000000 0.000000 
-0.000073 0.010940 
-0.007325 0.015484 
0.000000 0.000000 
-0.004195 0.005764 
-0.000059 0.003071 
-0.000028 0.000309 
-0.000058 0.002659 
-0.000043 0.003178 
-0.000455 0.000087 
-0.000439 0.000087 
-0.000439 0.000103 
-0.000438 0.000052 
-0.000439 0.000070 
-0.000453 0.000053 
-0.000408 0.000105 
-0.000424 0.000088 
-0.000409 0.000089 
-0.000427 -0.000009 
-0.000430 0.000000 
-0.000405 -0.000000 
-0.000413 0.000037 
-0.000426 0.000017 
-0.000417 0.000021 
-0.000443 0.000018 
-0.000433 0.000016 
-0.000436 0.000034 
-0.000340 0.000113 
-0.000359 0.000094 
-0.000340 0.000095 
-0.000394 0.000090 
-0.000377 0.000092 
-0.000376 0.000109 
-0.000380 0.000059 
-0.000378 0.000075 
-0.000396 0.000056 
-0.000424 0.000053 
-0.000411 0.000054 
-0.000410 0.000072 
-0.004864 0.031598 
-0.007995 0.026013 
-0.001056 0.033041 
-0.020371 0.010324 
-0.016511 0.017909 
-0.022967 0.017530 
-0.001318 0.019015 
-0.009084 0.018408 
-0.008022 0.010742 
-0.000343 -0.000038 
-0.001865 0.000083 
-0.001801 0.000079 
-0.001699 0.000116 
-0.001829 0.000096 
-0.000387 -0.000026 
-0.018610 0.004564 
-0.008468 0.001278 
-0.016738 0.004583 
-0.000292 0.000218 
-0.000811 0.000190 
-0.000431 0.000002 
-0.005455 0.004760 
-0.002617 0.001375 
-0.000689 0.004737 
-0.000434 -0.000006 
-0.001188 0.000165 
-0.001482 0.000140 
-0.013770 0.004633 
-0.006333 0.001322 
-0.009918 0.004702 
-0.000202 0.000098 
-0.000214 0.000089 
-0.000200 0.000085 
-0.000245 0.000093 
-0.000229 0.000091 
-0.000230 0.000106 
-0.000227 0.000065 
-0.000228 0.000077 
-0.000244 0.000065 
-0.000321 0.000096 
-0.000301 0.000096 
-0.000301 0.000114 
-0.000302 0.000064 
-0.000301 0.000080 
-0.000322 0.000063 
-0.000264 0.000112 
-0.000282 0.000096 
-0.000263 0.000095 
-0.000305 -0.000009 
-0.000303 0.000013 
-0.000324 -0.000011 
-0.000263 0.000050 
-0.000282 0.000033 
-0.000263 0.000035 
-0.000323 0.000030 
-0.000303 0.000031 
-0.000302 0.000048 
-0.000263 0.000079 
-0.000282 0.000064 
-0.000262 0.000064 
-0.000437 -0.000004 
-0.000410 -0.000002 
-0.000429 -0.000001 
-0.000422 0.000008 
-0.000403 0.000024 
-0.000345 -0.000011 
-0.000344 0.000029 
-0.000345 0.000010 
-0.000366 -0.000009 
-0.000389 -0.000006 
-0.000341 0.000078 
-0.000382 0.000042 
-0.000361 0.000060 
-0.000342 0.000062 
-0.000343 0.000046 
-0.000387 0.000011 
-0.000365 0.000028 
-0.000385 0.000027 
-0.000484 0.033642 
-0.008544 0.030536 
-0.014207 0.029205 
-0.011746 0.029757 
-0.000419 0.031593 
-0.019962 0.024612 
-0.027948 0.017269 
-0.013994 0.028732 
-0.015633 0.028622 
-0.000219 0.030301 
-0.031028 0.017117 
-0.026864 0.023812 
-0.027830 0.017260 
-0.000324 0.030569 
-0.016227 0.028656 
-0.015739 0.028845 
-0.008460 0.001302 
-0.001641 0.000087 
-0.027584 0.010134 
-0.019249 0.004581 
-0.016719 0.004739 
-0.018605 0.004638 
-0.027561 0.010207 
-0.026949 0.023930 
-0.032135 0.017069 
-0.031081 0.017118 
0.013693 0.034455 
0.011182 0.033249 
-0.000081 0.035126 
0.022322 0.021129 
0.019347 0.028201 
0.027387 0.022164 
-0.000053 0.033089 
0.007894 0.032194 
0.004055 0.031282 
0.000837 0.000600 
0.005684 0.002714 
0.001099 0.000759 
0.007032 0.012190 
0.009171 0.006550 
0.004587 0.006076 
0.016151 0.007753 
0.013115 0.007107 
0.019715 0.013589 
-0.000127 0.030669 
-0.008086 0.029358 
-0.011420 0.028979 
-0.000076 0.030508 
-0.004216 0.029868 
-0.000068 0.031606 
-0.008461 0.018266 
-0.007277 0.025025 
-0.000212 0.018806 
0.015722 0.020230 
0.008037 0.019458 
0.007002 0.026349 
-0.000199 0.000074 
-0.000188 0.000082 
-0.000227 0.000053 
-0.000212 0.000064 
-0.000186 0.000062 
-0.000198 0.000064 
-0.000197 0.000054 
-0.000307 -0.000034 
-0.000286 -0.000004 
-0.000250 0.000010 
-0.000268 0.000002 
-0.000273 -0.000015 
-0.000265 0.000020 
-0.000245 0.000038 
-0.000185 0.000039 
-0.000200 0.000034 
-0.000205 0.000060 
-0.000197 0.000046 
-0.000198 0.000039 
-0.000184 0.000047 
-0.000239 0.000017 
-0.000216 0.000027 
-0.000233 0.000018 
-0.000228 0.000041 
-0.000229 0.000030 
-0.000212 0.000044 
-0.019670 0.024184 
-0.007595 0.011197 
-0.016150 0.017831 
-0.022756 0.017497 
-0.020253 0.010551 
0.000503 0.000466 
-0.000288 0.000267 
0.000120 0.000356 
0.001869 0.002101 
-0.000325 0.005678 
-0.001391 0.000109 
-0.013716 0.004888 
-0.006286 0.001427 
-0.001069 0.000145 
-0.000693 0.000197 
-0.005231 0.005352 
-0.002510 0.001682 
-0.009798 0.005091 
0.000082 0.033082 
0.003938 0.031576 
0.008433 0.018353 
0.007187 0.025971 
0.000642 0.019082 
0.007672 0.030454 
0.010941 0.029622 
0.000318 0.000121 
0.002210 0.001297 
-0.000184 0.000085 
0.019875 0.010103 
0.009501 0.004605 
0.013333 0.004503 
0.000277 0.004767 
0.005046 0.004712 
0.007519 0.010688 
0.015686 0.028444 
0.015184 0.028415 
0.013483 0.029029 
0.015104 0.028643 
0.030522 0.016735 
0.026348 0.023587 
0.027368 0.016933 
0.015886 0.017741 
0.022366 0.017267 
0.019245 0.024380 
-0.000142 0.000006 
-0.000142 0.000003 
-0.000139 0.000006 
-0.000147 0.000001 
-0.000144 0.000001 
-0.000148 0.000001 
-0.000140 0.000001 
-0.000141 0.000001 
-0.000141 0.000000 
-0.000197 0.000012 
-0.000176 0.000011 
-0.000191 0.000004 
-0.000144 0.000014 
-0.000160 0.000014 
-0.000159 0.000025 
-0.000161 0.000002 
-0.000161 0.000007 
-0.000152 0.000003 
-0.000149 -0.000000 
-0.000135 -0.000004 
-0.000126 -0.000011 
-0.000140 -0.000000 
-0.000138 -0.000001 
-0.000140 0.000000 
-0.000120 0.000018 
-0.000127 0.000003 
-0.000132 0.000010 
-0.000144 0.000003 
-0.000140 0.000005 
-0.000140 0.000001 
-0.008056 0.032296 
-0.011375 0.033395 
-0.000078 0.030504 
-0.004203 0.031333 
-0.008448 0.019546 
-0.007265 0.026432 
-0.000215 0.018792 
0.013632 0.028545 
0.011135 0.028825 
0.022278 0.017206 
0.019301 0.023923 
0.027332 0.016907 
0.007862 0.029248 
0.004037 0.029808 
0.000812 0.000147 
0.005655 0.001409 
0.001070 0.000143 
0.007016 0.011098 
0.009146 0.004992 
0.004575 0.005289 
0.016110 0.004586 
0.013081 0.004759 
0.019675 0.010313 
0.006984 0.024923 
0.015691 0.017621 
0.008019 0.018150 
0.000690 0.000149 
0.001184 0.000165 
0.000978 0.000163 
0.005889 0.001288 
0.016272 0.004430 
0.001244 0.000147 
0.018029 0.004471 
0.007884 0.001289 
0.001322 0.000153 
0.001301 0.000161 
0.026385 0.023461 
0.027063 0.009821 
0.031597 0.016668 
0.030510 0.016727 
0.027007 0.009890 
0.007963 0.001262 
0.018710 0.004409 
0.018109 0.004396 
-0.000142 0.000009 
-0.000145 0.000006 
-0.000154 0.000005 
-0.000149 0.000006 
-0.000149 0.000010 
-0.000149 0.000003 
-0.000154 0.000001 
-0.000182 -0.000006 
-0.000175 -0.000001 
-0.000173 0.000004 
-0.000178 -0.000007 
-0.000176 -0.000005 
-0.000187 -0.000011 
-0.000159 0.000009 
-0.000167 0.000002 
-0.000160 0.000004 
-0.000186 -0.000002 
-0.000204 -0.000005 
-0.000161 -0.000000 
-0.000172 -0.000000 
-0.000193 -0.000011 
-0.000183 -0.000005 
-0.000180 -0.000007 
-0.000161 0.000001 
-0.000169 -0.000003 
-0.000161 -0.000001 
-0.000212 -0.000056 
-0.000213 -0.000050 
-0.000210 -0.000049 
-0.000218 -0.000054 
-0.000215 -0.000051 
-0.000217 -0.000058 
-0.000207 -0.000034 
-0.000212 -0.000043 
-0.000210 -0.000036 
-0.000236 -0.000084 
-0.000230 -0.000072 
-0.000231 -0.000090 
-0.000220 -0.000046 
-0.000226 -0.000057 
-0.000225 -0.000050 
-0.000222 -0.000068 
-0.000225 -0.000064 
-0.000221 -0.000058 
-0.000187 -0.000005 
-0.000196 -0.000016 
-0.000189 -0.000011 
-0.000207 -0.000029 
-0.000202 -0.000023 
-0.000199 -0.000018 
-0.000208 -0.000029 
-0.000205 -0.000026 
-0.000213 -0.000035 
-0.000218 -0.000048 
-0.000216 -0.000042 
-0.000213 -0.000039 
-0.019624 0.028446 
-0.013932 0.034634 
-0.007580 0.012253 
-0.016121 0.020414 
-0.027763 0.022494 
-0.022709 0.021396 
-0.020203 0.013793 
-0.000226 -0.000013 
0.000486 0.000159 
-0.000281 0.000224 
0.000113 0.000184 
-0.000243 -0.000042 
0.001859 0.001655 
-0.000323 0.005654 
-0.001553 0.000621 
-0.001329 0.000478 
-0.000242 -0.000068 
-0.013661 0.007189 
-0.006226 0.002669 
-0.016641 0.007860 
-0.000249 -0.000065 
-0.001028 0.000368 
-0.000670 0.000284 
-0.005213 0.006090 
-0.002490 0.002063 
-0.009763 0.006601 
-0.000192 -0.000014 
-0.000212 -0.000032 
-0.000202 -0.000023 
-0.000195 -0.000017 
-0.000198 -0.000018 
-0.000239 -0.000075 
-0.000237 -0.000053 
-0.000239 -0.000065 
-0.000231 -0.000057 
-0.000222 -0.000043 
-0.000216 -0.000016 
-0.000202 -0.000018 
-0.000208 -0.000018 
-0.000225 -0.000028 
-0.000232 -0.000041 
-0.000217 -0.000034 
-0.000223 -0.000037 
-0.000210 -0.000026 
-0.000178 0.000078 
-0.000180 0.000088 
-0.000175 0.000061 
-0.000176 0.000069 
-0.000163 0.000078 
-0.000169 0.000075 
-0.000161 0.000071 
-0.000172 0.000043 
-0.000172 0.000044 
-0.000157 0.000050 
-0.000163 0.000047 
-0.000155 0.000045 
-0.000173 0.000048 
-0.000174 0.000053 
-0.000143 0.000063 
-0.000146 0.000060 
-0.000142 0.000057 
-0.000155 0.000067 
-0.000150 0.000063 
-0.000152 0.000069 
-0.000147 0.000050 
-0.000149 0.000057 
-0.000152 0.000053 
-0.000166 0.000059 
-0.000158 0.000056 
-0.000160 0.000063 
0.015259 0.035817 
0.026454 0.030639 
0.027104 0.017822 
0.031661 0.024667 
0.030580 0.026147 
0.030572 0.023341 
0.027060 0.015450 
-0.000120 0.000669 
0.000657 0.002528 
0.000301 0.003021 
0.001183 0.001743 
0.000958 0.002105 
-0.000129 0.000381 
0.013294 0.012497 
0.005857 0.006085 
0.016276 0.011330 
0.001273 0.000949 
-0.000173 0.000120 
0.018073 0.008493 
0.007919 0.003556 
-0.000147 0.000215 
0.001346 0.001172 
0.001315 0.001434 
0.018137 0.010276 
0.007981 0.004665 
0.018750 0.009332 
-0.000093 0.000066 
-0.000103 0.000055 
-0.000094 0.000056 
-0.000118 0.000053 
-0.000111 0.000053 
-0.000111 0.000062 
-0.000112 0.000034 
-0.000112 0.000044 
-0.000119 0.000034 
-0.000138 0.000055 
-0.000134 0.000054 
-0.000134 0.000059 
-0.000132 0.000039 
-0.000133 0.000047 
-0.000136 0.000041 
-0.000124 0.000059 
-0.000130 0.000053 
-0.000124 0.000052 
-0.000123 0.000121 
-0.000126 0.000010 
-0.000124 0.000077 
-0.000124 0.000025 
-0.000127 0.000016 
-0.000123 0.000013 
-0.000132 0.000025 
-0.000129 0.000020 
-0.000131 0.000030 
-0.000124 0.000044 
-0.000129 0.000037 
-0.000124 0.000035 
-0.000160 0.000044 
-0.000141 0.000042 
-0.000150 0.000044 
-0.000152 0.000043 
-0.000148 0.000042 
-0.000126 0.000053 
-0.000135 0.000029 
-0.000131 0.000023 
-0.000129 0.000043 
-0.000134 0.000040 
-0.000141 0.000051 
-0.000145 0.000044 
-0.000143 0.000047 
-0.000139 0.000044 
-0.000137 0.000037 
-0.000139 0.000035 
-0.000138 0.000034 
-0.000142 0.000039 
-0.000141 0.037754 
0.015772 0.037343 
0.013576 0.040907 
0.015197 0.039038 
-0.000213 0.041018 
0.026423 0.033718 
0.027403 0.027784 
-0.000282 0.050088 
0.003844 0.047550 
-0.000303 0.049574 
0.008084 0.033643 
0.006903 0.041902 
-0.000151 0.035895 
-0.000274 0.044957 
0.007699 0.045166 
0.011018 0.042950 
0.002120 0.007866 
-0.000086 0.003595 
0.019838 0.020741 
0.009395 0.013781 
-0.000045 0.016709 
0.004845 0.015185 
0.007214 0.024217 
0.019265 0.037474 
0.015758 0.031535 
0.022347 0.029581 
-0.013836 0.071970 
-0.015468 0.069615 
-0.000056 0.071726 
-0.030852 0.053792 
-0.026694 0.063354 
-0.027663 0.056124 
-0.000150 0.066290 
-0.016053 0.066993 
-0.015552 0.064201 
-0.001584 0.010437 
-0.008253 0.019202 
-0.001437 0.011806 
-0.027358 0.037459 
-0.019036 0.028090 
-0.018372 0.025995 
-0.016534 0.032268 
-0.018409 0.030197 
-0.027376 0.042229 
-0.000290 0.054804 
-0.008225 0.055553 
-0.004399 0.052764 
-0.013998 0.061321 
-0.011499 0.058419 
-0.000235 0.060481 
-0.022644 0.043363 
-0.019667 0.052402 
-0.027696 0.046005 
-0.031945 0.051278 
-0.030868 0.048661 
-0.026749 0.058026 
-0.000094 0.000046 
-0.000083 0.000057 
-0.000113 0.000023 
-0.000105 0.000035 
-0.000085 0.000038 
-0.000096 0.000036 
-0.000097 0.000025 
-0.000118 0.001151 
-0.000122 0.000194 
-0.000121 0.000462 
-0.000122 0.000304 