# vtk DataFile Version 2.0
Unstructured Grid Example
ASCII
DATASET UNSTRUCTURED_GRID

POINTS 425 float
-1.002118 0.000970 0.000000 
-0.005677 0.036715 0.000000 
0.997153 -0.000000 0.000000 
-1.001844 1.001554 0.000000 
-0.000394 1.038682 0.000000 
0.998465 0.999735 0.000000 
-1.000879 2.001119 0.000000 
0.000265 2.075262 0.000000 
0.999859 2.000011 0.000000 
-1.000000 3.000000 0.000000 
0.000000 3.000000 0.000000 
1.000000 3.000000 0.000000 
-0.501235 0.002186 0.000000 
-0.502693 0.500988 0.000000 
-1.002568 0.501388 0.000000 
-0.001023 0.533016 0.000000 
-0.501813 1.001659 0.000000 
0.496512 -0.000106 0.000000 
0.498012 0.500957 0.000000 
0.998078 0.499821 0.000000 
0.498277 0.999762 0.000000 
-0.501098 1.501592 0.000000 
-1.001458 1.501223 0.000000 
-0.003157 1.549855 0.000000 
-0.501140 2.005340 0.000000 
0.499538 1.501330 0.000000 
0.999082 1.499711 0.000000 
0.499989 2.006653 0.000000 
-0.499878 2.513012 0.000000 
-0.999957 2.500799 0.000000 
0.000406 2.567694 0.000000 
-0.500000 3.000000 0.000000 
0.499458 2.511276 0.000000 
1.000018 2.500258 0.000000 
0.500000 3.000000 0.000000 
-0.751980 0.001237 0.000000 
-0.752658 0.251222 0.000000 
-1.002539 0.251086 0.000000 
-0.275806 0.263661 0.000000 
-0.502728 0.251481 0.000000 
-0.255575 0.012278 0.000000 
-1.002230 0.751573 0.000000 
-0.752654 0.501303 0.000000 
-0.752248 0.751370 0.000000 
-0.003494 0.281068 0.000000 
-0.275966 0.512607 0.000000 
-0.228667 1.013255 0.000000 
-0.252692 0.761596 0.000000 
0.000392 0.786128 0.000000 
-0.502375 0.751243 0.000000 
-0.751800 1.001394 0.000000 
0.251814 0.013116 0.000000 
0.271784 0.260338 0.000000 
0.747673 0.250169 0.000000 
0.498000 0.250874 0.000000 
0.747021 0.000051 0.000000 
0.271040 0.508952 0.000000 
0.247545 0.761319 0.000000 
0.997638 0.249810 0.000000 
0.748078 0.500203 0.000000 
0.748420 0.999878 0.000000 
0.748261 0.750050 0.000000 
0.998310 0.749811 0.000000 
0.497996 0.750326 0.000000 
0.224857 1.016477 0.000000 
-0.751505 1.251261 0.000000 
-1.001597 1.251398 0.000000 
-0.227674 1.268999 0.000000 
-0.501298 1.251692 0.000000 
-1.001262 1.751133 0.000000 
-0.751368 1.500990 0.000000 
-0.751225 1.750748 0.000000 
-0.002295 1.292274 0.000000 
-0.250489 1.527872 0.000000 
-0.274648 2.045521 0.000000 
-0.274086 1.787485 0.000000 
-0.001932 1.812172 0.000000 
-0.501161 1.752443 0.000000 
-0.750887 2.000680 0.000000 
0.225956 1.272370 0.000000 
0.748714 1.249860 0.000000 
0.498880 1.250003 0.000000 
0.250049 1.527998 0.000000 
0.273293 1.784281 0.000000 
0.998705 1.249675 0.000000 
0.749145 1.500019 0.000000 
0.749901 2.000337 0.000000 
0.749582 1.750229 0.000000 
0.999510 1.749845 0.000000 
0.499941 1.753613 0.000000 
0.272570 2.042162 0.000000 
-0.750349 2.250757 0.000000 
-1.000362 2.251055 0.000000 
-0.251312 2.299416 0.000000 
-0.500696 2.259949 0.000000 
-0.999936 2.750378 0.000000 
-0.749857 2.500923 0.000000 
-0.749753 2.750900 0.000000 
0.001319 2.330592 0.000000 
-0.226936 2.544040 0.000000 
-0.250000 3.000000 0.000000 
-0.225372 2.772975 0.000000 
-0.000937 2.781681 0.000000 
-0.499335 2.758766 0.000000 
-0.750000 3.000000 0.000000 
0.248568 2.298944 0.000000 
0.750083 2.250339 0.000000 
0.499790 2.259923 0.000000 
0.225171 2.546166 0.000000 
0.225890 2.774642 0.000000 
1.000043 2.250160 0.000000 
0.750054 2.500434 0.000000 
0.750000 3.000000 0.000000 
0.749608 2.750460 0.000000 
0.999782 2.750177 0.000000 
0.499164 2.756686 0.000000 
0.250000 3.000000 0.000000 
-0.877100 0.001117 0.000000 
-0.877377 0.126106 0.000000 
-1.002355 0.125987 0.000000 
-0.627405 0.126354 0.000000 
-0.752386 0.126180 0.000000 
-0.626697 0.001474 0.000000 
-1.002615 0.376236 0.000000 
-0.877593 0.251166 0.000000 
-0.877675 0.376254 0.000000 
-0.143036 0.151020 0.000000 
-0.266679 0.138523 0.000000 
-0.133357 0.026944 0.000000 
-0.502747 0.376133 0.000000 
-0.384122 0.254152 0.000000 
-0.385577 0.377990 0.000000 
-0.376586 0.005188 0.000000 
-0.381033 0.130151 0.000000 
-0.502447 0.126895 0.000000 
-1.002026 0.876587 0.000000 
-0.877239 0.751442 0.000000 
-0.877018 0.876454 0.000000 
-0.877615 0.501338 0.000000 
-0.877453 0.626402 0.000000 
-1.002425 0.626506 0.000000 
-0.627503 0.626243 0.000000 
-0.752475 0.626335 0.000000 
-0.627683 0.501224 0.000000 
-0.627742 0.251332 0.000000 
-0.627785 0.376267 0.000000 
-0.752736 0.376270 0.000000 
-0.004376 0.157075 0.000000 
-0.151144 0.276292 0.000000 
-0.149394 0.527570 0.000000 
-0.153705 0.401978 0.000000 
-0.002276 0.406659 0.000000 
-0.279395 0.388276 0.000000 
-0.384941 0.502007 0.000000 
-0.103188 1.029205 0.000000 
-0.112548 0.903400 0.000000 
0.000254 0.912443 0.000000 
-0.373916 0.877063 0.000000 
-0.238958 0.886951 0.000000 
-0.370367 1.003295 0.000000 
-0.000060 0.659616 0.000000 
-0.125705 0.778098 0.000000 
-0.139174 0.652913 0.000000 
-0.752013 0.876396 0.000000 
-0.876822 1.001436 0.000000 
-0.502573 0.626048 0.000000 
-0.627276 0.751314 0.000000 
-0.626785 1.001439 0.000000 
-0.627028 0.876395 0.000000 
-0.502111 0.876477 0.000000 
-0.266222 0.636930 0.000000 
-0.378268 0.751429 0.000000 
-0.382289 0.626433 0.000000 
0.125184 0.027864 0.000000 
0.135751 0.149641 0.000000 
0.377990 0.128326 0.000000 
0.262664 0.137030 0.000000 
0.373615 0.002864 0.000000 
0.145134 0.272993 0.000000 
0.149183 0.397746 0.000000 
0.872337 0.124988 0.000000 
0.747357 0.125090 0.000000 
0.872123 -0.000000 0.000000 
0.498041 0.376041 0.000000 
0.622781 0.250425 0.000000 
0.622965 0.375523 0.000000 
0.621824 0.000089 0.000000 
0.622442 0.125228 0.000000 
0.497731 0.125430 0.000000 
0.124402 0.777990 0.000000 
0.111240 0.905527 0.000000 
0.146333 0.523729 0.000000 
0.137259 0.650606 0.000000 
0.376160 0.625830 0.000000 
0.261003 0.634678 0.000000 
0.379462 0.501306 0.000000 
0.380560 0.252882 0.000000 
0.381077 0.377088 0.000000 
0.274963 0.384204 0.000000 
0.997366 0.124863 0.000000 
0.872633 0.249991 0.000000 
0.873079 0.499992 0.000000 
0.872889 0.374998 0.000000 
0.997886 0.374808 0.000000 
0.747913 0.375214 0.000000 
0.623067 0.500496 0.000000 
0.873448 0.999827 0.000000 
0.873368 0.874872 0.000000 
0.998386 0.874777 0.000000 
0.623248 0.874990 0.000000 
0.748331 0.874953 0.000000 
0.623362 0.999847 0.000000 
0.998215 0.624826 0.000000 
0.873296 0.749923 0.000000 
0.873208 0.624966 0.000000 
0.234301 0.888677 0.000000 
0.101341 1.032988 0.000000 
0.497981 0.625687 0.000000 
0.372076 0.750876 0.000000 
0.365980 1.002835 0.000000 
0.368336 0.876549 0.000000 
0.498089 0.874982 0.000000 
0.748186 0.625142 0.000000 
0.623176 0.750180 0.000000 
0.623126 0.625366 0.000000 
-0.876667 1.126386 0.000000 
-1.001700 1.126487 0.000000 
-0.626576 1.126409 0.000000 
-0.751628 1.126350 0.000000 
-1.001523 1.376305 0.000000 
-0.876558 1.251309 0.000000 
-0.876484 1.376215 0.000000 
-0.100100 1.155907 0.000000 
-0.224548 1.140622 0.000000 
-0.501153 1.376605 0.000000 
-0.368901 1.256959 0.000000 
-0.371316 1.384039 0.000000 
-0.368542 1.129988 0.000000 
-0.501528 1.126731 0.000000 
-1.001096 1.876122 0.000000 
-0.876249 1.750967 0.000000 
-0.876090 1.875927 0.000000 
-0.876425 1.501118 0.000000 
-0.876355 1.626032 0.000000 
-1.001379 1.626165 0.000000 
-0.626226 1.625620 0.000000 
-0.751311 1.625853 0.000000 
-0.626258 1.500854 0.000000 
-0.626417 1.251292 0.000000 
-0.626314 1.376095 0.000000 
-0.751424 1.376135 0.000000 
-0.001340 1.165155 0.000000 
-0.104079 1.283808 0.000000 
-0.127258 1.543479 0.000000 
-0.114030 1.413033 0.000000 
-0.002970 1.420427 0.000000 
-0.237180 1.398181 0.000000 
-0.375111 1.511122 0.000000 
-0.148110 2.068059 0.000000 
-0.152259 1.937836 0.000000 
-0.000819 1.944066 0.000000 
-0.384141 1.892749 0.000000 
-0.277994 1.916832 0.000000 
-0.383524 2.020408 0.000000 
-0.002784 1.680547 0.000000 
-0.149354 1.806490 0.000000 
-0.140195 1.674810 0.000000 
-0.751088 1.875690 0.000000 
-0.875874 2.000907 0.000000 
-0.501114 1.626815 0.000000 
-0.626189 1.750460 0.000000 
-0.625978 2.000672 0.000000 
-0.626116 1.875452 0.000000 
-0.501187 1.878604 0.000000 
-0.264008 1.657742 0.000000 
-0.382556 1.765371 0.000000 
-0.379238 1.638204 0.000000 
0.097400 1.160322 0.000000 
0.365682 1.129614 0.000000 
0.221787 1.144441 0.000000 
0.100511 1.287666 0.000000 
0.109878 1.415298 0.000000 
0.873557 1.124800 0.000000 
0.748546 1.124844 0.000000 
0.499224 1.375534 0.000000 
0.623740 1.249828 0.000000 
0.623984 1.374954 0.000000 
0.623528 1.124789 0.000000 
0.498550 1.124751 0.000000 
0.146567 1.802712 0.000000 
0.150685 1.933422 0.000000 
0.123021 1.543547 0.000000 
0.136444 1.672668 0.000000 
0.379647 1.638422 0.000000 
0.263585 1.655959 0.000000 
0.375581 1.511189 0.000000 
0.367566 1.256708 0.000000 
0.371174 1.383941 0.000000 
0.236287 1.400197 0.000000 
0.998567 1.124697 0.000000 
0.873705 1.249800 0.000000 
0.874104 1.499884 0.000000 
0.873891 1.374830 0.000000 
0.998879 1.374678 0.000000 
0.748919 1.374923 0.000000 
0.624236 1.500139 0.000000 
0.874885 2.000153 0.000000 
0.874731 1.875099 0.000000 
0.999701 1.874928 0.000000 
0.624858 1.875777 0.000000 
0.749759 1.875301 0.000000 
0.624988 2.001038 0.000000 
0.999298 1.624769 0.000000 
0.874542 1.750030 0.000000 
0.874327 1.624955 0.000000 
0.276581 1.913062 0.000000 
0.147695 2.064159 0.000000 
0.499785 1.627365 0.000000 
0.382315 1.765693 0.000000 
0.381244 2.020676 0.000000 
0.382896 1.893097 0.000000 
0.500006 1.880053 0.000000 
0.749373 1.625129 0.000000 
0.624686 1.750559 0.000000 
0.624476 1.625348 0.000000 
-0.875615 2.125895 0.000000 
-1.000626 2.126104 0.000000 
-0.625764 2.126176 0.000000 
-0.750633 2.125707 0.000000 
-1.000125 2.375955 0.000000 
-0.875337 2.250875 0.000000 
-0.875079 2.375827 0.000000 
-0.137990 2.196299 0.000000 
-0.264902 2.173219 0.000000 
-0.500309 2.387015 0.000000 
-0.376697 2.275888 0.000000 
-0.372192 2.402573 0.000000 
-0.380822 2.148251 0.000000 
-0.500980 2.132552 0.000000 
-1.000031 2.875180 0.000000 
-0.874853 2.750414 0.000000 
-0.874964 2.875208 0.000000 
-0.874888 2.500735 0.000000 
-0.874809 2.625594 0.000000 
-0.999892 2.625596 0.000000 
-0.624635 2.629030 0.000000 
[...]
POINT_DATA 425

SCALARS u_h float 2
LOOKUP_TABLE default
-0.002118 0.000970 
-0.005677 0.036715 
-0.002847 -0.000000 
-0.001844 0.001554 
-0.000394 0.038682 
-0.001535 -0.000265 
-0.000879 0.001119 
0.000265 0.075262 
-0.000141 0.000011 
0.000000 0.000000 
0.000000 0.000000 
0.000000 0.000000 
-0.001235 0.002186 
-0.002693 0.000988 
-0.002568 0.001388 
-0.001023 0.033016 
-0.001813 0.001659 
-0.003488 -0.000106 
-0.001988 0.000957 
-0.001922 -0.000179 
-0.001723 -0.000238 
-0.001098 0.001592 
-0.001458 0.001223 
-0.003157 0.049855 
-0.001140 0.005340 
-0.000462 0.001330 
-0.000918 -0.000289 
-0.000011 0.006653 
0.000122 0.013012 
0.000043 0.000799 
0.000406 0.067694 
0.000000 0.000000 
-0.000542 0.011276 
0.000018 0.000258 
0.000000 0.000000 
-0.001980 0.001237 
-0.002658 0.001222 
-0.002539 0.001086 
-0.025806 0.013661 
-0.002728 0.001481 
-0.005575 0.012278 
-0.002230 0.001573 
-0.002654 0.001303 
-0.002248 0.001370 
-0.003494 0.031068 
-0.025966 0.012607 
0.021333 0.013255 
-0.002692 0.011596 
0.000392 0.036128 
-0.002375 0.001243 
-0.001800 0.001394 
0.001814 0.013116 
0.021784 0.010338 
-0.002327 0.000169 
-0.002000 0.000874 
-0.002979 0.000051 
0.021040 0.008952 
-0.002455 0.011319 
-0.002362 -0.000190 
-0.001922 0.000203 
-0.001580 -0.000122 
-0.001739 0.000050 
-0.001690 -0.000189 
-0.002004 0.000326 
-0.025143 0.016477 
-0.001505 0.001261 
-0.001597 0.001398 
0.022326 0.018999 
-0.001298 0.001692 
-0.001262 0.001133 
-0.001368 0.000990 
-0.001225 0.000748 
-0.002295 0.042274 
-0.000489 0.027872 
-0.024648 0.045521 
-0.024086 0.037485 
-0.001932 0.062172 
-0.001161 0.002443 
-0.000887 0.000680 
-0.024044 0.022370 
-0.001286 -0.000140 
-0.001120 0.000003 
0.000049 0.027998 
0.023293 0.034281 
-0.001295 -0.000325 
-0.000855 0.000019 
-0.000099 0.000337 
-0.000418 0.000229 
-0.000490 -0.000155 
-0.000059 0.003613 
0.022570 0.042162 
-0.000349 0.000757 
-0.000362 0.001055 
-0.001312 0.049416 
-0.000696 0.009949 
0.000064 0.000378 
0.000143 0.000923 
0.000247 0.000900 
0.001319 0.080592 
0.023064 0.044040 
0.000000 0.000000 
0.024628 0.022975 
-0.000937 0.031681 
0.000665 0.008766 
0.000000 0.000000 
-0.001432 0.048944 
0.000083 0.000339 
-0.000210 0.009923 
-0.024829 0.046166 
-0.024110 0.024642 
0.000043 0.000160 
0.000054 0.000434 
0.000000 0.000000 
-0.000392 0.000460 
-0.000218 0.000177 
-0.000836 0.006686 
0.000000 0.000000 
-0.002100 0.001117 
-0.002377 0.001106 
-0.002355 0.000987 
-0.002405 0.001354 
-0.002386 0.001180 
-0.001697 0.001474 
-0.002615 0.001236 
-0.002593 0.001166 
-0.002675 0.001254 
-0.018036 0.026020 
-0.016679 0.013523 
-0.008357 0.026944 
-0.002747 0.001133 
-0.009122 0.004152 
-0.010577 0.002990 
-0.001586 0.005188 
-0.006033 0.005151 
-0.002447 0.001895 
-0.002026 0.001587 
-0.002239 0.001442 
-0.002018 0.001454 
-0.002615 0.001338 
-0.002453 0.001402 
-0.002425 0.001506 
-0.002503 0.001243 
-0.002475 0.001335 
-0.002683 0.001224 
-0.002742 0.001332 
-0.002785 0.001267 
-0.002736 0.001270 
-0.004376 0.032075 
-0.026144 0.026292 
-0.024394 0.027570 
-0.028705 0.026978 
-0.002276 0.031659 
-0.029395 0.013276 
-0.009941 0.002007 
0.021812 0.029205 
0.012452 0.028400 
0.000254 0.037443 
0.001084 0.002063 
0.011042 0.011951 
0.004633 0.003295 
-0.000060 0.034616 
-0.000705 0.028098 
-0.014174 0.027913 
-0.002013 0.001396 
-0.001822 0.001436 
-0.002573 0.001048 
-0.002276 0.001314 
-0.001785 0.001439 
-0.002028 0.001395 
-0.002111 0.001477 
-0.016222 0.011930 
-0.003268 0.001429 
-0.007289 0.001433 
0.000184 0.027864 
0.010751 0.024641 
0.002990 0.003326 
0.012664 0.012030 
-0.001385 0.002864 
0.020134 0.022993 
0.024183 0.022746 
-0.002663 -0.000012 
-0.002643 0.000090 
-0.002877 -0.000000 
-0.001959 0.001041 
-0.002219 0.000425 
-0.002035 0.000523 
-0.003176 0.000089 
-0.002558 0.000228 
-0.002269 0.000430 
-0.000598 0.027990 
-0.013760 0.030527 
0.021333 0.023729 
0.012259 0.025606 
0.001160 0.000830 
0.011003 0.009678 
0.004462 0.001306 
0.005560 0.002882 
0.006077 0.002088 
0.024963 0.009204 
-0.002634 -0.000137 
-0.002367 -0.000009 
-0.001921 -0.000008 
-0.002111 -0.000002 
-0.002114 -0.000192 
-0.002087 0.000214 
-0.001933 0.000496 
-0.001552 -0.000173 
-0.001632 -0.000128 
-0.001614 -0.000223 
-0.001752 -0.000010 
-0.001669 -0.000047 
-0.001638 -0.000153 
-0.001785 -0.000174 
-0.001704 -0.000077 
-0.001792 -0.000034 
-0.015699 0.013677 
-0.023659 0.032988 
-0.002019 0.000687 
-0.002924 0.000876 
-0.009020 0.002835 
-0.006664 0.001549 
-0.001911 -0.000018 
-0.001814 0.000142 
-0.001824 0.000180 
-0.001874 0.000366 
-0.001667 0.001386 
-0.001700 0.001487 
-0.001576 0.001409 
-0.001628 0.001350 
-0.001523 0.001305 
-0.001558 0.001309 
-0.001484 0.001215 
0.024900 0.030907 
0.025452 0.015622 
-0.001153 0.001605 
0.006099 0.006959 
0.003684 0.009039 
0.006458 0.004988 
-0.001528 0.001731 
-0.001096 0.001122 
-0.001249 0.000967 
-0.001090 0.000927 
-0.001425 0.001118 
-0.001355 0.001032 
-0.001379 0.001165 
-0.001226 0.000620 
-0.001311 0.000853 
-0.001258 0.000854 
-0.001417 0.001292 
-0.001314 0.001095 
-0.001424 0.001135 
-0.001340 0.040155 
0.020921 0.033808 
-0.002258 0.043479 
0.010970 0.038033 
-0.002970 0.045427 
0.012820 0.023181 
-0.000111 0.011122 
-0.023110 0.068059 
-0.027259 0.062836 
-0.000819 0.069066 
-0.009141 0.017749 
-0.027994 0.041832 
-0.008524 0.020408 
-0.002784 0.055547 
-0.024354 0.056490 
-0.015195 0.049810 
-0.001088 0.000690 
-0.000874 0.000907 
-0.001114 0.001815 
-0.001189 0.000460 
-0.000978 0.000672 
-0.001116 0.000452 
-0.001187 0.003604 
-0.014008 0.032742 
-0.007556 0.015371 
-0.004238 0.013204 
-0.027600 0.035322 
-0.009318 0.004614 
-0.028213 0.019441 
-0.024489 0.037666 
-0.015122 0.040298 
-0.001443 -0.000200 
-0.001454 -0.000156 
-0.000776 0.000534 
-0.001260 -0.000172 
-0.001016 -0.000046 
-0.001472 -0.000211 
-0.001450 -0.000249 
0.021567 0.052712 
0.025685 0.058422 
-0.001979 0.043547 
0.011444 0.047668 
0.004647 0.013422 
0.013585 0.030959 
0.000581 0.011189 
-0.007434 0.006708 
-0.003826 0.008941 
-0.013713 0.025197 
-0.001433 -0.000303 
-0.001295 -0.000200 
-0.000896 -0.000116 
-0.001109 -0.000170 
-0.001121 -0.000322 
-0.001081 -0.000077 
-0.000764 0.000139 
-0.000115 0.000153 
-0.000269 0.000099 
-0.000299 -0.000072 
-0.000142 0.000777 
-0.000241 0.000301 
-0.000012 0.001038 
-0.000702 -0.000231 
-0.000458 0.000030 
-0.000673 -0.000045 
0.026581 0.038062 
0.022695 0.064159 
-0.000215 0.002365 
0.007315 0.015693 
0.006244 0.020676 
0.007896 0.018097 
0.000006 0.005053 
-0.000627 0.000129 
-0.000314 0.000559 
-0.000524 0.000348 
-0.000615 0.000895 
-0.000626 0.001104 
-0.000764 0.001176 
-0.000633 0.000707 
-0.000125 0.000955 
-0.000337 0.000875 
-0.000079 0.000827 
-0.012990 0.071299 
-0.014902 0.048219 
-0.000309 0.012015 
-0.001697 0.025888 
0.002808 0.027573 
-0.005822 0.023251 
-0.000980 0.007552 
-0.000031 0.000180 
0.000147 0.000414 
0.000036 0.000208 
0.000112 0.000735 
0.000191 0.000594 
0.000108 0.000596 
0.000365 0.004030 
0.000262 0.000990 
0.000148 0.003734 
-0.000479 0.001957 
-0.000157 0.002900 
-0.000076 0.000830 
0.001041 0.079554 
0.000432 0.071630 
0.023140 0.059771 
0.013623 0.068084 
0.001062 0.077015 
0.012554 0.048347 
0.006549 0.027237 
0.000000 0.000000 
0.013422 0.009672 
-0.000968 0.010663 
0.005433 0.006629 
0.015001 0.008536 
0.000000 0.000000 
-0.000372 0.052191 
0.023011 0.028281 
0.026545 0.046232 
0.000114 0.000503 
0.000000 0.000000 
0.000493 0.012112 
0.000414 0.003331 
0.000000 0.000000 
0.000253 0.001559 
0.000478 0.003567 
0.027480 0.035600 
0.008238 0.016445 
0.008555 0.023728 
0.013393 0.068892 
0.002799 0.023312 
0.012323 0.046090 
0.000265 0.071256 
-0.013166 0.069694 
-0.000003 0.000191 
0.000009 0.000342 
-0.000365 0.011076 
0.000101 0.001882 
0.000055 0.002455 
0.000072 0.001395 
-0.000088 0.008336 
-0.024020 0.030903 
-0.014153 0.010830 
-0.023273 0.062745 
-0.027287 0.049568 
-0.009077 0.022239 
-0.028178 0.037906 
-0.008379 0.026092 
-0.001533 0.025620 
-0.005617 0.026879 
-0.015029 0.049453 
-0.000026 0.000089 
0.000063 0.000218 
0.000029 0.000237 
0.000077 0.000234 
0.000061 0.000219 
0.000109 0.000364 
-0.000088 0.002933 
0.000000 0.000000 
-0.000361 0.000047 
-0.000271 0.000029 
-0.000771 0.000835 
-0.000552 0.000166 
0.000000 0.000000 
-0.000086 0.000255 
-0.000266 0.000159 
-0.000093 0.000218 
-0.013657 0.009136 
0.000000 0.000000 
-0.000719 0.009925 
-0.007485 0.014914 
0.000000 0.000000 
-0.004027 0.005607 
-0.000761 0.002294 
-0.000120 0.000510 
-0.000651 0.002290 
-0.000340 0.002994 

CELL_DATA 768

SCALARS epsilon float 4
LOOKUP_TABLE default
0.000146 0.000145 0.000000 -0.000356
0.000967 -0.000087 0.000000 -0.000629
-0.000175 0.000790 0.000000 -0.000259
-0.000173 -0.000087 0.000000 -0.000632
0.003737 -0.000910 0.000000 0.000029
-0.000146 0.000340 0.000000 -0.000391
0.002277 -0.000449 0.000000 -0.000674
-0.000127 -0.000949 0.000000 -0.002138
-0.000482 0.001216 0.000000 0.000258
-0.000438 0.001202 0.000000 0.000016
-0.000520 0.000708 0.000000 -0.000103
-0.000481 0.000708 0.000000 -0.000253
-0.000067 -0.000455 0.000000 -0.001332
-0.000517 0.000337 0.000000 -0.000866
-0.000436 0.000479 0.000000 -0.000545
-0.000071 0.000479 0.000000 -0.000572
0.030040 0.001467 0.000000 0.001445
-0.000888 0.013468 0.000000 0.013025
-0.008042 0.027322 0.000000 0.012669
0.000004 0.005534 0.000000 0.011218
-0.064598 -0.001042 0.000000 0.007636
-0.052455 -0.002528 0.000000 0.010603
-0.141066 -0.004391 0.000000 0.030783
-0.064327 -0.009026 0.000000 0.001258
-0.002531 -0.001808 0.000000 0.007172
-0.029672 0.003497 0.000000 0.009969
-0.029037 -0.002900 0.000000 0.011895
-0.027477 0.001016 0.000000 -0.005298
-0.132429 0.011281 0.000000 -0.004949
-0.051555 -0.007203 0.000000 -0.002283
-0.077838 0.018926 0.000000 -0.015623
-0.086592 -0.003485 0.000000 0.019972
0.000064 -0.000257 0.000000 0.000198
-0.000070 0.000116 0.000000 0.000293
-0.000068 0.000102 0.000000 0.000597
0.000064 0.000104 0.000000 0.000354
-0.000375 0.000941 0.000000 0.000370
-0.000313 0.000512 0.000000 0.000510
-0.000220 0.000536 0.000000 0.000364
-0.000221 0.000513 0.000000 0.000232
-0.000074 0.000157 0.000000 -0.000227
-0.000226 0.000281 0.000000 0.000540
-0.000228 0.000259 0.000000 0.000404
-0.000227 0.000154 0.000000 0.000351
-0.000070 0.000324 0.000000 0.000332
-0.000172 0.000259 0.000000 0.000453
-0.000067 0.000280 0.000000 0.000620
-0.000172 0.000323 0.000000 0.000590
-0.000241 -0.002281 0.000000 -0.002679
0.000114 -0.003319 0.000000 -0.000529
-0.000660 -0.000173 0.000000 -0.000905
-0.000315 -0.000154 0.000000 0.000820
-0.000077 -0.001158 0.000000 -0.000729
-0.000229 -0.000343 0.000000 0.000093
0.000303 -0.002786 0.000000 -0.000616
0.000304 -0.000342 0.000000 -0.000130
-0.000376 0.000666 0.000000 0.000036
-0.000492 0.000385 0.000000 -0.000250
-0.000314 0.000265 0.000000 0.000189
-0.000492 0.000666 0.000000 0.000300
0.000110 -0.000517 0.000000 0.000421
-0.000391 0.000265 0.000000 0.000317
-0.000665 0.000386 0.000000 0.000129
-0.000391 -0.000518 0.000000 -0.000184
0.102942 -0.037248 0.000000 0.029597
0.164961 -0.007789 0.000000 0.021796
0.005908 0.013755 0.000000 0.017894
0.107849 0.005942 0.000000 -0.005314
0.169603 0.011095 0.000000 0.025242
0.009010 0.007638 0.000000 0.076596
0.189503 0.004891 0.000000 0.022093
0.189134 0.004139 0.000000 0.032310
-0.059692 -0.007903 0.000000 0.006791
-0.158252 0.004393 0.000000 0.023119
-0.138358 -0.003242 0.000000 0.057405
-0.161987 -0.003622 0.000000 0.043152
0.165960 0.006649 0.000000 0.009877
0.002876 -0.002332 0.000000 0.068746
0.000622 0.004961 0.000000 0.036282
0.007932 0.013543 0.000000 0.044318
-0.192219 0.014498 0.000000 0.032641
-0.002878 0.005042 0.000000 0.100683
-0.102207 0.013697 0.000000 0.034766
-0.104762 0.003643 0.000000 0.076951
0.050252 0.009527 0.000000 0.019963
0.073721 -0.002513 0.000000 0.090144
0.121741 0.007086 0.000000 0.075238
0.074797 0.010381 0.000000 0.052107
0.106263 0.013481 0.000000 0.029662
0.008513 0.013775 0.000000 0.033523
0.007457 -0.003942 0.000000 0.118935
0.106178 -0.002550 0.000000 0.074929
0.003874 0.008194 0.000000 0.105822
0.007414 -0.002865 0.000000 0.119892
0.007516 -0.002249 0.000000 0.084213
0.003000 -0.002682 0.000000 0.117676
0.000179 -0.000146 0.000000 0.000311
0.000043 0.000205 0.000000 0.000704
0.000176 -0.000015 0.000000 0.000683
0.000043 -0.000147 0.000000 0.000550
-0.000552 0.000481 0.000000 -0.000302
-0.000788 0.001563 0.000000 0.000509
-0.000224 0.000563 0.000000 0.000683
-0.000550 0.000566 0.000000 0.000126
-0.000222 0.001447 0.000000 0.002069
0.000119 0.000351 0.000000 0.001147
-0.000663 0.001871 0.000000 0.001389
-0.000664 0.000351 0.000000 0.001300
-0.000224 0.000205 0.000000 0.000713
-0.000787 0.000649 0.000000 0.000713
-0.000114 -0.000015 0.000000 0.000848
-0.000113 0.000647 0.000000 0.000991
0.169373 0.000418 0.000000 0.055644
0.008365 -0.008250 0.000000 0.117336
0.006241 -0.007540 0.000000 0.098659
0.009227 0.000465 0.000000 0.103972
0.025225 0.001450 0.000000 0.003501
-0.007169 0.001870 0.000000 0.001809
0.002387 0.005517 0.000000 0.057790
0.025645 0.004915 0.000000 0.019307
-0.059670 0.000507 0.000000 0.004569
-0.137963 -0.001883 0.000000 0.053816
-0.038444 0.001562 0.000000 0.002358
-0.038263 -0.004665 0.000000 0.012571
0.001712 -0.008153 0.000000 0.094640
-0.006691 -0.000077 0.000000 0.016944
-0.077457 -0.008348 0.000000 0.083885
-0.076295 0.001171 0.000000 0.059044
0.046576 -0.034613 0.000000 -0.031729
0.026596 -0.009066 0.000000 -0.018812
0.114175 -0.006284 0.000000 -0.026479
0.121287 -0.020061 0.000000 0.007544
-0.015503 0.004820 0.000000 0.005963
-0.071665 -0.005168 0.000000 0.004459
-0.014593 0.002169 0.000000 0.003191
-0.077052 0.009129 0.000000 -0.015495
0.190550 0.013076 0.000000 -0.030049
0.172159 0.006705 0.000000 -0.027233
0.016859 0.006242 0.000000 -0.034724
0.192158 0.001664 0.000000 -0.021247
0.027506 0.004874 0.000000 -0.008108
0.023099 -0.001211 0.000000 -0.015291
0.177660 -0.007643 0.000000 -0.000304
0.025482 -0.000746 0.000000 -0.014125
0.000242 -0.000092 0.000000 0.000857
-0.000152 0.000638 0.000000 0.000860
0.000822 0.000309 0.000000 0.001140
-0.000155 -0.000090 0.000000 0.000453
-0.000604 -0.000666 0.000000 -0.002189
-0.001751 0.001348 0.000000 -0.001629
-0.000861 0.000792 0.000000 -0.000284
-0.000596 0.000802 0.000000 -0.001332
0.002525 0.004261 0.000000 0.005643
0.001589 0.001113 0.000000 0.002317
-0.002311 0.003549 0.000000 0.000273
-0.002296 0.001120 0.000000 0.001674
-0.000857 0.000643 0.000000 0.000243
-0.001738 0.001588 0.000000 -0.000434
-0.000675 0.000312 0.000000 0.000791
-0.000675 0.001575 0.000000 0.000803
-0.118595 0.011447 0.000000 -0.029874
-0.008021 0.012502 0.000000 -0.032767
-0.023385 0.015076 0.000000 -0.118739
-0.117797 0.015529 0.000000 -0.085916
0.163710 0.015129 0.000000 -0.032567
-0.008248 0.013331 0.000000 -0.094604
0.093974 0.014356 0.000000 -0.033677
0.091209 0.012316 0.000000 -0.068282
-0.052613 -0.003887 0.000000 -0.015322
-0.083187 0.007765 0.000000 -0.093053
-0.142435 0.002633 0.000000 -0.075921
-0.083426 -0.002867 0.000000 -0.049590
-0.009350 0.014342 0.000000 -0.083771
-0.017113 0.003824 0.000000 -0.103872
-0.023461 0.007739 0.000000 -0.120403
-0.017843 0.013998 0.000000 -0.114437
-0.042664 0.004800 0.000000 -0.006421
-0.062263 0.003726 0.000000 -0.006827
-0.136369 0.000209 0.000000 -0.017466
-0.042220 -0.002770 0.000000 -0.000873
-0.052927 -0.000670 0.000000 -0.001514
-0.141994 -0.004671 0.000000 -0.037495
-0.066342 0.001383 0.000000 -0.003987
-0.066364 -0.006352 0.000000 -0.011097
0.162012 0.008361 0.000000 -0.045696
0.009300 -0.000483 0.000000 -0.042027
-0.005585 0.001349 0.000000 -0.074952
0.004034 0.011122 0.000000 -0.065074
-0.062222 -0.006149 0.000000 -0.005849
-0.163493 -0.001863 0.000000 -0.046077
-0.135880 -0.004971 0.000000 -0.014839
-0.161856 -0.003813 0.000000 -0.025306
0.000236 -0.001094 0.000000 0.000351
0.000046 -0.000419 0.000000 0.000362
-0.000312 0.000028 0.000000 0.000474
0.000238 0.000026 0.000000 0.000682
-0.000004 0.000108 0.000000 0.000086
0.000013 -0.000045 0.000000 -0.000082
-0.000022 -0.000012 0.000000 0.000229
-0.000023 -0.000046 0.000000 -0.000001
0.000442 -0.000209 0.000000 -0.001440
-0.000415 0.000364 0.000000 -0.000279
0.000093 -0.000082 0.000000 -0.000514
-0.000419 -0.000214 0.000000 -0.000834
0.000046 0.000059 0.000000 0.000298
-0.000186 -0.000084 0.000000 -0.000201
-0.000313 0.000360 0.000000 0.000250
-0.000184 0.000060 0.000000 0.000163
0.000132 -0.000337 0.000000 -0.000052
0.000226 -0.000359 0.000000 0.000118
0.000142 -0.000264 0.000000 -0.000077
0.000142 -0.000359 0.000000 -0.000058
0.000683 -0.001142 0.000000 0.000802
0.000665 -0.000771 0.000000 0.000134
0.000465 -0.000602 0.000000 0.000481
0.000666 -0.001141 0.000000 0.000312
0.000054 0.000036 0.000000 -0.000016
0.000111 -0.000119 0.000000 -0.000068
0.000285 -0.000345 0.000000 -0.000157
0.000053 -0.000344 0.000000 -0.000211
0.000298 -0.000602 0.000000 0.000032
0.000285 -0.000771 0.000000 -0.000229
0.000111 -0.000404 0.000000 -0.000163
0.000298 -0.000405 0.000000 -0.000039
-0.202060 0.016660 0.000000 -0.069750
-0.024227 0.013640 0.000000 -0.119900
-0.019017 0.020942 0.000000 -0.102787
-0.023142 0.018017 0.000000 -0.106265
-0.025755 -0.002161 0.000000 -0.000699
0.007328 -0.002887 0.000000 -0.002149
-0.005956 0.001156 0.000000 -0.058151
-0.025231 0.000327 0.000000 -0.017331
0.056712 -0.001458 0.000000 -0.011568
0.119127 0.013021 0.000000 -0.061675
0.037312 -0.002673 0.000000 -0.005918
0.037239 0.010078 0.000000 -0.015276
-0.006968 0.013376 0.000000 -0.094164
0.007634 0.005250 0.000000 -0.017040
0.065410 0.019410 0.000000 -0.082491
0.067387 0.006746 0.000000 -0.062001
-0.000005 -0.000206 0.000000 -0.000167
0.000183 -0.000731 0.000000 -0.000402
0.000011 -0.000485 0.000000 -0.000411
0.000184 -0.000206 0.000000 -0.000185
0.001267 -0.001763 0.000000 0.000782
0.001442 -0.002753 0.000000 -0.000212
0.000678 -0.001517 0.000000 -0.000234
0.001266 -0.001518 0.000000 0.000319
0.000438 -0.002155 0.000000 -0.001972
0.000090 -0.001035 0.000000 -0.000939
0.001157 -0.002893 0.000000 -0.001230
0.001158 -0.001034 0.000000 -0.001050
0.000678 -0.000732 0.000000 -0.000219
0.001442 -0.001492 0.000000 -0.000384
0.000480 -0.000485 0.000000 -0.000468
0.000479 -0.001491 0.000000 -0.000699
0.000178 -0.000542 0.000000 0.000100
0.000175 -0.000400 0.000000 0.000448
0.000264 -0.000710 0.000000 0.000011
0.000265 -0.000399 0.000000 0.000215
-0.000222 -0.000236 0.000000 0.001718
0.000418 -0.000712 0.000000 0.000730
0.000118 -0.000348 0.000000 0.000867
0.000419 -0.000236 0.000000 0.001073
0.000313 -0.000652 0.000000 -0.000100
0.000312 -0.000744 0.000000 -0.000059
0.000429 -0.000751 0.000000 0.000106
0.000313 -0.000751 0.000000 -0.000063
0.000315 -0.000347 0.000000 0.000545
0.000429 -0.000712 0.000000 0.000304
0.000312 -0.000615 0.000000 0.000082
0.000314 -0.000616 0.000000 0.000294
-0.194392 0.015429 0.000000 0.050626
-0.001145 0.036737 0.000000 0.046979
0.000228 0.022488 0.000000 0.079024
-0.007125 0.017911 0.000000 0.072717
0.037921 0.001511 0.000000 0.029910
0.057389 0.000049 0.000000 0.021568
0.123235 0.021620 0.000000 0.038178
0.039199 0.019167 0.000000 0.019908
0.050218 0.000625 0.000000 0.007609
0.123878 0.014849 0.000000 0.045208
0.061809 -0.000055 0.000000 0.013849
0.061593 0.013392 0.000000 0.019667
0.123774 0.032148 0.000000 0.035192
0.057550 0.016529 0.000000 0.019325
0.138654 0.019010 0.000000 0.055345
0.140816 0.018501 0.000000 0.039904
0.000053 -0.000021 0.000000 0.000087
0.000112 -0.000081 0.000000 0.000001
0.000191 -0.000314 0.000000 -0.000241
0.000052 -0.000315 0.000000 -0.000146
0.000269 -0.000469 0.000000 -0.000103
0.000458 -0.000690 0.000000 -0.000229
0.000194 -0.000254 0.000000 -0.000067
0.000193 -0.000689 0.000000 -0.000251
0.001276 -0.001859 0.000000 0.003083
0.000678 -0.000840 0.000000 -0.000591
0.000879 -0.001098 0.000000 -0.000319
0.000677 -0.001873 0.000000 -0.000808
0.000111 -0.000517 0.000000 -0.000240
0.000351 -0.001097 0.000000 -0.000487
0.000190 -0.000840 0.000000 -0.000533
0.000352 -0.000517 0.000000 -0.000290
0.000382 0.000573 0.000000 0.002425
0.000947 -0.000311 0.000000 0.002518