# vtk DataFile Version 2.0
Unstructured Grid Example
ASCII
DATASET UNSTRUCTURED_GRID

POINTS 1617 float
-1.001006 0.000186 0.000000 
-0.001857 0.035570 0.000000 
0.999116 0.000000 0.000000 
-1.000668 1.000355 0.000000 
-0.000308 1.036803 0.000000 
0.999320 0.999803 0.000000 
-1.000314 2.000299 0.000000 
-0.000004 2.074331 0.000000 
0.999820 1.999874 0.000000 
-1.000000 3.000000 0.000000 
0.000000 3.000000 0.000000 
1.000000 3.000000 0.000000 
-0.500565 0.000357 0.000000 
-0.501021 0.500050 0.000000 
-1.000954 0.500300 0.000000 
-0.000514 0.530875 0.000000 
-0.500673 1.000359 0.000000 
0.498796 -0.000008 0.000000 
0.499195 0.500112 0.000000 
0.999241 0.499898 0.000000 
0.499247 0.999799 0.000000 
-0.500428 1.500987 0.000000 
-1.000518 1.500281 0.000000 
-0.001078 1.551513 0.000000 
-0.500414 2.005349 0.000000 
0.499680 1.500876 0.000000 
0.999542 1.499763 0.000000 
0.499883 2.005698 0.000000 
-0.499981 2.512253 0.000000 
-1.000013 2.500218 0.000000 
0.000083 2.566707 0.000000 
-0.500000 3.000000 0.000000 
0.499781 2.511721 0.000000 
0.999923 2.499993 0.000000 
0.500000 3.000000 0.000000 
-0.750967 0.000146 0.000000 
-0.751050 0.250161 0.000000 
-1.001012 0.250213 0.000000 
-0.275161 0.260886 0.000000 
-0.501098 0.250145 0.000000 
-0.252360 0.010712 0.000000 
-1.000811 0.750357 0.000000 
-0.750986 0.500211 0.000000 
-0.750823 0.750253 0.000000 
-0.001276 0.280828 0.000000 
-0.275159 0.510754 0.000000 
-0.226586 1.014061 0.000000 
-0.250979 0.761508 0.000000 
-0.000089 0.783062 0.000000 
-0.500877 0.750171 0.000000 
-0.750661 1.000278 0.000000 
0.250771 0.010879 0.000000 
0.273528 0.259760 0.000000 
0.749168 0.249985 0.000000 
0.499244 0.250115 0.000000 
0.749076 0.000000 0.000000 
0.273260 0.509613 0.000000 
0.249046 0.761413 0.000000 
0.999174 0.249930 0.000000 
0.749227 0.499964 0.000000 
0.749297 0.999836 0.000000 
0.749251 0.749899 0.000000 
0.999278 0.749858 0.000000 
0.499165 0.749927 0.000000 
0.225078 1.015020 0.000000 
-0.750554 1.250256 0.000000 
-1.000575 1.250316 0.000000 
-0.226275 1.269074 0.000000 
-0.500497 1.250540 0.000000 
-1.000444 1.750279 0.000000 
-0.750500 1.500197 0.000000 
-0.750444 1.750150 0.000000 
-0.000850 1.292663 0.000000 
-0.250271 1.526504 0.000000 
-0.274632 2.044692 0.000000 
-0.274493 1.785589 0.000000 
-0.000686 1.813055 0.000000 
-0.500439 1.752370 0.000000 
-0.750327 2.000152 0.000000 
0.225420 1.270072 0.000000 
0.749403 1.249823 0.000000 
0.499447 1.250021 0.000000 
0.249840 1.526523 0.000000 
0.274019 1.784609 0.000000 
0.999406 1.249762 0.000000 
0.749562 1.499870 0.000000 
0.749841 1.999988 0.000000 
0.749723 1.749940 0.000000 
0.999694 1.749808 0.000000 
0.499838 1.752675 0.000000 
0.273848 2.043676 0.000000 
-0.750145 2.250194 0.000000 
-1.000144 2.250293 0.000000 
-0.250440 2.300249 0.000000 
-0.500252 2.259580 0.000000 
-0.999999 2.750096 0.000000 
-0.749983 2.500347 0.000000 
-0.749947 2.750530 0.000000 
0.000336 2.328769 0.000000 
-0.225946 2.545455 0.000000 
-0.250000 3.000000 0.000000 
-0.225455 2.773451 0.000000 
-0.000317 2.781913 0.000000 
-0.499820 2.758139 0.000000 
-0.750000 3.000000 0.000000 
0.249524 2.300118 0.000000 
0.749917 2.250013 0.000000 
0.499849 2.259539 0.000000 
0.225371 2.546121 0.000000 
0.225598 2.773974 0.000000 
0.999898 2.249939 0.000000 
0.749949 2.500175 0.000000 
0.750000 3.000000 0.000000 
0.749869 2.750404 0.000000 
0.999902 2.750009 0.000000 
0.499736 2.757523 0.000000 
0.250000 3.000000 0.000000 
-0.876003 0.000173 0.000000 
-0.876011 0.125174 0.000000 
-1.001007 0.125190 0.000000 
-0.626022 0.125124 0.000000 
-0.751012 0.125137 0.000000 
-0.625851 0.000148 0.000000 
-1.000998 0.375255 0.000000 
-0.876027 0.250193 0.000000 
-0.876016 0.375223 0.000000 
-0.140449 0.150305 0.000000 
-0.265250 0.136017 0.000000 
-0.128350 0.026998 0.000000 
-0.501067 0.375068 0.000000 
-0.383134 0.251775 0.000000 
-0.384331 0.376504 0.000000 
-0.375728 0.002124 0.000000 
-0.380058 0.127066 0.000000 
-0.501052 0.125245 0.000000 
-1.000735 0.875363 0.000000 
-0.875816 0.750296 0.000000 
-0.875735 0.875305 0.000000 
-0.875970 0.500253 0.000000 
-0.875899 0.625278 0.000000 
-1.000888 0.625336 0.000000 
-0.625926 0.625179 0.000000 
-0.750910 0.625232 0.000000 
-0.626003 0.500156 0.000000 
-0.626084 0.250145 0.000000 
-0.626062 0.375149 0.000000 
-0.751038 0.375189 0.000000 
-0.001584 0.157237 0.000000 
-0.149848 0.274593 0.000000 
-0.149277 0.524683 0.000000 
-0.153173 0.399451 0.000000 
-0.000892 0.405495 0.000000 
-0.278865 0.385759 0.000000 
-0.383314 0.501344 0.000000 
-0.101871 1.029192 0.000000 
-0.111772 0.902365 0.000000 
-0.000124 0.909725 0.000000 
-0.371857 0.877203 0.000000 
-0.236937 0.887505 0.000000 
-0.368618 1.003061 0.000000 
-0.000226 0.656769 0.000000 
-0.125402 0.776086 0.000000 
-0.139123 0.650222 0.000000 
-0.750737 0.875270 0.000000 
-0.875664 1.000306 0.000000 
-0.500959 0.625090 0.000000 
-0.625838 0.750214 0.000000 
-0.625660 1.000276 0.000000 
-0.625747 0.875251 0.000000 
-0.500778 0.875267 0.000000 
-0.264963 0.635966 0.000000 
-0.376137 0.751644 0.000000 
-0.380323 0.626371 0.000000 
0.125381 0.027288 0.000000 
0.137827 0.149778 0.000000 
0.378727 0.126568 0.000000 
0.263646 0.135399 0.000000 
0.374381 0.001290 0.000000 
0.147623 0.273465 0.000000 
0.151400 0.398077 0.000000 
0.874123 0.124976 0.000000 
0.749116 0.124985 0.000000 
0.874101 0.000000 0.000000 
0.499227 0.375147 0.000000 
0.624189 0.250028 0.000000 
0.624212 0.375039 0.000000 
0.624016 -0.000000 0.000000 
0.624123 0.124996 0.000000 
0.499187 0.125015 0.000000 
0.124605 0.776038 0.000000 
0.110986 0.903002 0.000000 
0.147944 0.523465 0.000000 
0.138137 0.649493 0.000000 
0.378090 0.626226 0.000000 
0.262993 0.635267 0.000000 
0.381249 0.501194 0.000000 
0.381617 0.251481 0.000000 
0.382537 0.376313 0.000000 
0.277101 0.384456 0.000000 
0.999136 0.124958 0.000000 
0.874166 0.249959 0.000000 
0.874234 0.499926 0.000000 
0.874206 0.374944 0.000000 
0.999212 0.374913 0.000000 
0.749205 0.374981 0.000000 
0.624217 0.500019 0.000000 
0.874309 0.999828 0.000000 
0.874284 0.874852 0.000000 
0.999295 0.874831 0.000000 
0.624239 0.874857 0.000000 
0.749268 0.874864 0.000000 
0.624276 0.999814 0.000000 
0.999262 0.624881 0.000000 
0.874267 0.749878 0.000000 
0.874252 0.624904 0.000000 
0.235164 0.888015 0.000000 
0.100942 1.030334 0.000000 
0.499170 0.625030 0.000000 
0.373905 0.751486 0.000000 
0.366948 1.002884 0.000000 
0.369822 0.877030 0.000000 
0.499189 0.874837 0.000000 
0.749240 0.624935 0.000000 
0.624222 0.749915 0.000000 
0.624217 0.624974 0.000000 
-0.875608 1.125297 0.000000 
-1.000615 1.125338 0.000000 
-0.625586 1.125278 0.000000 
-0.750599 1.125273 0.000000 
-1.000545 1.375296 0.000000 
-0.875566 1.250282 0.000000 
-0.875537 1.375262 0.000000 
-0.098341 1.156705 0.000000 
-0.222688 1.141245 0.000000 
-0.500448 1.375696 0.000000 
-0.368173 1.255647 0.000000 
-0.371062 1.382359 0.000000 
-0.367274 1.129213 0.000000 
-0.500574 1.125444 0.000000 
-1.000387 1.875289 0.000000 
-0.875445 1.750222 0.000000 
-0.875390 1.875222 0.000000 
-0.875512 1.500244 0.000000 
-0.875484 1.625230 0.000000 
-1.000487 1.625276 0.000000 
-0.625459 1.625095 0.000000 
-0.750477 1.625169 0.000000 
-0.625473 1.500150 0.000000 
-0.625531 1.250254 0.000000 
-0.625495 1.375208 0.000000 
-0.750523 1.375229 0.000000 
-0.000579 1.164406 0.000000 
-0.102115 1.285011 0.000000 
-0.125802 1.544078 0.000000 
-0.112170 1.414153 0.000000 
-0.001037 1.421686 0.000000 
-0.236376 1.397519 0.000000 
-0.375155 1.509366 0.000000 
-0.148771 2.066239 0.000000 
-0.152619 1.936225 0.000000 
-0.000341 1.944047 0.000000 
-0.383743 1.892470 0.000000 
-0.278307 1.915296 0.000000 
-0.382747 2.020795 0.000000 
-0.000953 1.682055 0.000000 
-0.149166 1.805482 0.000000 
-0.139347 1.674619 0.000000 
-0.750395 1.875144 0.000000 
-0.875317 2.000226 0.000000 
-0.500430 1.626512 0.000000 
-0.625442 1.750072 0.000000 
-0.625359 2.000351 0.000000 
-0.625411 1.875134 0.000000 
-0.500439 1.878642 0.000000 
-0.264227 1.655914 0.000000 
-0.382492 1.764405 0.000000 
-0.379343 1.636703 0.000000 
0.097177 1.158039 0.000000 
0.366065 1.129049 0.000000 
0.221506 1.142380 0.000000 
0.100716 1.286175 0.000000 
0.110623 1.414832 0.000000 
0.874348 1.124812 0.000000 
0.749342 1.124821 0.000000 
0.499567 1.375351 0.000000 
0.624410 1.249810 0.000000 
0.624498 1.374849 0.000000 
0.624334 1.124797 0.000000 
0.499336 1.124848 0.000000 
0.148110 1.804330 0.000000 
0.151954 1.934882 0.000000 
0.124257 1.544090 0.000000 
0.137974 1.673962 0.000000 
0.379180 1.636755 0.000000 
0.263830 1.655359 0.000000 
0.374981 1.509356 0.000000 
0.367428 1.255518 0.000000 
0.370685 1.382285 0.000000 
0.235785 1.398107 0.000000 
0.999356 1.124778 0.000000 
0.874403 1.249805 0.000000 
0.874549 1.499825 0.000000 
0.874471 1.374810 0.000000 
0.999469 1.374756 0.000000 
0.749479 1.374841 0.000000 
0.624590 1.499906 0.000000 
0.874832 1.999927 0.000000 
0.874775 1.874902 0.000000 
0.999762 1.874840 0.000000 
0.624821 1.875178 0.000000 
0.749789 1.874969 0.000000 
0.624873 2.000406 0.000000 
0.999619 1.624781 0.000000 
0.874707 1.749875 0.000000 
0.874629 1.624848 0.000000 
0.277684 1.914150 0.000000 
0.148481 2.065057 0.000000 
0.499773 1.626636 0.000000 
0.382170 1.764503 0.000000 
0.381900 2.020883 0.000000 
0.383163 1.892583 0.000000 
0.499874 1.879029 0.000000 
0.749645 1.624906 0.000000 
0.624756 1.750052 0.000000 
0.624678 1.624972 0.000000 
-0.875230 2.125231 0.000000 
-1.000230 2.125303 0.000000 
-0.625282 2.125788 0.000000 
-0.750240 2.125170 0.000000 
-1.000067 2.375265 0.000000 
-0.875138 2.250231 0.000000 
-0.875054 2.375220 0.000000 
-0.138641 2.194728 0.000000 
-0.264439 2.173258 0.000000 
-0.500121 2.386414 0.000000 
-0.375542 2.276906 0.000000 
-0.371221 2.403402 0.000000 
-0.379753 2.149110 0.000000 
-0.500352 2.132409 0.000000 
-1.000018 2.875046 0.000000 
-0.874975 2.750108 0.000000 
-0.874999 2.875059 0.000000 
-0.874993 2.500195 0.000000 
-0.874966 2.625155 0.000000 
-0.999991 2.625158 0.000000 
-0.624911 2.628423 0.000000 
[...]
POINT_DATA 1617

SCALARS u_h float 2
LOOKUP_TABLE default
-0.001006 0.000186 
-0.001857 0.035570 
-0.000884 0.000000 
-0.000668 0.000355 
-0.000308 0.036803 
-0.000680 -0.000197 
-0.000314 0.000299 
-0.000004 0.074331 
-0.000180 -0.000126 
0.000000 0.000000 
0.000000 0.000000 
0.000000 0.000000 
-0.000565 0.000357 
-0.001021 0.000050 
-0.000954 0.000300 
-0.000514 0.030875 
-0.000673 0.000359 
-0.001204 -0.000008 
-0.000805 0.000112 
-0.000759 -0.000102 
-0.000753 -0.000201 
-0.000428 0.000987 
-0.000518 0.000281 
-0.001078 0.051513 
-0.000414 0.005349 
-0.000320 0.000876 
-0.000458 -0.000237 
-0.000117 0.005698 
0.000019 0.012253 
-0.000013 0.000218 
0.000083 0.066707 
0.000000 0.000000 
-0.000219 0.011721 
-0.000077 -0.000007 
0.000000 0.000000 
-0.000967 0.000146 
-0.001050 0.000161 
-0.001012 0.000213 
-0.025161 0.010886 
-0.001098 0.000145 
-0.002360 0.010712 
-0.000811 0.000357 
-0.000986 0.000211 
-0.000823 0.000253 
-0.001276 0.030828 
-0.025159 0.010754 
0.023414 0.014061 
-0.000979 0.011508 
-0.000089 0.033062 
-0.000877 0.000171 
-0.000661 0.000278 
0.000771 0.010879 
0.023528 0.009760 
-0.000832 -0.000015 
-0.000756 0.000115 
-0.000924 0.000000 
0.023260 0.009613 
-0.000954 0.011413 
-0.000826 -0.000070 
-0.000773 -0.000036 
-0.000703 -0.000164 
-0.000749 -0.000101 
-0.000722 -0.000142 
-0.000835 -0.000073 
-0.024922 0.015020 
-0.000554 0.000256 
-0.000575 0.000316 
0.023725 0.019074 
-0.000497 0.000540 
-0.000444 0.000279 
-0.000500 0.000197 
-0.000444 0.000150 
-0.000850 0.042663 
-0.000271 0.026504 
-0.024632 0.044692 
-0.024493 0.035589 
-0.000686 0.063055 
-0.000439 0.002370 
-0.000327 0.000152 
-0.024580 0.020072 
-0.000597 -0.000177 
-0.000553 0.000021 
-0.000160 0.026523 
0.024019 0.034609 
-0.000594 -0.000238 
-0.000438 -0.000130 
-0.000159 -0.000012 
-0.000277 -0.000060 
-0.000306 -0.000192 
-0.000162 0.002675 
0.023848 0.043676 
-0.000145 0.000194 
-0.000144 0.000293 
-0.000440 0.050249 
-0.000252 0.009580 
0.000001 0.000096 
0.000017 0.000347 
0.000053 0.000530 
0.000336 0.078769 
0.024054 0.045455 
0.000000 0.000000 
0.024545 0.023451 
-0.000317 0.031913 
0.000180 0.008139 
0.000000 0.000000 
-0.000476 0.050118 
-0.000083 0.000013 
-0.000151 0.009539 
-0.024629 0.046121 
-0.024402 0.023974 
-0.000102 -0.000061 
-0.000051 0.000175 
0.000000 0.000000 
-0.000131 0.000404 
-0.000098 0.000009 
-0.000264 0.007523 
0.000000 0.000000 
-0.001003 0.000173 
-0.001011 0.000174 
-0.001007 0.000190 
-0.001022 0.000124 
-0.001012 0.000137 
-0.000851 0.000148 
-0.000998 0.000255 
-0.001027 0.000193 
-0.001016 0.000223 
-0.015449 0.025305 
-0.015250 0.011017 
-0.003350 0.026998 
-0.001067 0.000068 
-0.008134 0.001775 
-0.009331 0.001504 
-0.000728 0.002124 
-0.005058 0.002066 
-0.001052 0.000245 
-0.000735 0.000363 
-0.000816 0.000296 
-0.000735 0.000305 
-0.000970 0.000253 
-0.000899 0.000278 
-0.000888 0.000336 
-0.000926 0.000179 
-0.000910 0.000232 
-0.001003 0.000156 
-0.001084 0.000145 
-0.001062 0.000149 
-0.001038 0.000189 
-0.001584 0.032237 
-0.024848 0.024593 
-0.024277 0.024683 
-0.028173 0.024451 
-0.000892 0.030495 
-0.028865 0.010759 
-0.008314 0.001344 
0.023129 0.029192 
0.013228 0.027365 
-0.000124 0.034725 
0.003143 0.002203 
0.013063 0.012505 
0.006382 0.003061 
-0.000226 0.031769 
-0.000402 0.026086 
-0.014123 0.025222 
-0.000737 0.000270 
-0.000664 0.000306 
-0.000959 0.000090 
-0.000838 0.000214 
-0.000660 0.000276 
-0.000747 0.000251 
-0.000778 0.000267 
-0.014963 0.010966 
-0.001137 0.001644 
-0.005323 0.001371 
0.000381 0.027288 
0.012827 0.024778 
0.003727 0.001568 
0.013646 0.010399 
-0.000619 0.001290 
0.022623 0.023465 
0.026400 0.023077 
-0.000877 -0.000024 
-0.000884 -0.000015 
-0.000899 0.000000 
-0.000773 0.000147 
-0.000811 0.000028 
-0.000788 0.000039 
-0.000984 -0.000000 
-0.000877 -0.000004 
-0.000813 0.000015 
-0.000395 0.026038 
-0.014014 0.028002 
0.022944 0.023465 
0.013137 0.024493 
0.003090 0.001226 
0.012993 0.010267 
0.006249 0.001194 
0.006617 0.001481 
0.007537 0.001313 
0.027101 0.009456 
-0.000864 -0.000042 
-0.000834 -0.000041 
-0.000766 -0.000074 
-0.000794 -0.000056 
-0.000788 -0.000087 
-0.000795 -0.000019 
-0.000783 0.000019 
-0.000691 -0.000172 
-0.000716 -0.000148 
-0.000705 -0.000169 
-0.000761 -0.000143 
-0.000732 -0.000136 
-0.000724 -0.000186 
-0.000738 -0.000119 
-0.000733 -0.000122 
-0.000748 -0.000096 
-0.014836 0.013015 
-0.024058 0.030334 
-0.000830 0.000030 
-0.001095 0.001486 
-0.008052 0.002884 
-0.005178 0.002030 
-0.000811 -0.000163 
-0.000760 -0.000065 
-0.000778 -0.000085 
-0.000783 -0.000026 
-0.000608 0.000297 
-0.000615 0.000338 
-0.000586 0.000278 
-0.000599 0.000273 
-0.000545 0.000296 
-0.000566 0.000282 
-0.000537 0.000262 
0.026659 0.031705 
0.027312 0.016245 
-0.000448 0.000696 
0.006827 0.005647 
0.003938 0.007359 
0.007726 0.004213 
-0.000574 0.000444 
-0.000387 0.000289 
-0.000445 0.000222 
-0.000390 0.000222 
-0.000512 0.000244 
-0.000484 0.000230 
-0.000487 0.000276 
-0.000459 0.000095 
-0.000477 0.000169 
-0.000473 0.000150 
-0.000531 0.000254 
-0.000495 0.000208 
-0.000523 0.000229 
-0.000579 0.039406 
0.022885 0.035011 
-0.000802 0.044078 
0.012830 0.039153 
-0.001037 0.046686 
0.013624 0.022519 
-0.000155 0.009366 
-0.023771 0.066239 
-0.027619 0.061225 
-0.000341 0.069047 
-0.008743 0.017470 
-0.028307 0.040296 
-0.007747 0.020795 
-0.000953 0.057055 
-0.024166 0.055482 
-0.014347 0.049619 
-0.000395 0.000144 
-0.000317 0.000226 
-0.000430 0.001512 
-0.000442 0.000072 
-0.000359 0.000351 
-0.000411 0.000134 
-0.000439 0.003642 
-0.014227 0.030914 
-0.007492 0.014405 
-0.004343 0.011703 
-0.027823 0.033039 
-0.008935 0.004049 
-0.028494 0.017380 
-0.024284 0.036175 
-0.014377 0.039832 
-0.000652 -0.000188 
-0.000658 -0.000179 
-0.000433 0.000351 
-0.000590 -0.000190 
-0.000502 -0.000151 
-0.000666 -0.000203 
-0.000664 -0.000152 
0.023110 0.054330 
0.026954 0.059882 
-0.000743 0.044090 
0.012974 0.048962 
0.004180 0.011755 
0.013830 0.030359 
-0.000019 0.009356 
-0.007572 0.005518 
-0.004315 0.007285 
-0.014215 0.023107 
-0.000644 -0.000222 
-0.000597 -0.000195 
-0.000451 -0.000175 
-0.000529 -0.000190 
-0.000531 -0.000244 
-0.000521 -0.000159 
-0.000410 -0.000094 
-0.000168 -0.000073 
-0.000225 -0.000098 
-0.000238 -0.000160 
-0.000179 0.000178 
-0.000211 -0.000031 
-0.000127 0.000406 
-0.000381 -0.000219 
-0.000293 -0.000125 
-0.000371 -0.000152 
0.027684 0.039150 
0.023481 0.065057 
-0.000227 0.001636 
0.007170 0.014503 
0.006900 0.020883 
0.008163 0.017583 
-0.000126 0.004029 
-0.000355 -0.000094 
-0.000244 0.000052 
-0.000322 -0.000028 
-0.000230 0.000231 
-0.000230 0.000303 
-0.000282 0.000788 
-0.000240 0.000170 
-0.000067 0.000265 
-0.000138 0.000231 
-0.000054 0.000220 
-0.013641 0.069728 
-0.014439 0.048258 
-0.000121 0.011414 
-0.000542 0.026906 
0.003779 0.028402 
-0.004753 0.024110 
-0.000352 0.007409 
-0.000018 0.000046 
0.000025 0.000108 
0.000001 0.000059 
0.000007 0.000195 
0.000034 0.000155 
0.000009 0.000158 
0.000089 0.003423 
0.000056 0.000485 
0.000022 0.003091 
-0.000184 0.001465 
-0.000076 0.002308 
-0.000055 0.000242 
0.000240 0.077962 
0.000071 0.070691 
0.023656 0.060410 
0.013712 0.067970 
0.000271 0.075432 
0.013639 0.049685 
0.007073 0.027601 
0.000000 0.000000 
0.013710 0.010192 
-0.000327 0.010976 
0.004563 0.006052 
0.014430 0.008507 
0.000000 0.000000 
-0.000146 0.051911 
0.023637 0.029301 
0.027276 0.047302 
0.000021 0.000315 
0.000000 0.000000 
0.000135 0.011335 
0.000101 0.002859 
0.000000 0.000000 
0.000055 0.001305 
0.000112 0.003234 
0.028042 0.036669 
0.007582 0.015837 
0.008471 0.023528 
0.013624 0.069006 
0.003724 0.024129 
0.013541 0.047619 
0.000028 0.070595 
-0.013660 0.068483 
-0.000124 -0.000051 
-0.000117 -0.000001 
-0.000183 0.011110 
-0.000069 0.001399 
-0.000065 0.002144 
-0.000091 0.000802 
-0.000128 0.007604 
-0.023989 0.030116 
-0.013971 0.010542 
-0.023762 0.061344 
-0.027553 0.048345 
-0.008656 0.023052 
-0.028280 0.037391 
-0.007665 0.027226 
-0.000515 0.026814 
-0.004683 0.028170 
-0.014448 0.050038 
-0.000135 -0.000092 
-0.000092 -0.000032 
-0.000068 0.000001 
-0.000073 -0.000016 
-0.000083 -0.000032 
-0.000058 0.000060 
-0.000087 0.002835 
0.000000 0.000000 
-0.000104 0.000014 
-0.000085 -0.000010 
-0.000233 0.001097 
-0.000165 0.000222 
0.000000 0.000000 
-0.000085 0.000010 
-0.000101 0.000023 
-0.000079 0.000014 
-0.014018 0.008692 
0.000000 0.000000 
-0.000252 0.010677 
-0.007370 0.015361 
0.000000 0.000000 
-0.004139 0.005749 
-0.000220 0.002865 
-0.000076 0.000333 
-0.000207 0.002555 
-0.000138 0.003111 
-0.001006 0.000182 
-0.001005 0.000182 
-0.001005 0.000186 
-0.000996 0.000154 
-0.001002 0.000171 
-0.000991 0.000160 
-0.001011 0.000198 
-0.001009 0.000186 
-0.001016 0.000194 
-0.000921 0.000158 
-0.000944 0.000120 
-0.000736 0.000201 
-0.001036 0.000147 
-0.001014 0.000123 
-0.001049 0.000135 
-0.000924 0.000138 
-0.000966 0.000120 
-0.000984 0.000135 
-0.000980 0.000278 
-0.001007 0.000240 
-0.000989 0.000258 
-0.001020 0.000207 
-0.001017 0.000222 
-0.001009 0.000233 
-0.001037 0.000192 
-0.001026 0.000208 
-0.001037 0.000177 
-0.001011 0.000156 
-0.001027 0.000164 
-0.001021 0.000181 
-0.006296 0.031539 
-0.009434 0.025990 
-0.002885 0.033190 
-0.020823 0.010964 
-0.017363 0.018213 
-0.023571 0.018009 
-0.003133 0.018792 
-0.010318 0.018480 
-0.008909 0.010980 
-0.001045 0.000051 
-0.002540 0.000187 
-0.002501 0.000121 
-0.002318 0.000389 
-0.002477 0.000277 
-0.001085 0.000100 
-0.019015 0.005115 
-0.009001 0.001631 
-0.017122 0.005231 
-0.000409 0.000858 
-0.001230 0.000777 
-0.000906 0.000285 
-0.006003 0.005378 
-0.003026 0.002165 
-0.001493 0.005164 
-0.001096 0.000196 
-0.001720 0.000650 
-0.002067 0.000516 
-0.014164 0.005339 
-0.006792 0.001926 
-0.010362 0.005408 
-0.000700 0.000360 
-0.000735 0.000331 
-0.000699 0.000330 
-0.000814 0.000323 
-0.000773 0.000328 
-0.000772 0.000362 
-0.000777 0.000280 
-0.000775 0.000302 
-0.000819 0.000273 
-0.000962 0.000275 
-0.000930 0.000291 
-0.000923 0.000320 
-0.000943 0.000244 
-0.000936 0.000266 
-0.000977 0.000232 
-0.000850 0.000348 
-0.000893 0.000304 
-0.000854 0.000315 
-0.000978 0.000123 
-0.000967 0.000165 
-0.001012 0.000113 
-0.000867 0.000243 
-0.000917 0.000208 
-0.000874 0.000221 
-0.000994 0.000187 
-0.000958 0.000196 
-0.000950 0.000221 
-0.000858 0.000288 
-0.000904 0.000255 
-0.000862 0.000264 
-0.001037 0.000159 
-0.001099 0.000146 
-0.001088 0.000157 
-0.001068 0.000136 
-0.001066 0.000150 
-0.001042 0.000111 
-0.001026 0.000178 
-0.001035 0.000151 
-0.001068 0.000118 
-0.001089 0.000131 
-0.000997 0.000239 
-0.001050 0.000176 
-0.001026 0.000206 
-0.001006 0.000220 
-0.001016 0.000200 
-0.001080 0.000148 
-0.001051 0.000170 
-0.001065 0.000161 
-0.001707 0.033569 
-0.009701 0.030449 
-0.014968 0.029332 
-0.012689 0.029750 
-0.001442 0.031364 
-0.020750 0.024859 
-0.028393 0.017872 
-0.014218 0.029414 
-0.015961 0.029196 
-0.000697 0.030611 
-0.031294 0.017810 
-0.027114 0.024527 
-0.028104 0.017898 
-0.001089 0.030555 
-0.016681 0.029094 
-0.016338 0.029128 
-0.009098 0.001405 
-0.002360 0.000085 
-0.027915 0.010813 
-0.019699 0.005012 
-0.017299 0.004896 
-0.019116 0.004934 
-0.027928 0.010736 
-0.027393 0.024466 
-0.032423 0.017777 
-0.031426 0.017797 
0.013305 0.034599 
0.010889 0.033563 
-0.000201 0.035706 
0.021628 0.020870 
0.018843 0.028201 
0.026647 0.021811 
-0.000086 0.033846 
0.007687 0.032663 
0.003914 0.031883 
0.000236 0.000730 
0.004955 0.002595 
0.000551 0.000942 
0.006281 0.011943 
0.008333 0.006206 
0.003750 0.005746 
0.015379 0.007478 
0.012299 0.006782 
0.018907 0.013208 
-0.000354 0.031267 
-0.008186 0.030136 
-0.011568 0.029730 
-0.000174 0.031209 
-0.004301 0.030629 
-0.000136 0.032369 
-0.008880 0.018559 
-0.007492 0.025609 
-0.000702 0.018951 
0.015088 0.020090 
0.007472 0.019456 
0.006665 0.026666 
-0.000698 0.000307 
-0.000666 0.000328 
-0.000780 0.000262 
-0.000736 0.000285 
-0.000662 0.000289 
-0.000698 0.000289 
-0.000698 0.000275 
-0.000992 0.000064 
-0.000939 0.000141 
-0.000853 0.000192 
-0.000898 0.000164 
-0.000921 0.000127 
-0.000883 0.000195 
-0.000829 0.000234 
-0.000662 0.000288 
-0.000709 0.000271 
-0.000726 0.000314 
-0.000699 0.000268 
-0.000702 0.000266 
-0.000660 0.000273 
-0.000830 0.000218 
-0.000758 0.000248 
-0.000806 0.000221 
-0.000784 0.000247 
-0.000792 0.000233 
-0.000741 0.000259 
-0.019847 0.024915 
-0.008224 0.011188 
-0.016505 0.018262 
-0.023061 0.018046 
-0.020738 0.010826 
-0.000144 0.000545 
-0.001001 0.000262 
-0.000565 0.000388 
0.001065 0.001886 
-0.001140 0.005396 
-0.002124 0.000079 
-0.014367 0.004910 
-0.007027 0.001330 
-0.001805 0.000107 
-0.001423 0.000168 
-0.006005 0.005147 
-0.003315 0.001474 
-0.010516 0.004989 
-0.000625 0.033387 
0.003050 0.031477 
0.008125 0.018267 
0.006640 0.025852 
0.000869 0.019051 
0.006681 0.030156 
0.009926 0.029254 
-0.000378 0.000164 
0.001717 0.001511 
-0.001155 0.000024 
0.019224 0.010052 
0.009064 0.004845 
0.012796 0.004676 
0.000154 0.004855 
0.004725 0.004952 
0.007270 0.010727 
0.014900 0.028290 
0.014526 0.028409 
0.012505 0.028678 
0.014208 0.028370 
0.029588 0.016319 
0.025391 0.023165 
0.026478 0.016579 
0.015266 0.017574 
0.021571 0.017002 
0.018316 0.023995 
-0.000886 -0.000016 
-0.000893 -0.000013 
-0.000891 0.000000 
-0.000856 -0.000016 
-0.000881 -0.000020 
-0.000858 -0.000025 
-0.000909 -0.000000 
-0.000901 -0.000012 
-0.000910 -0.000011 
-0.000789 0.000137 
-0.000781 0.000085 
-0.000785 0.000077 
-0.000789 0.000064 
-0.000781 0.000080 
-0.000761 0.000140 
-0.000806 0.000007 
-0.000796 0.000037 
-0.000825 0.000003 
-0.001056 0.000000 
-0.000939 -0.000017 
-0.000928 -0.000036 
-0.000921 -0.000011 
-0.000932 -0.000012 
-0.000946 -0.000000 
-0.000768 0.000072 
-0.000857 0.000005 
-0.000811 0.000037 
-0.000850 -0.000004 
-0.000837 0.000013 
-0.000884 -0.000010 
-0.008081 0.033043 
-0.011410 0.034111 
-0.000172 0.031185 
-0.004247 0.032068 
-0.008815 0.019776 
-0.007434 0.026972 
-0.000687 0.018880 
0.013108 0.028699 
0.010742 0.029139 
0.021500 0.016912 
0.018704 0.023907 
0.026477 0.016529 
0.007589 0.029710 
0.003866 0.030396 
0.000143 0.000142 
0.004861 0.001186 
0.000420 0.000197 
0.006258 0.010780 
0.008273 0.004563 
0.003736 0.004868 
0.015238 0.004241 
0.012197 0.004356 
0.018792 0.009877 
0.006622 0.025208 
0.015006 0.017438 
0.007438 0.018098 
0.000093 0.000273 
0.000619 0.000353 
0.000411 0.000334 
0.005384 0.001546 
0.015642 0.004501 
0.000617 0.000253 
0.017191 0.004209 
0.007162 0.001241 
0.000720 0.000303 
0.000721 0.000339 
0.025568 0.023182 
0.026223 0.009555 
0.030658 0.016226 
0.029600 0.016298 
0.026093 0.009473 
0.007350 0.001398 
0.017926 0.004250 
0.017395 0.004353 
-0.000877 -0.000022 
-0.000871 -0.000031 
-0.000831 -0.000054 
-0.000852 -0.000044 
-0.000846 -0.000058 
-0.000856 -0.000034 
-0.000834 -0.000029 
-0.000763 -0.000089 
-0.000776 -0.000080 
-0.000773 -0.000094 
-0.000781 -0.000047 
-0.000779 -0.000064 
-0.000770 -0.000056 
-0.000806 -0.000080 
-0.000792 -0.000072 
-0.000810 -0.000063 
-0.000784 0.000033 
-0.000791 0.000059 
-0.000811 -0.000016 
-0.000792 0.000006 
-0.000777 -0.000012 
-0.000783 -0.000000 
-0.000783 -0.000026 
-0.000813 -0.000049 
-0.000796 -0.000039 
-0.000813 -0.000034 
-0.000686 -0.000183 
-0.000699 -0.000171 
-0.000694 -0.000183 
-0.000711 -0.000154 
-0.000705 -0.000161 
-0.000696 -0.000165 
-0.000714 -0.000155 
-0.000711 -0.000158 
-0.000720 -0.000145 
-0.000765 -0.000190 
-0.000745 -0.000167 
-0.000739 -0.000214 
-0.000742 -0.000119 
-0.000744 -0.000136 
-0.000754 -0.000115 
-0.000712 -0.000170 
-0.000730 -0.000155 
-0.000720 -0.000151 
-0.000748 -0.000110 
-0.000743 -0.000109 
-0.000752 -0.000098 
-0.000728 -0.000132 
-0.000735 -0.000120 
-0.000730 -0.000130 
-0.000747 -0.000096 
-0.000740 -0.000108 
-0.000740 -0.000111 
-0.000723 -0.000141 
-0.000733 -0.000126 
-0.000726 -0.000135 
-0.019685 0.029123 
-0.014006 0.035277 
-0.008149 0.012160 
-0.016388 0.020775 
-0.027878 0.023055 
-0.022891 0.021870 
-0.020558 0.013970 
-0.000819 0.000075 
-0.000195 0.000096 
-0.000958 0.000062 
-0.000571 0.000067 
-0.000836 -0.000021 
0.001058 0.001323 
-0.001105 0.005272 
-0.002093 0.000416 
-0.001918 0.000261 
-0.000787 -0.000191 
-0.014175 0.007086 
-0.006826 0.002417 
-0.017049 0.007883 
-0.000827 -0.000122 
-0.001657 0.000153 
-0.001329 0.000089 
-0.005920 0.005778 
-0.003223 0.001720 
-0.010378 0.006384 
-0.000756 -0.000084 
-0.000755 -0.000082 
-0.000753 -0.000081 
-0.000761 -0.000068 
-0.000766 -0.000049 
-0.000783 -0.000159 
-0.000802 -0.000082 
-0.000796 -0.000122 
-0.000771 -0.000115 
-0.000761 -0.000092 
-0.000798 0.000032 
-0.000773 -0.000028 
-0.000783 -0.000001 
-0.000802 -0.000002 
-0.000804 -0.000041 
-0.000766 -0.000069 
-0.000782 -0.000055 
-0.000770 -0.000047 
-0.000637 0.000323 
-0.000640 0.000347 
-0.000631 0.000287 
-0.000634 0.000303 
-0.000594 0.000327 
-0.000611 0.000316 
-0.000589 0.000308 
-0.000618 0.000297 
-0.000621 0.000280 
-0.000574 0.000266 
-0.000593 0.000271 
-0.000566 0.000263 
-0.000624 0.000274 
-0.000628 0.000277 
-0.000531 0.000288 
-0.000541 0.000280 
-0.000528 0.000272 
-0.000571 0.000299 
-0.000555 0.000289 
-0.000559 0.000306 
-0.000545 0.000256 
-0.000551 0.000272 
-0.000561 0.000267 
-0.000604 0.000283 
-0.000580 0.000276 
-0.000585 0.000290 
0.014770 0.035790 
0.025794 0.030355 
0.026440 0.017579 
0.030891 0.024227 
0.029829 0.025718 
0.029806 0.022927 
0.026281 0.015072 
-0.000434 0.000819 
0.000405 0.002850 
0.000073 0.003318 
0.000854 0.002072 
0.000672 0.002438 
-0.000468 0.000606 
0.012956 0.012747 
0.005593 0.006468 
0.015838 0.011464 
0.000781 0.001182 
-0.000622 0.000402 
0.017364 0.008295 
0.007326 0.003601 
-0.000532 0.000488 
0.000912 0.001448 
0.000936 0.001743 
0.017600 0.010291 
0.007555 0.004896 
0.018121 0.009234 
-0.000352 0.000294 
-0.000389 0.000256 
-0.000354 0.000259 
-0.000445 0.000252 
-0.000419 0.000254 
-0.000418 0.000283 
-0.000421 0.000185 
-0.000420 0.000221 
-0.000445 0.000188 
-0.000516 0.000264 
-0.000502 0.000259 
-0.000503 0.000277 
-0.000495 0.000210 
-0.000499 0.000236 
-0.000507 0.000221 
-0.000467 0.000276 
-0.000486 0.000255 
-0.000467 0.000253 
-0.000451 0.000208 
-0.000466 0.000120 
-0.000455 0.000195 
-0.000462 0.000158 
-0.000470 0.000133 
-0.000458 0.000118 
-0.000489 0.000173 
-0.000480 0.000152 
-0.000489 0.000182 
-0.000467 0.000225 
-0.000481 0.000201 
-0.000465 0.000193 
-0.000578 0.000297 
-0.000514 0.000270 
-0.000543 0.000288 
-0.000556 0.000269 
-0.000544 0.000251 
-0.000462 0.000203 
-0.000499 0.000195 
-0.000483 0.000180 
-0.000473 0.000223 
-0.000491 0.000247 
-0.000524 0.000253 
-0.000537 0.000243 
-0.000531 0.000245 
-0.000519 0.000233 
-0.000511 0.000213 
-0.000511 0.000233 
-0.000511 0.000216 
-0.000526 0.000235 
-0.000438 0.038031 
0.015187 0.037153 
0.012842 0.040459 
0.014529 0.038706 
-0.000720 0.040944 
0.025666 0.033254 
0.026693 0.027403 
-0.001010 0.049571 
0.003071 0.046988 
-0.001078 0.049001 
0.007610 0.033565 
0.006244 0.041525 
-0.000524 0.035948 
-0.000958 0.044574 
0.006909 0.044601 
0.010243 0.042424 
0.001977 0.008324 
-0.000301 0.003852 
0.019353 0.020723 
0.009152 0.014135 
-0.000133 0.017209 
0.004687 0.015624 
0.006930 0.024450 
0.018506 0.036978 
0.015191 0.031336 
0.021700 0.029278 
-0.013713 0.072433 
-0.015434 0.069985 
-0.000166 0.071830 
-0.030766 0.054288 
-0.026589 0.063868 
-0.027591 0.056558 
-0.000518 0.066090 
-0.016128 0.067243 
-0.015747 0.064311 
-0.001906 0.010300 
-0.008525 0.019112 
-0.001773 0.011642 
-0.027318 0.037957 
-0.019130 0.028313 
-0.018417 0.026331 
-0.016754 0.032236 
-0.018563 0.030295 
-0.027391 0.042561 
-0.001036 0.054206 
-0.008784 0.055230 
-0.005054 0.052329 
-0.014320 0.061281 
-0.011945 0.058232 
-0.000834 0.060022 
-0.022727 0.043766 
-0.019920 0.052535 
-0.027706 0.046482 
-0.031869 0.051804 
-0.030824 0.049180 
-0.026792 0.058402 
-0.000356 0.000224 
-0.000315 0.000262 
-0.000422 0.000145 
-0.000392 0.000185 
-0.000321 0.000190 
-0.000359 0.000187 
-0.000364 0.000147 
-0.000427 0.001214 
-0.000449 0.000252 
-0.000444 0.000475 
-0.000447 0.000337 