# vtk DataFile Version 2.0
Unstructured Grid Example
ASCII
DATASET UNSTRUCTURED_GRID

POINTS 117 float
-0.997983 0.001117 0.000000 
-0.006894 0.039658 0.000000 
0.998493 0.001789 0.000000 
-1.000948 1.002127 0.000000 
0.003079 1.043443 0.000000 
1.000673 1.002215 0.000000 
-1.000739 2.001646 0.000000 
0.001848 2.077117 0.000000 
1.001638 2.002185 0.000000 
-1.000000 3.000000 0.000000 
0.000000 3.000000 0.000000 
1.000000 3.000000 0.000000 
-0.497370 0.004831 0.000000 
-0.500714 0.502379 0.000000 
-1.000917 0.501684 0.000000 
0.003071 0.539199 0.000000 
-0.501133 1.003418 0.000000 
0.498793 0.002901 0.000000 
0.500334 0.504365 0.000000 
1.000818 0.502224 0.000000 
0.500722 1.001470 0.000000 
-0.500650 1.502646 0.000000 
-1.001243 1.501887 0.000000 
-0.005316 1.546832 0.000000 
-0.501166 2.004915 0.000000 
0.501745 1.504331 0.000000 
1.000789 1.502257 0.000000 
0.501363 2.009716 0.000000 
-0.499477 2.514212 0.000000 
-0.999110 2.501413 0.000000 
0.001435 2.570226 0.000000 
-0.500000 3.000000 0.000000 
0.499508 2.510891 0.000000 
1.001082 2.501803 0.000000 
0.500000 3.000000 0.000000 
-0.747879 0.002561 0.000000 
-0.750123 0.252410 0.000000 
-0.999950 0.251222 0.000000 
-0.271974 0.268301 0.000000 
-0.500230 0.253932 0.000000 
-0.254071 0.016298 0.000000 
-1.001046 0.752026 0.000000 
-0.751027 0.502362 0.000000 
-0.751033 0.752308 0.000000 
-0.001980 0.283981 0.000000 
-0.273460 0.515621 0.000000 
-0.229801 1.012019 0.000000 
-0.252798 0.761731 0.000000 
0.005785 0.793671 0.000000 
-0.501133 0.752559 0.000000 
-0.750929 1.002410 0.000000 
0.259993 0.018812 0.000000 
0.274304 0.263857 0.000000 
0.750179 0.253071 0.000000 
0.500535 0.254680 0.000000 
0.748424 0.002863 0.000000 
0.271450 0.510155 0.000000 
0.248414 0.763087 0.000000 
1.000098 0.252018 0.000000 
0.750778 0.502888 0.000000 
0.750682 1.002076 0.000000 
0.750817 0.752402 0.000000 
1.000882 0.752255 0.000000 
0.500295 0.752691 0.000000 
0.227891 1.020675 0.000000 
-0.750968 1.252332 0.000000 
-1.001040 1.252062 0.000000 
-0.227500 1.269125 0.000000 
-0.500816 1.253497 0.000000 
-1.001219 1.751718 0.000000 
-0.751104 1.501885 0.000000 
-0.751086 1.751304 0.000000 
-0.002414 1.292118 0.000000 
-0.248327 1.530395 0.000000 
-0.274068 2.046485 0.000000 
-0.271587 1.790620 0.000000 
-0.002979 1.810471 0.000000 
-0.500877 1.752456 0.000000 
-0.750689 2.001001 0.000000 
0.230449 1.277920 0.000000 
0.750655 1.252171 0.000000 
0.501348 1.252048 0.000000 
0.253561 1.531953 0.000000 
0.273972 1.784683 0.000000 
1.000579 1.252215 0.000000 
0.750842 1.502521 0.000000 
0.751531 2.002541 0.000000 
0.751168 1.752735 0.000000 
1.001225 1.752255 0.000000 
0.501721 1.757201 0.000000 
0.270794 2.039838 0.000000 
-0.749905 2.251208 0.000000 
-0.999883 2.251619 0.000000 
-0.253060 2.297359 0.000000 
-0.500807 2.260096 0.000000 
-0.999176 2.750811 0.000000 
-0.749073 2.501747 0.000000 
-0.748933 2.751712 0.000000 
0.003963 2.334377 0.000000 
-0.228848 2.541038 0.000000 
-0.250000 3.000000 0.000000 
-0.224843 2.771656 0.000000 
-0.001950 2.782271 0.000000 
-0.498177 2.760368 0.000000 
-0.750000 3.000000 0.000000 
0.246352 2.296509 0.000000 
0.751663 2.252108 0.000000 
0.500715 2.261389 0.000000 
0.224187 2.545387 0.000000 
0.226542 2.774858 0.000000 
1.001699 2.252097 0.000000 
0.750951 2.501687 0.000000 
0.750000 3.000000 0.000000 
0.749005 2.750856 0.000000 
0.999642 2.750788 0.000000 
0.497862 2.755533 0.000000 
0.250000 3.000000 0.000000 

CELLS 192 768
3  0 35 37 
3  12 36 35 
3  14 37 36 
3  35 36 37 
3  1 38 40 
3  13 39 38 
3  12 40 39 
3  38 39 40 
3  3 41 43 
3  14 42 41 
3  13 43 42 
3  41 42 43 
3  12 39 36 
3  13 42 39 
3  14 36 42 
3  39 42 36 
3  1 44 38 
3  15 45 44 
3  13 38 45 
3  44 45 38 
3  4 46 48 
3  16 47 46 
3  15 48 47 
3  46 47 48 
3  3 43 50 
3  13 49 43 
3  16 50 49 
3  43 49 50 
3  15 47 45 
3  16 49 47 
3  13 45 49 
3  47 49 45 
3  1 51 44 
3  17 52 51 
3  15 44 52 
3  51 52 44 
3  2 53 55 
3  18 54 53 
3  17 55 54 
3  53 54 55 
3  4 48 57 
3  15 56 48 
3  18 57 56 
3  48 56 57 
3  17 54 52 
3  18 56 54 
3  15 52 56 
3  54 56 52 
3  2 58 53 
3  19 59 58 
3  18 53 59 
3  58 59 53 
3  5 60 62 
3  20 61 60 
3  19 62 61 
3  60 61 62 
3  4 57 64 
3  18 63 57 
3  20 64 63 
3  57 63 64 
3  19 61 59 
3  20 63 61 
3  18 59 63 
3  61 63 59 
3  3 50 66 
3  16 65 50 
3  22 66 65 
3  50 65 66 
3  4 67 46 
3  21 68 67 
3  16 46 68 
3  67 68 46 
3  6 69 71 
3  22 70 69 
3  21 71 70 
3  69 70 71 
3  16 68 65 
3  21 70 68 
3  22 65 70 
3  68 70 65 
3  4 72 67 
3  23 73 72 
3  21 67 73 
3  72 73 67 
3  7 74 76 
3  24 75 74 
3  23 76 75 
3  74 75 76 
3  6 71 78 
3  21 77 71 
3  24 78 77 
3  71 77 78 
3  23 75 73 
3  24 77 75 
3  21 73 77 
3  75 77 73 
3  4 64 72 
3  20 79 64 
3  23 72 79 
3  64 79 72 
3  5 80 60 
3  25 81 80 
3  20 60 81 
3  80 81 60 
3  7 76 83 
3  23 82 76 
3  25 83 82 
3  76 82 83 
3  20 81 79 
3  25 82 81 
3  23 79 82 
3  81 82 79 
3  5 84 80 
3  26 85 84 
3  25 80 85 
3  84 85 80 
3  8 86 88 
3  27 87 86 
3  26 88 87 
3  86 87 88 
3  7 83 90 
3  25 89 83 
3  27 90 89 
3  83 89 90 
3  26 87 85 
3  27 89 87 
3  25 85 89 
3  87 89 85 
3  6 78 92 
3  24 91 78 
3  29 92 91 
3  78 91 92 
3  7 93 74 
3  28 94 93 
3  24 74 94 
3  93 94 74 
3  9 95 97 
3  29 96 95 
3  28 97 96 
3  95 96 97 
3  24 94 91 
3  28 96 94 
3  29 91 96 
3  94 96 91 
3  7 98 93 
3  30 99 98 
3  28 93 99 
3  98 99 93 
3  10 100 102 
3  31 101 100 
3  30 102 101 
3  100 101 102 
3  9 97 104 
3  28 103 97 
3  31 104 103 
3  97 103 104 
3  30 101 99 
3  31 103 101 
3  28 99 103 
3  101 103 99 
3  7 90 98 
3  27 105 90 
3  30 98 105 
3  90 105 98 
3  8 106 86 
3  32 107 106 
3  27 86 107 
3  106 107 86 
3  10 102 109 
3  30 108 102 
3  32 109 108 
3  102 108 109 
3  27 107 105 
3  32 108 107 
3  30 105 108 
3  107 108 105 
3  8 110 106 
3  33 111 110 
3  32 106 111 
3  110 111 106 
3  11 112 114 
3  34 113 112 
3  33 114 113 
3  112 113 114 
3  10 109 116 
3  32 115 109 
3  34 116 115 
3  109 115 116 
3  33 113 111 
3  34 115 113 
3  32 111 115 
3  113 115 111 

CELL_TYPES 192
5
5
5
5
5
5
5
5
5
5
5
5
5
5
5
5
5
5
5
5
5
5
5
5
5
5
5
5
5
5
5
5
5
5
5
5
5
5
5
5
5
5
5
5
5
5
5
5
5
5
5
5
5
5
5
5
5
5
5
5
5
5
5
5
5
5
5
5
5
5
5
5
5
5
5
5
5
5
5
5
5
5
5
5
5
5
5
5
5
5
5
5
5
5
5
5
5
5
5
5
5
5
5
5
5
5
5
5
5
5
5
5
5
5
5
5
5
5
5
5
5
5
5
5
5
5
5
5
5
5
5
5
5
5
5
5
5
5
5
5
5
5
5
5
5
5
5
5
5
5
5
5
5
5
5
5
5
5
5
5
5
5
5
5
5
5
5
5
5
5
5
5
5
5
5
5
5
5
5
5
5
5
5
5
5
5
5
5
5
5
5
5

POINT_DATA 117

SCALARS u_h float 2
LOOKUP_TABLE default
0.002017 0.001117 
-0.006894 0.039658 
-0.001507 0.001789 
-0.000948 0.002127 
0.003079 0.043443 
0.000673 0.002215 
-0.000739 0.001646 
0.001848 0.077117 
0.001638 0.002185 
0.000000 0.000000 
0.000000 0.000000 
0.000000 0.000000 
0.002630 0.004831 
-0.000714 0.002379 
-0.000917 0.001684 
0.003071 0.039199 
-0.001133 0.003418 
-0.001207 0.002901 
0.000334 0.004365 
0.000818 0.002224 
0.000722 0.001470 
-0.000650 0.002646 
-0.001243 0.001887 
-0.005316 0.046832 
-0.001166 0.004915 
0.001745 0.004331 
0.000789 0.002257 
0.001363 0.009716 
0.000523 0.014212 
0.000890 0.001413 
0.001435 0.070226 
0.000000 0.000000 
-0.000492 0.010891 
0.001082 0.001803 
0.000000 0.000000 
0.002121 0.002561 
-0.000123 0.002410 
0.000050 0.001222 
-0.021974 0.018301 
-0.000230 0.003932 
-0.004071 0.016298 
-0.001046 0.002026 
-0.001027 0.002362 
-0.001033 0.002308 
-0.001980 0.033981 
-0.023460 0.015621 
0.020199 0.012019 
-0.002798 0.011731 
0.005785 0.043671 
-0.001133 0.002559 
-0.000929 0.002410 
0.009993 0.018812 
0.024304 0.013857 
0.000179 0.003071 
0.000535 0.004680 
-0.001576 0.002863 
0.021450 0.010155 
-0.001586 0.013087 
0.000098 0.002018 
0.000778 0.002888 
0.000682 0.002076 
0.000817 0.002402 
0.000882 0.002255 
0.000295 0.002691 
-0.022109 0.020675 
-0.000968 0.002332 
-0.001040 0.002062 
0.022500 0.019125 
-0.000816 0.003497 
-0.001219 0.001718 
-0.001104 0.001885 
-0.001086 0.001304 
-0.002414 0.042118 
0.001673 0.030395 
-0.024068 0.046485 
-0.021587 0.040620 
-0.002979 0.060471 
-0.000877 0.002456 
-0.000689 0.001001 
-0.019551 0.027920 
0.000655 0.002171 
0.001348 0.002048 
0.003561 0.031953 
0.023972 0.034683 
0.000579 0.002215 
0.000842 0.002521 
0.001531 0.002541 
0.001168 0.002735 
0.001225 0.002255 
0.001721 0.007201 
0.020794 0.039838 
0.000095 0.001208 
0.000117 0.001619 
-0.003060 0.047359 
-0.000807 0.010096 
0.000824 0.000811 
0.000927 0.001747 
0.001067 0.001712 
0.003963 0.084377 
0.021152 0.041038 
0.000000 0.000000 
0.025157 0.021656 
-0.001950 0.032271 
0.001823 0.010368 
0.000000 0.000000 
-0.003648 0.046509 
0.001663 0.002108 
0.000715 0.011389 
-0.025813 0.045387 
-0.023458 0.024858 
0.001699 0.002097 
0.000951 0.001687 
0.000000 0.000000 
-0.000995 0.000856 
-0.000358 0.000788 
-0.002138 0.005533 
0.000000 0.000000 

CELL_DATA 192

SCALARS epsilon float 4
LOOKUP_TABLE default
0.000495 0.000481 0.000000 -0.001046
0.002152 -0.000478 0.000000 0.000063
-0.000667 0.001876 0.000000 0.000438
-0.000610 -0.000547 0.000000 -0.002114
-0.002119 0.019009 0.000000 0.010140
-0.090599 -0.004103 0.000000 0.027596
-0.026552 -0.001942 0.000000 0.017123
-0.083299 0.014376 0.000000 -0.010934
0.000055 0.000407 0.000000 0.000761
-0.000437 0.001373 0.000000 0.001096
0.001250 -0.000214 0.000000 0.000023
0.000055 -0.000214 0.000000 0.000553
-0.000292 -0.003512 0.000000 -0.002667
0.001252 -0.006231 0.000000 -0.000931
-0.000423 -0.000180 0.000000 -0.000451
-0.000399 -0.000153 0.000000 0.001237
0.075806 -0.022362 0.000000 0.041013
0.099031 0.022463 0.000000 0.054909
-0.094712 -0.008696 0.000000 0.023235
0.077157 -0.008708 0.000000 0.028773
-0.069292 0.009643 0.000000 0.056769
0.082418 -0.001260 0.000000 0.059461
0.032480 0.023792 0.000000 0.067940
0.026375 -0.002474 0.000000 0.108238
0.000076 0.000408 0.000000 0.000772
-0.000400 0.000722 0.000000 -0.000337
-0.000816 0.003438 0.000000 0.002009
-0.000404 0.000408 0.000000 0.000709
0.096344 -0.019058 0.000000 0.084857
-0.006680 0.004107 0.000000 0.018279
-0.094982 0.002512 0.000000 0.025277
-0.006192 -0.018078 0.000000 0.060217
0.067016 -0.018210 0.000000 -0.033280
-0.040070 -0.013840 0.000000 -0.002448
0.101247 0.024629 0.000000 -0.029922
0.105249 -0.013033 0.000000 -0.014767
0.000329 0.000871 0.000000 0.001362
-0.001431 -0.001244 0.000000 -0.003623
-0.001450 0.007091 0.000000 0.003414
-0.001356 0.000897 0.000000 0.000299
-0.031223 0.005702 0.000000 -0.066737
0.072023 0.024520 0.000000 -0.051735
-0.085313 0.009668 0.000000 -0.061660
-0.036945 0.008057 0.000000 -0.107821
-0.099238 0.008181 0.000000 -0.014175
-0.088017 -0.000959 0.000000 -0.011934
0.069635 -0.010124 0.000000 -0.064009
-0.099928 -0.014539 0.000000 -0.024729
-0.000275 0.000951 0.000000 0.001107
0.000173 0.000832 0.000000 0.000112
0.001789 -0.000701 0.000000 -0.001760
-0.000310 -0.000714 0.000000 -0.000909
-0.000035 -0.000162 0.000000 -0.000139
-0.000157 -0.001303 0.000000 0.000943
0.000260 0.000128 0.000000 -0.000166
0.000260 -0.001308 0.000000 -0.000564
-0.109766 0.026703 0.000000 -0.089169
0.007492 -0.005860 0.000000 -0.021008
0.087302 -0.002276 0.000000 -0.037546
0.007352 0.027406 0.000000 -0.060889
0.000162 -0.001941 0.000000 -0.001253
0.002088 -0.004895 0.000000 0.000270
0.001771 -0.006700 0.000000 -0.003052
0.002085 -0.001944 0.000000 -0.000501
0.000077 -0.000262 0.000000 0.000384
-0.000816 -0.000303 0.000000 0.001939
0.000288 -0.000695 0.000000 0.000136
0.000287 -0.000311 0.000000 0.000464
-0.071968 0.035442 0.000000 0.065705
0.088909 -0.001802 0.000000 0.031440
0.081673 0.000775 0.000000 0.017675
0.088472 0.029057 0.000000 0.034381
0.000539 -0.000286 0.000000 0.000133
0.000556 -0.000677 0.000000 0.000041
0.001814 -0.002321 0.000000 0.001560
0.000534 -0.002324 0.000000 -0.000794
0.000604 0.000318 0.000000 0.002963
0.001813 -0.003408 0.000000 0.001858
0.000556 -0.001792 0.000000 -0.000277
0.000612 -0.001779 0.000000 0.002061
-0.102036 0.002191 0.000000 0.033486
-0.027506 0.021645 0.000000 0.026271
0.021039 0.058215 0.000000 0.011926
-0.092688 0.056857 0.000000 -0.002600
0.096480 0.067813 0.000000 0.065668
-0.093951 0.040894 0.000000 0.074982
0.071057 0.054878 0.000000 0.041807
0.072429 0.026503 0.000000 0.033985
0.000205 -0.001205 0.000000 -0.000495
0.000840 -0.000742 0.000000 0.001852
-0.001892 0.009923 0.000000 0.007172
0.000829 -0.001209 0.000000 0.003101
-0.018143 0.048168 0.000000 -0.016196
-0.086055 0.023553 0.000000 0.074341
0.009347 0.005399 0.000000 0.055086
-0.066966 0.067214 0.000000 0.022346
-0.107671 -0.002346 0.000000 -0.057396
0.087917 0.031599 0.000000 -0.032378
-0.071499 0.019774 0.000000 -0.033945
-0.070223 0.030922 0.000000 -0.021961
-0.000036 0.000382 0.000000 0.000225
-0.002776 0.009091 0.000000 0.001041
-0.000161 0.002305 0.000000 0.002462
-0.002776 0.000382 0.000000 0.000192
0.103850 0.069854 0.000000 -0.039205
0.035423 0.055065 0.000000 -0.023684
0.004910 0.025760 0.000000 -0.013542
0.112082 0.022531 0.000000 -0.013630
0.080363 0.007085 0.000000 -0.050160
-0.007112 0.015346 0.000000 -0.053940
0.043906 0.022795 0.000000 0.015378
0.092182 0.028988 0.000000 -0.007923
-0.000303 0.000001 0.000000 -0.000100
-0.000212 0.000171 0.000000 -0.000109
-0.003614 0.001432 0.000000 -0.003239
-0.000303 0.001400 0.000000 0.000462
0.000431 -0.000277 0.000000 0.000114
0.000714 -0.000323 0.000000 -0.013637
0.000231 -0.000005 0.000000 -0.000088
0.000230 -0.000772 0.000000 -0.000235
0.071274 0.027935 0.000000 -0.078613
-0.092938 0.018520 0.000000 -0.053874
-0.080904 0.018191 0.000000 -0.059993
-0.094322 0.025914 0.000000 -0.060295
-0.000211 0.000854 0.000000 0.000125
-0.002237 0.010140 0.000000 -0.009561
-0.003620 0.011441 0.000000 -0.003628
-0.002188 0.001036 0.000000 -0.008273
0.000215 -0.000095 0.000000 0.000422
-0.001955 0.000901 0.000000 0.009390
-0.000077 -0.000818 0.000000 0.000726
-0.000077 0.000834 0.000000 0.000747
0.092007 0.000384 0.000000 0.098674
-0.009828 0.026509 0.000000 0.075994
-0.096017 0.036342 0.000000 0.081411
-0.018065 0.002335 0.000000 0.116625
0.000987 -0.003229 0.000000 0.000161
0.000147 -0.002410 0.000000 0.000538
-0.001647 0.001079 0.000000 0.025215
0.000968 -0.000136 0.000000 0.002081
-0.003662 0.021071 0.000000 0.018135
-0.001867 0.017277 0.000000 0.027190
0.000148 0.002147 0.000000 0.002331
-0.003726 0.002666 0.000000 0.019407
0.026547 0.037249 0.000000 0.076008
-0.080540 -0.047847 0.000000 0.055969
0.073583 -0.030215 0.000000 0.099472
0.018098 -0.028763 0.000000 0.122966
0.000040 -0.137233 0.000000 0.003815
0.006069 -0.090341 0.000000 -0.049862
-0.113312 -0.160663 0.000000 0.017313
-0.101506 -0.083807 0.000000 -0.033052
0.000009 -0.006870 0.000000 -0.002133
0.002853 -0.015062 0.000000 0.020177
0.000029 -0.042332 0.000000 -0.003640
0.003179 -0.006118 0.000000 0.015306
-0.083964 -0.073222 0.000000 0.071421
0.089348 -0.041091 0.000000 0.020050
0.078624 -0.010945 0.000000 0.056580
0.088426 -0.080224 0.000000 0.031570
0.074088 0.038805 0.000000 -0.068156
-0.087670 0.022116 0.000000 -0.111108
-0.032520 -0.046112 0.000000 -0.085386
-0.040903 0.023275 0.000000 -0.124016
0.000428 -0.001730 0.000000 -0.000449
0.003618 -0.001485 0.000000 -0.021002
0.000601 0.006999 0.000000 -0.015552
0.003805 -0.001026 0.000000 -0.018331
-0.089361 -0.136256 0.000000 -0.012701
-0.116438 -0.156024 0.000000 -0.065013
0.097517 -0.074894 0.000000 -0.070268
-0.089304 -0.084508 0.000000 -0.010898
0.016948 0.015724 0.000000 -0.071029
0.095608 0.005291 0.000000 -0.070744
-0.119565 -0.008077 0.000000 -0.098753
0.008856 -0.007009 0.000000 -0.114112
0.000144 -0.000349 0.000000 0.000101
0.000526 -0.001179 0.000000 -0.001002
0.005655 -0.001119 0.000000 -0.019854
0.000148 -0.001687 0.000000 -0.001444
0.000001 -0.003156 0.000000 0.000716
0.000008 -0.003429 0.000000 0.001989
0.002559 -0.004069 0.000000 -0.003008
0.002552 -0.003428 0.000000 0.001848
0.005428 -0.104314 0.000000 0.046343
0.081208 -0.019487 0.000000 -0.042285
0.000038 -0.022378 0.000000 0.004273
0.093550 -0.093923 0.000000 0.000174
0.000556 -0.003325 0.000000 -0.003657
0.004762 -0.022034 0.000000 -0.005313
0.005531 -0.021206 0.000000 -0.022082
0.004447 -0.003300 0.000000 -0.013260

SCALARS sigma float 4
LOOKUP_TABLE default
0.008919 0.008919 0.005351 -0.008042
0.025406 0.005178 0.009175 0.000394
0.001660 0.021186 0.006854 0.003409
-0.011981 -0.011270 -0.006976 -0.016266
0.021069 0.169095 0.057049 0.083670
-1.315896 -0.631292 -0.584157 0.235400
-0.380938 -0.196930 -0.173360 0.136483
-1.145361 -0.354972 -0.450100 -0.058813
0.003078 0.005778 0.002657 0.005850
0.002005 0.015899 0.005371 0.008438
0.015574 0.004320 0.005968 0.000180
-0.000493 -0.002566 -0.000918 0.004257
-0.025223 -0.049674 -0.022469 -0.020663
-0.019251 -0.076941 -0.028858 -0.007211
-0.006839 -0.004952 -0.003537 -0.003465
-0.006456 -0.004653 -0.003333 0.009525
0.841342 0.092116 0.280037 0.300536
1.379331 0.797588 0.653076 0.390706
-1.402660 -0.716350 -0.635703 0.201046
0.940714 0.287940 0.368596 0.204320
-0.965359 -0.407692 -0.411915 0.474031
1.011954 0.414292 0.427874 0.448697
0.523570 0.403265 0.278050 0.507054
0.237920 -0.011378 0.067963 0.825560
0.003379 0.005928 0.002792 0.005940
-0.001246 0.007391 0.001844 -0.002585
0.008758 0.041380 0.015041 0.015467
-0.003083 0.003159 0.000023 0.005452
1.070333 0.204537 0.382461 0.629542
-0.070478 0.007421 -0.018917 0.141560
-1.341197 -0.565820 -0.572105 0.216835
-0.241799 -0.312043 -0.166153 0.470816
0.746768 0.082371 0.248742 -0.234565
-0.670554 -0.466114 -0.341001 -0.026179
1.424264 0.850536 0.682440 -0.205248
1.240537 0.356960 0.479249 -0.082212
0.009068 0.013347 0.006725 0.010456
-0.026583 -0.025303 -0.015566 -0.027909
0.020903 0.086605 0.032252 0.026072
-0.013548 0.003821 -0.002918 0.002242
-0.441110 -0.214110 -0.196566 -0.528906
1.044237 0.653099 0.509201 -0.370268
-1.222094 -0.421437 -0.493059 -0.479875
-0.569407 -0.242773 -0.243654 -0.849876
-1.367787 -0.505498 -0.561985 -0.125476
-1.249547 -0.549597 -0.539743 -0.100792
0.812041 0.168840 0.294265 -0.464583
-1.510792 -0.817900 -0.698607 -0.207717
0.001451 0.010975 0.003728 0.008489
0.007049 0.012119 0.005750 0.000856
0.019876 0.000617 0.006148 -0.013493
-0.008384 -0.011539 -0.005977 -0.006988
-0.001409 -0.002384 -0.001138 -0.001072
-0.009655 -0.018504 -0.008448 0.007251
0.004242 0.003220 0.002239 -0.001275
-0.004052 -0.016120 -0.006052 -0.004339
-1.505612 -0.408333 -0.574184 -0.724660
0.061554 -0.047754 0.004140 -0.160414
1.100318 0.418945 0.455779 -0.265990
0.207944 0.377619 0.175669 -0.459718
-0.009053 -0.025268 -0.010296 -0.009637
-0.000255 -0.054040 -0.016289 0.002116
-0.015067 -0.080530 -0.028679 -0.023442
0.016804 -0.014189 0.000785 -0.003846
-0.000479 -0.003096 -0.001073 0.002950
-0.012782 -0.008898 -0.006504 0.014928
-0.000144 -0.007709 -0.002356 0.001045
0.002064 -0.002540 -0.000143 0.003572
-0.854417 -0.075371 -0.278937 0.542241
1.127972 0.445454 0.472028 0.223033
1.059448 0.457050 0.454949 0.126386
1.298651 0.854820 0.646041 0.245460
0.005563 -0.000780 0.001435 0.001026
0.003568 -0.005915 -0.000704 0.000318
0.010966 -0.020885 -0.002976 0.011982
-0.006248 -0.028259 -0.010352 -0.006107
0.009891 0.007617 0.005252 0.022777
0.004653 -0.035571 -0.009276 0.014277
-0.002871 -0.020940 -0.007144 -0.002132
-0.002102 -0.020583 -0.006806 0.015841
-1.474053 -0.665402 -0.641837 0.299934
-0.265343 0.097929 -0.050224 0.210088
0.536642 0.795379 0.399606 0.100082
-1.075830 0.097869 -0.293388 0.035113
1.589132 1.346343 0.880642 0.464367
-1.189094 -0.238708 -0.428340 0.645705
1.219232 1.084215 0.691034 0.301452
1.077802 0.721483 0.539786 0.242835
-0.004227 -0.015097 -0.005797 -0.003801
0.006950 -0.005293 0.000497 0.014227
0.030768 0.120379 0.045344 0.055322
0.004097 -0.011655 -0.002267 0.023848
-0.043898 0.476428 0.129759 -0.103130
-1.155836 -0.386289 -0.462637 0.629020
0.121443 0.044830 0.049882 0.419798
-0.692785 0.289655 -0.120939 0.236659
-1.585535 -0.762828 -0.704509 -0.487177
1.301504 0.874778 0.652884 -0.227905
-0.897865 -0.188952 -0.326045 -0.277394
-0.815988 -0.033717 -0.254912 -0.186727
0.001724 0.004936 0.001998 0.001728
0.014777 0.105778 0.036166 0.007955
0.011056 0.030011 0.012320 0.018915
-0.035218 -0.010896 -0.013834 0.001485
1.699712 1.431823 0.939460 -0.272460
0.769468 0.903593 0.501919 -0.176615
0.135487 0.273614 0.122730 -0.109553
1.505608 0.845110 0.705215 -0.073321
1.056164 0.480599 0.461029 -0.357524
-0.042880 0.082984 0.012031 -0.418007
0.650323 0.509387 0.347913 0.119746
1.286015 0.818730 0.631424 -0.038244
-0.004076 -0.001735 -0.001743 -0.000766
-0.001874 0.001069 -0.000242 -0.000838
-0.040631 -0.001975 -0.012782 -0.025020
0.003989 0.017087 0.006323 0.003550
0.004177 -0.001266 0.000873 0.000879
0.005351 -0.005784 -0.000130 -0.104821
0.003051 0.001232 0.001285 -0.000676
-0.001382 -0.009097 -0.003144 -0.001802
1.033438 0.646301 0.503922 -0.567868
-1.249938 -0.411077 -0.498305 -0.459246
-1.080732 -0.355745 -0.430943 -0.503455
-1.229372 -0.321060 -0.465130 -0.508066
0.002074 0.010268 0.003703 0.000953
0.027156 0.120801 0.044387 -0.073647
0.016665 0.131873 0.044561 -0.028003
-0.024447 -0.000857 -0.007591 -0.063791
0.002243 -0.000121 0.000637 0.003249
-0.021922 -0.000842 -0.006829 0.072340
-0.005838 -0.011512 -0.005205 0.005596
0.003696 0.010733 0.004329 0.005737
1.116105 0.413840 0.458984 0.724069
-0.044162 0.150575 0.031924 0.589887
-1.245711 -0.313525 -0.467771 0.695890
-0.348969 -0.250972 -0.179982 0.912981
-0.005492 -0.037965 -0.013037 0.001185
-0.011942 -0.031643 -0.013076 0.004132
-0.023164 -0.011776 -0.010482 0.194275
0.012196 0.003663 0.004758 0.015997
0.067458 0.251496 0.095686 0.139882
0.066633 0.203746 0.081114 0.209187
0.014290 0.029688 0.013194 0.017904
-0.038608 0.005766 -0.009853 0.149774
0.508467 0.515334 0.307140 0.569741
-1.470618 -1.273800 -0.823325 0.471339
0.693935 -0.099770 0.178250 0.751570
-0.057827 -0.473489 -0.159395 0.953677
-0.855101 -1.995237 -0.855101 0.034448
-0.547146 -1.276674 -0.547146 -0.423740
-2.653147 -3.094165 -1.724194 0.146979
-2.072507 -1.867602 -1.182033 -0.273292
-0.039771 -0.092800 -0.039771 -0.016524
-0.052997 -0.196354 -0.074805 0.155143
-0.249625 -0.582458 -0.249625 -0.029264
0.003694 -0.072531 -0.020651 0.117204
-1.683506 -1.671371 -1.006463 0.602292
0.905318 -0.083882 0.246431 0.138891
0.926468 0.219604 0.343822 0.406188
0.650976 -0.653149 -0.000652 0.233437
1.131710 0.807253 0.581689 -0.488137
-1.239138 -0.380278 -0.485825 -0.897692
-0.802394 -1.022756 -0.547545 -0.680579
-0.567287 -0.119149 -0.205931 -0.977555
-0.004237 -0.020859 -0.007529 -0.003451
0.035911 -0.008502 0.008223 -0.161085
0.045950 0.091908 0.041358 -0.119498
0.041226 -0.001168 0.012017 -0.140461
-2.115997 -2.531955 -1.394386 -0.105564
-2.718418 -3.155087 -1.762052 -0.575581
0.745693 -0.648164 0.029259 -0.488536
-1.776243 -1.740386 -1.054989 -0.092724
0.262494 0.181635 0.133239 -0.537445
1.215632 0.492386 0.512405 -0.500058
-1.882372 -0.966983 -0.854807 -0.823423
-0.031965 -0.200657 -0.069787 -0.880931
-0.000075 -0.003869 -0.001183 0.000778
0.000229 -0.012866 -0.003791 -0.007718
0.065514 0.008377 0.022167 -0.151950
-0.007802 -0.021896 -0.008909 -0.011127
-0.018236 -0.042550 -0.018236 0.005524
-0.019817 -0.046240 -0.019817 0.015355
0.010650 -0.040246 -0.008879 -0.023229
0.014399 -0.031564 -0.005149 0.014267
-0.636975 -1.486275 -0.636975 0.400730
0.922669 0.149395 0.321619 -0.303923
-0.130584 -0.304696 -0.130584 0.033632
0.559364 -0.883674 -0.097293 0.064581
-0.012147 -0.041807 -0.016186 -0.028229
-0.066172 -0.275261 -0.102430 -0.039771
-0.053837 -0.266491 -0.096098 -0.169643
0.039241 -0.021427 0.005344 -0.101787

