# vtk DataFile Version 2.0
Unstructured Grid Example
ASCII
DATASET UNSTRUCTURED_GRID

POINTS 35 float
-0.996511 0.008561 0.000000 
-0.010349 0.039947 0.000000 
1.001929 0.010014 0.000000 
-1.005747 1.008981 0.000000 
0.003965 1.031593 0.000000 
1.000779 1.007769 0.000000 
-1.003856 2.005282 0.000000 
0.002792 2.041120 0.000000 
1.001805 2.005589 0.000000 
-1.000000 3.000000 0.000000 
0.000000 3.000000 0.000000 
1.000000 3.000000 0.000000 
-0.496329 0.015416 0.000000 
-0.504702 0.514025 0.000000 
-1.004275 0.508743 0.000000 
0.003838 0.533788 0.000000 
-0.504088 1.008088 0.000000 
0.501220 0.011444 0.000000 
0.499770 0.508654 0.000000 
0.999624 0.509253 0.000000 
0.499887 1.010310 0.000000 
-0.500338 1.508477 0.000000 
-1.001425 1.507429 0.000000 
-0.007913 1.531878 0.000000 
-0.504257 2.008888 0.000000 
0.504971 1.509646 0.000000 
1.004688 1.507238 0.000000 
0.501179 2.007726 0.000000 
-0.501059 2.507616 0.000000 
-1.002375 2.503474 0.000000 
0.002888 2.536203 0.000000 
-0.500000 3.000000 0.000000 
0.498266 2.507994 0.000000 
1.000861 2.502766 0.000000 
0.500000 3.000000 0.000000 

CELLS 48 192
3  0 12 14 
3  1 13 12 
3  3 14 13 
3  12 13 14 
3  1 15 13 
3  4 16 15 
3  3 13 16 
3  15 16 13 
3  1 17 15 
3  2 18 17 
3  4 15 18 
3  17 18 15 
3  2 19 18 
3  5 20 19 
3  4 18 20 
3  19 20 18 
3  3 16 22 
3  4 21 16 
3  6 22 21 
3  16 21 22 
3  4 23 21 
3  7 24 23 
3  6 21 24 
3  23 24 21 
3  4 20 23 
3  5 25 20 
3  7 23 25 
3  20 25 23 
3  5 26 25 
3  8 27 26 
3  7 25 27 
3  26 27 25 
3  6 24 29 
3  7 28 24 
3  9 29 28 
3  24 28 29 
3  7 30 28 
3  10 31 30 
3  9 28 31 
3  30 31 28 
3  7 27 30 
3  8 32 27 
3  10 30 32 
3  27 32 30 
3  8 33 32 
3  11 34 33 
3  10 32 34 
3  33 34 32 

CELL_TYPES 48
5
5
5
5
5
5
5
5
5
5
5
5
5
5
5
5
5
5
5
5
5
5
5
5
5
5
5
5
5
5
5
5
5
5
5
5
5
5
5
5
5
5
5
5
5
5
5
5

POINT_DATA 35

SCALARS u_h float 2
LOOKUP_TABLE default
0.003489 0.008561 
-0.010349 0.039947 
0.001929 0.010014 
-0.005747 0.008981 
0.003965 0.031593 
0.000779 0.007769 
-0.003856 0.005282 
0.002792 0.041120 
0.001805 0.005589 
0.000000 0.000000 
0.000000 0.000000 
0.000000 0.000000 
0.003671 0.015416 
-0.004702 0.014025 
-0.004275 0.008743 
0.003838 0.033788 
-0.004088 0.008088 
0.001220 0.011444 
-0.000230 0.008654 
-0.000376 0.009253 
-0.000113 0.010310 
-0.000338 0.008477 
-0.001425 0.007429 
-0.007913 0.031878 
-0.004257 0.008888 
0.004971 0.009646 
0.004688 0.007238 
0.001179 0.007726 
-0.001059 0.007616 
-0.002375 0.003474 
0.002888 0.036203 
0.000000 0.000000 
-0.001734 0.007994 
0.000861 0.002766 
0.000000 0.000000 

CELL_DATA 48

SCALARS epsilon float 4
LOOKUP_TABLE default
0.000697 0.000670 0.000000 -0.000909
-0.027437 -0.000660 0.000000 0.015966
-0.000819 0.000562 0.000000 0.003806
-0.000536 -0.002552 0.000000 -0.003084
0.016219 -0.012736 0.000000 0.033952
0.015964 -0.003330 0.000000 0.023728
0.003317 -0.011940 0.000000 -0.000291
0.016888 -0.011219 0.000000 0.020599
0.024863 -0.009209 0.000000 -0.014976
0.001412 -0.005600 0.000000 -0.002886
-0.008156 -0.003090 0.000000 -0.025115
-0.008313 -0.004445 0.000000 -0.026735
-0.000276 -0.001515 0.000000 -0.001705
0.001798 -0.002948 0.000000 -0.001396
-0.008180 0.004232 0.000000 -0.021095
-0.000292 0.003308 0.000000 0.000714
0.003366 -0.003091 0.000000 0.003412
0.015657 0.001501 0.000000 0.027172
0.002194 -0.004291 0.000000 -0.001372
0.002184 0.000765 0.000000 0.004789
-0.013846 0.002821 0.000000 0.011322
0.012876 0.018929 0.000000 0.042194
-0.000716 0.000903 0.000000 -0.000318
-0.014860 0.002319 0.000000 0.019397
-0.008923 0.000471 0.000000 -0.033245
0.001887 -0.001265 0.000000 0.002531
0.026556 0.020128 0.000000 -0.011382
0.025926 0.000053 0.000000 -0.017290
-0.000498 -0.001014 0.000000 0.001501
0.001243 -0.003319 0.000000 -0.005024
-0.003711 -0.002092 0.000000 -0.037326
-0.000574 -0.003871 0.000000 -0.006211
-0.000820 -0.003617 0.000000 0.005101
0.013610 -0.000922 0.000000 0.035461
0.002600 -0.006977 0.000000 0.006540
0.002596 -0.002566 0.000000 0.007342
0.007852 -0.008252 0.000000 0.028965
0.000019 -0.075011 0.000000 -0.002871
0.000002 -0.015349 0.000000 0.001059
0.007744 -0.013811 0.000000 0.030078
-0.003217 -0.007579 0.000000 -0.033628
0.001243 0.000519 0.000000 -0.005046
-0.009622 -0.073478 0.000000 -0.033306
-0.009602 0.001823 0.000000 -0.031132
0.005159 -0.005627 0.000000 -0.006196
0.000001 -0.005546 0.000000 -0.000861
0.000006 -0.016115 0.000000 0.001734
0.005220 -0.016022 0.000000 -0.003588

SCALARS sigma float 4
LOOKUP_TABLE default
0.011083 0.011083 0.006650 -0.006990
-0.387818 -0.187531 -0.172604 0.128130
-0.008167 0.002064 -0.001831 0.029314
-0.024183 -0.039064 -0.018974 -0.023863
0.132805 -0.092578 0.012068 0.260269
0.187718 0.031881 0.065880 0.179695
-0.024747 -0.142624 -0.050211 -0.002158
0.155839 -0.065792 0.027014 0.155978
0.262853 -0.006625 0.076868 -0.108795
-0.013482 -0.067539 -0.024306 -0.022247
-0.135603 -0.106413 -0.072605 -0.194795
-0.145661 -0.125728 -0.081417 -0.207356
-0.012612 -0.022079 -0.010407 -0.013138
0.007040 -0.029573 -0.006760 -0.010674
-0.091470 -0.002810 -0.028284 -0.163620
0.015110 0.042755 0.017360 0.005490
0.026870 -0.022524 0.001304 0.026374
0.211271 0.095292 0.091969 0.206241
0.004515 -0.045349 -0.012250 -0.010652
0.033393 0.022694 0.016826 0.036800
-0.181883 -0.059326 -0.072363 0.089844
0.266494 0.299208 0.169711 0.320203
-0.004990 0.007499 0.000753 -0.002401
-0.195102 -0.070514 -0.079685 0.151983
-0.127155 -0.059451 -0.055982 -0.257301
0.017308 -0.006636 0.003202 0.019558
0.459969 0.406384 0.259906 -0.084801
0.338826 0.135444 0.142281 -0.128705
-0.013032 -0.016858 -0.008967 0.011567
-0.002744 -0.037814 -0.012168 -0.038703
-0.075634 -0.080390 -0.046807 -0.288220
-0.030559 -0.055847 -0.025922 -0.047903
-0.032155 -0.053886 -0.025812 0.039306
0.164649 0.038048 0.060809 0.269541
-0.005789 -0.079808 -0.025679 0.050353
0.019608 -0.020203 -0.000178 0.056460
0.047934 -0.088710 -0.012233 0.221089
-0.450335 -1.050781 -0.450335 -0.023951
-0.089240 -0.208226 -0.089240 0.008273
0.013855 -0.165404 -0.045465 0.229787
-0.100595 -0.152097 -0.075808 -0.259507
0.019428 0.013925 0.010006 -0.038785
-0.582971 -1.111828 -0.508440 -0.260384
-0.128948 -0.053036 -0.054595 -0.241592
0.036373 -0.047030 -0.003197 -0.047499
-0.032088 -0.074871 -0.032088 -0.006660
-0.093732 -0.218707 -0.093732 0.013557
-0.023514 -0.188204 -0.063515 -0.027170

