# vtk DataFile Version 2.0
Unstructured Grid Example
ASCII
DATASET UNSTRUCTURED_GRID

POINTS 256 float
0.000000 0.000000 0.000000 
0.007812 0.000000 0.000000 
0.007812 0.000000 0.000000 
0.015625 0.000000 0.000000 
0.015625 0.000000 0.000000 
0.023438 0.000000 0.000000 
0.023438 0.000000 0.000000 
0.031250 0.000000 0.000000 
0.046875 0.000000 0.000000 
0.054688 0.000000 0.000000 
0.054688 0.000000 0.000000 
0.062500 0.000000 0.000000 
0.031250 0.000000 0.000000 
0.039062 0.000000 0.000000 
0.039062 0.000000 0.000000 
0.046875 0.000000 0.000000 
0.109375 0.000000 0.000000 
0.117188 0.000000 0.000000 
0.117188 0.000000 0.000000 
0.125000 0.000000 0.000000 
0.093750 0.000000 0.000000 
0.101562 0.000000 0.000000 
0.101562 0.000000 0.000000 
0.109375 0.000000 0.000000 
0.062500 0.000000 0.000000 
0.070312 0.000000 0.000000 
0.070312 0.000000 0.000000 
0.078125 0.000000 0.000000 
0.078125 0.000000 0.000000 
0.085938 0.000000 0.000000 
0.085938 0.000000 0.000000 
0.093750 0.000000 0.000000 
0.234375 0.000000 0.000000 
0.242188 0.000000 0.000000 
0.242188 0.000000 0.000000 
0.250000 0.000000 0.000000 
0.218750 0.000000 0.000000 
0.226562 0.000000 0.000000 
0.226562 0.000000 0.000000 
0.234375 0.000000 0.000000 
0.187500 0.000000 0.000000 
0.195312 0.000000 0.000000 
0.195312 0.000000 0.000000 
0.203125 0.000000 0.000000 
0.203125 0.000000 0.000000 
0.210938 0.000000 0.000000 
0.210938 0.000000 0.000000 
0.218750 0.000000 0.000000 
0.125000 0.000000 0.000000 
0.132812 0.000000 0.000000 
0.132812 0.000000 0.000000 
0.140625 0.000000 0.000000 
0.140625 0.000000 0.000000 
0.148438 0.000000 0.000000 
0.148438 0.000000 0.000000 
0.156250 0.000000 0.000000 
0.171875 0.000000 0.000000 
0.179688 0.000000 0.000000 
0.179688 0.000000 0.000000 
0.187500 0.000000 0.000000 
0.156250 0.000000 0.000000 
0.164062 0.000000 0.000000 
0.164062 0.000000 0.000000 
0.171875 0.000000 0.000000 
0.484375 -3.167874 0.000000 
0.492188 -3.162775 0.000000 
0.492188 -3.175596 0.000000 
0.500000 -3.142233 0.000000 
0.468750 -3.181404 0.000000 
0.476562 -3.164263 0.000000 
0.476562 -3.173779 0.000000 
0.484375 -3.162372 0.000000 
0.437500 -3.232155 0.000000 
0.445312 -3.190673 0.000000 
0.445312 -3.216129 0.000000 
0.453125 -3.181245 0.000000 
0.453125 -3.202442 0.000000 
0.460938 -3.173734 0.000000 
0.460938 -3.190916 0.000000 
0.468750 -3.168078 0.000000 
0.375000 -3.484520 0.000000 
0.382812 -3.355620 0.000000 
0.382812 -3.436019 0.000000 
0.390625 -3.323722 0.000000 
0.390625 -3.393827 0.000000 
0.398438 -3.295809 0.000000 
0.398438 -3.357019 0.000000 
0.406250 -3.271407 0.000000 
0.421875 -3.272157 0.000000 
0.429688 -3.215724 0.000000 
0.429688 -3.250742 0.000000 
0.437500 -3.202121 0.000000 
0.406250 -3.324852 0.000000 
0.414062 -3.250129 0.000000 
0.414062 -3.296727 0.000000 
0.421875 -3.231655 0.000000 
0.250000 18.629677 0.000000 
0.257812 -37.259354 0.000000 
0.257812 -28.942538 0.000000 
0.265625 1.996045 0.000000 
0.265625 -10.216047 0.000000 
0.273438 -4.518353 0.000000 
0.273438 -7.287283 0.000000 
0.281250 -4.678188 0.000000 
0.296875 -4.931422 0.000000 
0.304688 -4.131365 0.000000 
0.304688 -4.604132 0.000000 
0.312500 -3.985890 0.000000 
0.281250 -6.070799 0.000000 
0.289062 -4.502062 0.000000 
0.289062 -5.385212 0.000000 
0.296875 -4.304499 0.000000 
0.359375 -3.605457 0.000000 
0.367188 -3.433812 0.000000 
0.367188 -3.540501 0.000000 
0.375000 -3.392079 0.000000 
0.343750 -3.770679 0.000000 
0.351562 -3.536840 0.000000 
0.351562 -3.681330 0.000000 
0.359375 -3.481698 0.000000 
0.312500 -4.355887 0.000000 
0.320312 -3.864137 0.000000 
0.320312 -4.161240 0.000000 
0.328125 -3.761681 0.000000 
0.328125 -4.004894 0.000000 
0.335938 -3.674815 0.000000 
0.335938 -3.876950 0.000000 
0.343750 -3.600623 0.000000 
0.500000 -3.142233 0.000000 
0.507812 -3.175596 0.000000 
0.507812 -3.162775 0.000000 
0.515625 -3.167874 0.000000 
0.515625 -3.162372 0.000000 
0.523438 -3.173779 0.000000 
0.523438 -3.164263 0.000000 
0.531250 -3.181404 0.000000 
0.546875 -3.181245 0.000000 
0.554688 -3.216129 0.000000 
0.554688 -3.190673 0.000000 
0.562500 -3.232155 0.000000 
0.531250 -3.168078 0.000000 
0.539062 -3.190916 0.000000 
0.539062 -3.173734 0.000000 
0.546875 -3.202442 0.000000 
0.609375 -3.323722 0.000000 
0.617188 -3.436019 0.000000 
0.617188 -3.355620 0.000000 
0.625000 -3.484520 0.000000 
0.593750 -3.271407 0.000000 
0.601562 -3.357019 0.000000 
0.601562 -3.295809 0.000000 
0.609375 -3.393827 0.000000 
0.562500 -3.202121 0.000000 
0.570312 -3.250742 0.000000 
0.570312 -3.215724 0.000000 
0.578125 -3.272157 0.000000 
0.578125 -3.231655 0.000000 
0.585938 -3.296727 0.000000 
0.585938 -3.250129 0.000000 
0.593750 -3.324852 0.000000 
0.734375 1.996045 0.000000 
0.742188 -28.942538 0.000000 
0.742188 -37.259354 0.000000 
0.750000 18.629677 0.000000 
0.718750 -4.678188 0.000000 
0.726562 -7.287283 0.000000 
0.726562 -4.518353 0.000000 
0.734375 -10.216047 0.000000 
0.687500 -3.985890 0.000000 
0.695312 -4.604132 0.000000 
0.695312 -4.131365 0.000000 
0.703125 -4.931422 0.000000 
0.703125 -4.304499 0.000000 
0.710938 -5.385212 0.000000 
0.710938 -4.502062 0.000000 
0.718750 -6.070799 0.000000 
0.625000 -3.392079 0.000000 
0.632812 -3.540501 0.000000 
0.632812 -3.433812 0.000000 
0.640625 -3.605457 0.000000 
0.640625 -3.481698 0.000000 
0.648438 -3.681330 0.000000 
0.648438 -3.536840 0.000000 
0.656250 -3.770679 0.000000 
0.671875 -3.761681 0.000000 
0.679688 -4.161240 0.000000 
0.679688 -3.864137 0.000000 
0.687500 -4.355887 0.000000 
0.656250 -3.600623 0.000000 
0.664062 -3.876950 0.000000 
0.664062 -3.674815 0.000000 
0.671875 -4.004894 0.000000 
0.984375 0.000000 0.000000 
0.992188 0.000000 0.000000 
0.992188 0.000000 0.000000 
1.000000 0.000000 0.000000 
0.968750 0.000000 0.000000 
0.976562 0.000000 0.000000 
0.976562 0.000000 0.000000 
0.984375 0.000000 0.000000 
0.937500 0.000000 0.000000 
0.945312 0.000000 0.000000 
0.945312 0.000000 0.000000 
0.953125 0.000000 0.000000 
0.953125 0.000000 0.000000 
0.960938 0.000000 0.000000 
0.960938 0.000000 0.000000 
0.968750 0.000000 0.000000 
0.875000 0.000000 0.000000 
0.882812 0.000000 0.000000 
0.882812 0.000000 0.000000 
0.890625 0.000000 0.000000 
0.890625 0.000000 0.000000 
0.898438 0.000000 0.000000 
0.898438 0.000000 0.000000 
0.906250 0.000000 0.000000 
0.921875 0.000000 0.000000 
0.929688 0.000000 0.000000 
0.929688 0.000000 0.000000 
0.937500 0.000000 0.000000 
0.906250 0.000000 0.000000 
0.914062 0.000000 0.000000 
0.914062 0.000000 0.000000 
0.921875 0.000000 0.000000 
0.750000 0.000000 0.000000 
0.757812 0.000000 0.000000 
0.757812 0.000000 0.000000 
0.765625 0.000000 0.000000 
0.765625 0.000000 0.000000 
0.773438 0.000000 0.000000 
0.773438 0.000000 0.000000 
0.781250 0.000000 0.000000 
0.796875 0.000000 0.000000 
0.804688 0.000000 0.000000 
0.804688 0.000000 0.000000 
0.812500 0.000000 0.000000 
0.781250 0.000000 0.000000 
0.789062 0.000000 0.000000 
0.789062 0.000000 0.000000 
0.796875 0.000000 0.000000 
0.859375 0.000000 0.000000 
0.867188 0.000000 0.000000 
0.867188 0.000000 0.000000 
0.875000 0.000000 0.000000 
0.843750 0.000000 0.000000 
0.851562 0.000000 0.000000 
0.851562 0.000000 0.000000 
0.859375 0.000000 0.000000 
0.812500 0.000000 0.000000 
0.820312 0.000000 0.000000 
0.820312 0.000000 0.000000 
0.828125 0.000000 0.000000 
0.828125 0.000000 0.000000 
0.835938 0.000000 0.000000 
0.835938 0.000000 0.000000 
0.843750 0.000000 0.000000 

CELLS 128 384
2  0 1 
2  2 3 
2  4 5 
2  6 7 
2  8 9 
2  10 11 
2  12 13 
2  14 15 
2  16 17 
2  18 19 
2  20 21 
2  22 23 
2  24 25 
2  26 27 
2  28 29 
2  30 31 
2  32 33 
2  34 35 
2  36 37 
2  38 39 
2  40 41 
2  42 43 
2  44 45 
2  46 47 
2  48 49 
2  50 51 
2  52 53 
2  54 55 
2  56 57 
2  58 59 
2  60 61 
2  62 63 
2  64 65 
2  66 67 
2  68 69 
2  70 71 
2  72 73 
2  74 75 
2  76 77 
2  78 79 
2  80 81 
2  82 83 
2  84 85 
2  86 87 
2  88 89 
2  90 91 
2  92 93 
2  94 95 
2  96 97 
2  98 99 
2  100 101 
2  102 103 
2  104 105 
2  106 107 
2  108 109 
2  110 111 
2  112 113 
2  114 115 
2  116 117 
2  118 119 
2  120 121 
2  122 123 
2  124 125 
2  126 127 
2  128 129 
2  130 131 
2  132 133 
2  134 135 
2  136 137 
2  138 139 
2  140 141 
2  142 143 
2  144 145 
2  146 147 
2  148 149 
2  150 151 
2  152 153 
2  154 155 
2  156 157 
2  158 159 
2  160 161 
2  162 163 
2  164 165 
2  166 167 
2  168 169 
2  170 171 
2  172 173 
2  174 175 
2  176 177 
2  178 179 
2  180 181 
2  182 183 
2  184 185 
2  186 187 
2  188 189 
2  190 191 
2  192 193 
2  194 195 
2  196 197 
2  198 199 
2  200 201 
2  202 203 
2  204 205 
2  206 207 
2  208 209 
2  210 211 
2  212 213 
2  214 215 
2  216 217 
2  218 219 
2  220 221 
2  222 223 
2  224 225 
2  226 227 
2  228 229 
2  230 231 
2  232 233 
2  234 235 
2  236 237 
2  238 239 
2  240 241 
2  242 243 
2  244 245 
2  246 247 
2  248 249 
2  250 251 
2  252 253 
2  254 255 

CELL_TYPES 128
3
3
3
3
3
3
3
3
3
3
3
3
3
3
3
3
3
3
3
3
3
3
3
3
3
3
3
3
3
3
3
3
3
3
3
3
3
3
3
3
3
3
3
3
3
3
3
3
3
3
3
3
3
3
3
3
3
3
3
3
3
3
3
3
3
3
3
3
3
3
3
3
3
3
3
3
3
3
3
3
3
3
3
3
3
3
3
3
3
3
3
3
3
3
3
3
3
3
3
3
3
3
3
3
3
3
3
3
3
3
3
3
3
3
3
3
3
3
3
3
3
3
3
3
3
3
3
3

POINT_DATA 256

SCALARS lambda_h float 1
LOOKUP_TABLE default
0.000000 
0.000000 
0.000000 
0.000000 
0.000000 
0.000000 
0.000000 
0.000000 
0.000000 
0.000000 
0.000000 
0.000000 
0.000000 
0.000000 
0.000000 
0.000000 
0.000000 
0.000000 
0.000000 
0.000000 
0.000000 
0.000000 
0.000000 
0.000000 
0.000000 
0.000000 
0.000000 
0.000000 
0.000000 
0.000000 
0.000000 
0.000000 
0.000000 
0.000000 
0.000000 
0.000000 
0.000000 
0.000000 
0.000000 
0.000000 
0.000000 
0.000000 
0.000000 
0.000000 
0.000000 
0.000000 
0.000000 
0.000000 
0.000000 
0.000000 
0.000000 
0.000000 
0.000000 
0.000000 
0.000000 
0.000000 
0.000000 
0.000000 
0.000000 
0.000000 
0.000000 
0.000000 
0.000000 
0.000000 
-3.167874 
-3.162775 
-3.175596 
-3.142233 
-3.181404 
-3.164263 
-3.173779 
-3.162372 
-3.232155 
-3.190673 
-3.216129 
-3.181245 
-3.202442 
-3.173734 
-3.190916 
-3.168078 
-3.484520 
-3.355620 
-3.436019 
-3.323722 
-3.393827 
-3.295809 
-3.357019 
-3.271407 
-3.272157 
-3.215724 
-3.250742 
-3.202121 
-3.324852 
-3.250129 
-3.296727 
-3.231655 
18.629677 
-37.259354 
-28.942538 
1.996045 
-10.216047 
-4.518353 
-7.287283 
-4.678188 
-4.931422 
-4.131365 
-4.604132 
-3.985890 
-6.070799 
-4.502062 
-5.385212 
-4.304499 
-3.605457 
-3.433812 
-3.540501 
-3.392079 
-3.770679 
-3.536840 
-3.681330 
-3.481698 
-4.355887 
-3.864137 
-4.161240 
-3.761681 
-4.004894 
-3.674815 
-3.876950 
-3.600623 
-3.142233 
-3.175596 
-3.162775 
-3.167874 
-3.162372 
-3.173779 
-3.164263 
-3.181404 
-3.181245 
-3.216129 
-3.190673 
-3.232155 
-3.168078 
-3.190916 
-3.173734 
-3.202442 
-3.323722 
-3.436019 
-3.355620 
-3.484520 
-3.271407 
-3.357019 
-3.295809 
-3.393827 
-3.202121 
-3.250742 
-3.215724 
-3.272157 
-3.231655 
-3.296727 
-3.250129 
-3.324852 
1.996045 
-28.942538 
-37.259354 
18.629677 
-4.678188 
-7.287283 
-4.518353 
-10.216047 
-3.985890 
-4.604132 
-4.131365 
-4.931422 
-4.304499 
-5.385212 
-4.502062 
-6.070799 
-3.392079 
-3.540501 
-3.433812 
-3.605457 
-3.481698 
-3.681330 
-3.536840 
-3.770679 
-3.761681 
-4.161240 
-3.864137 
-4.355887 
-3.600623 
-3.876950 
-3.674815 
-4.004894 
0.000000 
0.000000 
0.000000 
0.000000 
0.000000 
0.000000 
0.000000 
0.000000 
0.000000 
0.000000 
0.000000 
0.000000 
0.000000 
0.000000 
0.000000 
0.000000 
0.000000 
0.000000 
0.000000 
0.000000 
0.000000 
0.000000 
0.000000 
0.000000 
0.000000 
0.000000 
0.000000 
0.000000 
0.000000 
0.000000 
0.000000 
0.000000 
0.000000 
0.000000 
0.000000 
0.000000 
0.000000 
0.000000 
0.000000 
0.000000 
0.000000 
0.000000 
0.000000 
0.000000 
0.000000 
0.000000 
0.000000 
0.000000 
0.000000 
0.000000 
0.000000 
0.000000 
0.000000 
0.000000 
0.000000 
0.000000 
0.000000 
0.000000 
0.000000 
0.000000 
0.000000 
0.000000 
0.000000 
0.000000 

