# vtk DataFile Version 2.0
Unstructured Grid Example
ASCII
DATASET UNSTRUCTURED_GRID

POINTS 64 float
0.000000 0.000000 0.000000 
0.031250 0.000000 0.000000 
0.031250 0.000000 0.000000 
0.062500 0.000000 0.000000 
0.062500 0.000000 0.000000 
0.093750 0.000000 0.000000 
0.093750 0.000000 0.000000 
0.125000 0.000000 0.000000 
0.187500 0.000000 0.000000 
0.218750 0.000000 0.000000 
0.218750 0.000000 0.000000 
0.250000 0.000000 0.000000 
0.125000 0.000000 0.000000 
0.156250 0.000000 0.000000 
0.156250 0.000000 0.000000 
0.187500 0.000000 0.000000 
0.437500 -3.322085 0.000000 
0.468750 -3.183626 0.000000 
0.468750 -3.255243 0.000000 
0.500000 -3.178850 0.000000 
0.375000 -3.720368 0.000000 
0.406250 -3.199070 0.000000 
0.406250 -3.469740 0.000000 
0.437500 -3.179028 0.000000 
0.250000 9.727253 0.000000 
0.281250 -19.454506 0.000000 
0.281250 -14.738024 0.000000 
0.312500 0.294290 0.000000 
0.312500 -5.549609 0.000000 
0.343750 -3.050225 0.000000 
0.343750 -4.220104 0.000000 
0.375000 -3.209851 0.000000 
0.500000 -3.178850 0.000000 
0.531250 -3.255243 0.000000 
0.531250 -3.183626 0.000000 
0.562500 -3.322085 0.000000 
0.562500 -3.179028 0.000000 
0.593750 -3.469740 0.000000 
0.593750 -3.199070 0.000000 
0.625000 -3.720368 0.000000 
0.687500 0.294290 0.000000 
0.718750 -14.738024 0.000000 
0.718750 -19.454506 0.000000 
0.750000 9.727253 0.000000 
0.625000 -3.209851 0.000000 
0.656250 -4.220104 0.000000 
0.656250 -3.050225 0.000000 
0.687500 -5.549609 0.000000 
0.937500 0.000000 0.000000 
0.968750 0.000000 0.000000 
0.968750 0.000000 0.000000 
1.000000 0.000000 0.000000 
0.875000 0.000000 0.000000 
0.906250 0.000000 0.000000 
0.906250 0.000000 0.000000 
0.937500 0.000000 0.000000 
0.750000 0.000000 0.000000 
0.781250 0.000000 0.000000 
0.781250 0.000000 0.000000 
0.812500 0.000000 0.000000 
0.812500 0.000000 0.000000 
0.843750 0.000000 0.000000 
0.843750 0.000000 0.000000 
0.875000 0.000000 0.000000 

CELLS 32 96
2  0 1 
2  2 3 
2  4 5 
2  6 7 
2  8 9 
2  10 11 
2  12 13 
2  14 15 
2  16 17 
2  18 19 
2  20 21 
2  22 23 
2  24 25 
2  26 27 
2  28 29 
2  30 31 
2  32 33 
2  34 35 
2  36 37 
2  38 39 
2  40 41 
2  42 43 
2  44 45 
2  46 47 
2  48 49 
2  50 51 
2  52 53 
2  54 55 
2  56 57 
2  58 59 
2  60 61 
2  62 63 

CELL_TYPES 32
3
3
3
3
3
3
3
3
3
3
3
3
3
3
3
3
3
3
3
3
3
3
3
3
3
3
3
3
3
3
3
3

POINT_DATA 64

SCALARS lambda_h float 1
LOOKUP_TABLE default
0.000000 
0.000000 
0.000000 
0.000000 
0.000000 
0.000000 
0.000000 
0.000000 
0.000000 
0.000000 
0.000000 
0.000000 
0.000000 
0.000000 
0.000000 
0.000000 
-3.322085 
-3.183626 
-3.255243 
-3.178850 
-3.720368 
-3.199070 
-3.469740 
-3.179028 
9.727253 
-19.454506 
-14.738024 
0.294290 
-5.549609 
-3.050225 
-4.220104 
-3.209851 
-3.178850 
-3.255243 
-3.183626 
-3.322085 
-3.179028 
-3.469740 
-3.199070 
-3.720368 
0.294290 
-14.738024 
-19.454506 
9.727253 
-3.209851 
-4.220104 
-3.050225 
-5.549609 
0.000000 
0.000000 
0.000000 
0.000000 
0.000000 
0.000000 
0.000000 
0.000000 
0.000000 
0.000000 
0.000000 
0.000000 
0.000000 
0.000000 
0.000000 
0.000000 

