# vtk DataFile Version 2.0
Unstructured Grid Example
ASCII
DATASET UNSTRUCTURED_GRID

POINTS 16641 float
0.010159 -0.154700 0.000000 
0.989841 -0.154700 0.000000 
1.000000 1.000000 0.000000 
0.000000 1.000000 0.000000 
0.500000 -0.100000 0.000000 
0.980842 0.390246 0.000000 
0.500000 1.000000 0.000000 
0.019158 0.390246 0.000000 
0.500000 0.391825 0.000000 
0.264964 -0.110443 0.000000 
0.500000 0.132099 0.000000 
0.247848 0.121915 0.000000 
0.735036 -0.110443 0.000000 
0.752152 0.121915 0.000000 
0.996850 0.111166 0.000000 
0.742557 0.387751 0.000000 
0.967877 0.680443 0.000000 
0.736919 0.682957 0.000000 
0.750000 1.000000 0.000000 
0.500000 0.684552 0.000000 
0.250000 1.000000 0.000000 
0.263081 0.682957 0.000000 
0.032123 0.680443 0.000000 
0.257443 0.387751 0.000000 
0.003150 0.111166 0.000000 
0.136456 -0.145079 0.000000 
0.248000 0.000676 0.000000 
0.124905 -0.017475 0.000000 
0.500000 0.013776 0.000000 
0.375354 0.012050 0.000000 
0.379298 -0.100000 0.000000 
0.375590 0.255788 0.000000 
0.373852 0.129659 0.000000 
0.500000 0.257648 0.000000 
0.620702 -0.100000 0.000000 
0.624646 0.012050 0.000000 
0.875095 -0.017475 0.000000 
0.752000 0.000676 0.000000 
0.863544 -0.145079 0.000000 
0.626148 0.129659 0.000000 
0.624410 0.255788 0.000000 
0.996970 -0.025118 0.000000 
0.875667 0.112914 0.000000 
0.862123 0.386003 0.000000 
0.869901 0.246976 0.000000 
0.990064 0.249719 0.000000 
0.748019 0.251059 0.000000 
0.621706 0.390613 0.000000 
0.972434 0.533541 0.000000 
0.855429 0.530572 0.000000 
0.858317 0.838685 0.000000 
0.852791 0.681283 0.000000 
0.971711 0.832211 0.000000 
0.738119 0.531847 0.000000 
0.619539 0.533718 0.000000 
0.875000 1.000000 0.000000 
0.740954 0.839873 0.000000 
0.500000 0.840297 0.000000 
0.621008 0.840196 0.000000 
0.625000 1.000000 0.000000 
0.619067 0.684123 0.000000 
0.500000 0.534506 0.000000 
0.375000 1.000000 0.000000 
0.378992 0.840196 0.000000 
0.141683 0.838685 0.000000 
0.259046 0.839873 0.000000 
0.125000 1.000000 0.000000 
0.380933 0.684123 0.000000 
0.380461 0.533718 0.000000 
0.028289 0.832211 0.000000 
0.147209 0.681283 0.000000 
0.137877 0.386003 0.000000 
0.144571 0.530572 0.000000 
0.027566 0.533541 0.000000 
0.261881 0.531847 0.000000 
0.378294 0.390613 0.000000 
0.009936 0.249719 0.000000 
0.130099 0.246976 0.000000 
0.124333 0.112914 0.000000 
0.003030 -0.025118 0.000000 
0.251981 0.251059 0.000000 
0.072829 -0.150628 0.000000 
0.129376 -0.081919 0.000000 
0.067878 -0.087334 0.000000 
0.251367 -0.056220 0.000000 
0.190105 -0.072213 0.000000 
0.200980 -0.135244 0.000000 
0.184810 0.053291 0.000000 
0.185805 -0.009481 0.000000 
0.247152 0.060240 0.000000 
0.500000 -0.043611 0.000000 
0.438958 -0.043736 0.000000 
0.439510 -0.100000 0.000000 
0.437168 0.071674 0.000000 
0.437905 0.013422 0.000000 
0.500000 0.072210 0.000000 
0.319964 -0.100000 0.000000 
0.377756 -0.044279 0.000000 
0.315649 -0.046381 0.000000 
0.438411 0.323256 0.000000 
0.437755 0.257173 0.000000 
0.500000 0.323648 0.000000 
0.310693 0.126407 0.000000 
0.374481 0.191629 0.000000 
0.311861 0.188947 0.000000 
0.500000 0.193832 0.000000 
0.437231 0.193280 0.000000 
0.436979 0.131509 0.000000 
0.311868 0.008427 0.000000 
0.374026 0.069848 0.000000 
0.310505 0.066142 0.000000 
0.560490 -0.100000 0.000000 
0.561042 -0.043736 0.000000 
0.684351 -0.046381 0.000000 
0.622244 -0.044279 0.000000 
0.680036 -0.100000 0.000000 
0.562095 0.013422 0.000000 
0.562832 0.071674 0.000000 
0.932122 -0.087334 0.000000 
0.870624 -0.081919 0.000000 
0.927171 -0.150628 0.000000 
0.752848 0.060240 0.000000 
0.814195 -0.009481 0.000000 
0.815190 0.053291 0.000000 
0.799020 -0.135244 0.000000 
0.809895 -0.072213 0.000000 
0.748633 -0.056220 0.000000 
0.562245 0.257173 0.000000 
0.561589 0.323256 0.000000 
0.563021 0.131509 0.000000 
0.562769 0.193280 0.000000 
0.688139 0.188947 0.000000 
0.625519 0.191629 0.000000 
0.689307 0.126407 0.000000 
0.688132 0.008427 0.000000 
0.689495 0.066142 0.000000 
0.625974 0.069848 0.000000 
0.993828 -0.091109 0.000000 
0.935988 -0.022345 0.000000 
0.936487 0.110705 0.000000 
0.937402 0.043756 0.000000 
0.998004 0.042582 0.000000 
0.876517 0.047402 0.000000 
0.814293 0.117003 0.000000 
0.921526 0.386993 0.000000 
0.925905 0.316532 0.000000 
0.985533 0.319682 0.000000 
0.805872 0.316724 0.000000 
0.866054 0.315828 0.000000 
0.802496 0.386481 0.000000 
0.994007 0.180237 0.000000 
0.930158 0.247045 0.000000 
0.933861 0.178457 0.000000 
0.623073 0.322128 0.000000 
0.560910 0.391523 0.000000 
0.750415 0.185536 0.000000 
0.686382 0.253640 0.000000 
0.682282 0.389264 0.000000 
0.684344 0.320428 0.000000 
0.745300 0.318468 0.000000 
0.873266 0.179374 0.000000 
0.809204 0.248593 0.000000 
0.812143 0.182046 0.000000 
0.976356 0.461488 0.000000 
0.917394 0.458513 0.000000 
0.911312 0.605131 0.000000 
0.913861 0.531187 0.000000 
0.969455 0.606490 0.000000 
0.858467 0.457561 0.000000 
0.799402 0.457889 0.000000 
0.924031 0.917979 0.000000 
0.915327 0.836600 0.000000 
0.979807 0.911321 0.000000 
0.795102 0.682163 0.000000 
0.854210 0.759157 0.000000 
0.796575 0.760176 0.000000 
0.968318 0.755568 0.000000 
0.911234 0.757540 0.000000 
0.910221 0.680503 0.000000 
0.620477 0.461177 0.000000 
0.560299 0.461908 0.000000 
0.740073 0.458888 0.000000 
0.680426 0.460096 0.000000 
0.678192 0.607406 0.000000 
0.678993 0.532846 0.000000 
0.736974 0.606571 0.000000 
0.853386 0.605115 0.000000 
0.795347 0.605731 0.000000 
0.796905 0.530968 0.000000 
0.937500 1.000000 0.000000 
0.865563 0.919357 0.000000 
0.745042 0.919716 0.000000 
0.805640 0.919652 0.000000 
0.812500 1.000000 0.000000 
0.800096 0.839511 0.000000 
0.738203 0.760823 0.000000 
0.500000 0.919741 0.000000 
0.561450 0.919738 0.000000 
0.562500 1.000000 0.000000 
0.559939 0.761764 0.000000 
0.560567 0.840270 0.000000 
0.500000 0.761829 0.000000 
0.687500 1.000000 0.000000 
0.622828 0.919734 0.000000 
0.684057 0.919730 0.000000 
0.559836 0.534301 0.000000 
0.500000 0.462164 0.000000 
0.678213 0.683619 0.000000 
0.619031 0.608094 0.000000 
0.500000 0.608701 0.000000 
0.559589 0.608544 0.000000 
0.559612 0.684441 0.000000 
0.681189 0.840071 0.000000 
0.619724 0.761576 0.000000 
0.679199 0.761267 0.000000 
0.437500 1.000000 0.000000 
0.438550 0.919738 0.000000 
0.315943 0.919730 0.000000 
0.377172 0.919734 0.000000 
0.312500 1.000000 0.000000 
0.439433 0.840270 0.000000 
0.440061 0.761764 0.000000 
0.075969 0.917979 0.000000 
0.134437 0.919357 0.000000 
0.062500 1.000000 0.000000 
0.261797 0.760823 0.000000 
0.199904 0.839511 0.000000 
0.203425 0.760176 0.000000 
0.187500 1.000000 0.000000 
0.194360 0.919652 0.000000 
0.254958 0.919716 0.000000 
0.440164 0.534301 0.000000 
0.439701 0.461908 0.000000 
0.440388 0.684441 0.000000 
0.440411 0.608544 0.000000 
0.321808 0.607406 0.000000 
0.380969 0.608094 0.000000 
0.321787 0.683619 0.000000 
0.318811 0.840071 0.000000 
0.320801 0.761267 0.000000 
0.380276 0.761576 0.000000 
0.020193 0.911321 0.000000 
0.084673 0.836600 0.000000 
0.089779 0.680503 0.000000 
0.088766 0.757540 0.000000 
0.031682 0.755568 0.000000 
0.145790 0.759157 0.000000 
0.204898 0.682163 0.000000 
0.078474 0.386993 0.000000 
0.082606 0.458513 0.000000 
0.023644 0.461488 0.000000 
0.200598 0.457889 0.000000 
0.141533 0.457561 0.000000 
0.197504 0.386481 0.000000 
0.030545 0.606490 0.000000 
0.086139 0.531187 0.000000 
0.088688 0.605131 0.000000 
0.379523 0.461177 0.000000 
0.439090 0.391523 0.000000 
0.263026 0.606571 0.000000 
0.321007 0.532846 0.000000 
0.317718 0.389264 0.000000 
0.319574 0.460096 0.000000 
0.259927 0.458888 0.000000 
0.146614 0.605115 0.000000 
0.203095 0.530968 0.000000 
0.204653 0.605731 0.000000 
0.014467 0.319682 0.000000 
0.074095 0.316532 0.000000 
0.066139 0.178457 0.000000 
0.069842 0.247045 0.000000 
0.005993 0.180237 0.000000 
0.133946 0.315828 0.000000 
0.194128 0.316724 0.000000 
0.064012 -0.022345 0.000000 
0.006172 -0.091109 0.000000 
0.185707 0.117003 0.000000 
0.123483 0.047402 0.000000 
0.001996 0.042582 0.000000 
0.062598 0.043756 0.000000 
0.063513 0.110705 0.000000 
0.376927 0.322128 0.000000 
0.254700 0.318468 0.000000 
0.315656 0.320428 0.000000 
0.313618 0.253640 0.000000 
0.249585 0.185536 0.000000 
0.126734 0.179374 0.000000 
0.187857 0.182046 0.000000 
0.190796 0.248593 0.000000 
0.041405 -0.152709 0.000000 
0.070392 -0.119231 0.000000 
0.039248 -0.121245 0.000000 
0.132770 -0.113776 0.000000 
0.101585 -0.116848 0.000000 
0.104513 -0.148186 0.000000 
0.096260 -0.052745 0.000000 
0.098691 -0.084985 0.000000 
0.126724 -0.049765 0.000000 
0.254993 -0.083234 0.000000 
0.224733 -0.095471 0.000000 
0.233432 -0.126793 0.000000 
0.217966 -0.034633 0.000000 
0.220333 -0.064809 0.000000 
0.249258 -0.028172 0.000000 
0.168626 -0.140946 0.000000 
0.194571 -0.103882 0.000000 
0.163832 -0.109641 0.000000 
0.216083 0.087900 0.000000 
0.215828 0.056761 0.000000 
0.247343 0.090828 0.000000 
0.155301 -0.013893 0.000000 
0.185016 0.021828 0.000000 
0.154355 0.018060 0.000000 
0.247342 0.030174 0.000000 
0.215980 0.025994 0.000000 
0.216637 -0.004440 0.000000 
0.159858 -0.077797 0.000000 
0.187380 -0.040769 0.000000 
0.157064 -0.045834 0.000000 
0.500000 -0.071952 0.000000 
0.469671 -0.071962 0.000000 
0.469739 -0.100000 0.000000 
0.469235 -0.015087 0.000000 
0.469485 -0.043640 0.000000 
0.500000 -0.015032 0.000000 
0.409346 -0.100000 0.000000 
0.439359 -0.071999 0.000000 
0.409081 -0.072072 0.000000 
0.468519 0.101802 0.000000 
0.468606 0.072079 0.000000 
0.500000 0.101945 0.000000 
0.406720 0.012912 0.000000 
0.437470 0.042380 0.000000 
0.406075 0.041741 0.000000 
0.500000 0.042839 0.000000 
0.468761 0.042728 0.000000 
0.468979 0.013691 0.000000 
0.291394 -0.100000 0.000000 
0.318397 -0.073036 0.000000 
0.287424 -0.074952 0.000000 
0.378851 -0.072205 0.000000 
0.348661 -0.072459 0.000000 
0.349448 -0.100000 0.000000 
0.345139 -0.017345 0.000000 
0.346920 -0.044954 0.000000 
0.376478 -0.016238 0.000000 
0.438431 -0.015266 0.000000 
0.407537 -0.015615 0.000000 
0.408398 -0.043927 0.000000 
0.469369 0.357383 0.000000 
[...]
POINT_DATA 16641

SCALARS u_h float 2
LOOKUP_TABLE default
0.010159 -0.154700 
-0.010159 -0.154700 
0.000000 0.000000 
0.000000 0.000000 
0.000000 -0.100000 
-0.019158 -0.109754 
0.000000 0.000000 
0.019158 -0.109754 
-0.000000 -0.108175 
0.014964 -0.110443 
0.000000 -0.117901 
-0.002152 -0.128085 
-0.014964 -0.110443 
0.002152 -0.128085 
-0.003150 -0.138834 
-0.007443 -0.112249 
-0.032123 -0.069557 
-0.013081 -0.067043 
0.000000 0.000000 
-0.000000 -0.065448 
0.000000 0.000000 
0.013081 -0.067043 
0.032123 -0.069557 
0.007443 -0.112249 
0.003150 -0.138834 
0.011456 -0.145079 
-0.002000 -0.124324 
-0.000095 -0.142475 
0.000000 -0.111224 
0.000354 -0.112950 
0.004298 -0.100000 
0.000590 -0.119212 
-0.001148 -0.120341 
-0.000000 -0.117352 
-0.004298 -0.100000 
-0.000354 -0.112950 
0.000095 -0.142475 
0.002000 -0.124324 
-0.011456 -0.145079 
0.001148 -0.120341 
-0.000590 -0.119212 
-0.003030 -0.150118 
0.000667 -0.137086 
-0.012877 -0.113997 
-0.005099 -0.128024 
-0.009936 -0.125281 
-0.001981 -0.123941 
-0.003294 -0.109387 
-0.027566 -0.091459 
-0.019571 -0.094428 
-0.016683 -0.036315 
-0.022209 -0.068717 
-0.028289 -0.042789 
-0.011881 -0.093153 
-0.005461 -0.091282 
0.000000 0.000000 
-0.009046 -0.035127 
-0.000000 -0.034703 
-0.003992 -0.034804 
0.000000 0.000000 
-0.005933 -0.065877 
-0.000000 -0.090494 
0.000000 0.000000 
0.003992 -0.034804 
0.016683 -0.036315 
0.009046 -0.035127 
0.000000 0.000000 
0.005933 -0.065877 
0.005461 -0.091282 
0.028289 -0.042789 
0.022209 -0.068717 
0.012877 -0.113997 
0.019571 -0.094428 
0.027566 -0.091459 
0.011881 -0.093153 
0.003294 -0.109387 
0.009936 -0.125281 
0.005099 -0.128024 
-0.000667 -0.137086 
0.003030 -0.150118 
0.001981 -0.123941 
0.010329 -0.150628 
0.004376 -0.144419 
0.005378 -0.149834 
0.001367 -0.118720 
0.002605 -0.134713 
0.013480 -0.135244 
-0.002690 -0.134209 
-0.001695 -0.134481 
-0.002848 -0.127260 
0.000000 -0.106111 
0.001458 -0.106236 
0.002010 -0.100000 
-0.000332 -0.115826 
0.000405 -0.111578 
0.000000 -0.115290 
0.007464 -0.100000 
0.002756 -0.106779 
0.003149 -0.108881 
0.000911 -0.114244 
0.000255 -0.117827 
-0.000000 -0.113852 
-0.001807 -0.123593 
-0.000519 -0.120871 
-0.000639 -0.123553 
-0.000000 -0.118668 
-0.000269 -0.119220 
-0.000521 -0.118491 
-0.000632 -0.116573 
-0.000974 -0.117652 
-0.001995 -0.121358 
-0.002010 -0.100000 
-0.001458 -0.106236 
-0.003149 -0.108881 
-0.002756 -0.106779 
-0.007464 -0.100000 
-0.000405 -0.111578 
0.000332 -0.115826 
-0.005378 -0.149834 
-0.004376 -0.144419 
-0.010329 -0.150628 
0.002848 -0.127260 
0.001695 -0.134481 
0.002690 -0.134209 
-0.013480 -0.135244 
-0.002605 -0.134713 
-0.001367 -0.118720 
-0.000255 -0.117827 
-0.000911 -0.114244 
0.000521 -0.118491 
0.000269 -0.119220 
0.000639 -0.123553 
0.000519 -0.120871 
0.001807 -0.123593 
0.000632 -0.116573 
0.001995 -0.121358 
0.000974 -0.117652 
-0.006172 -0.153609 
-0.001512 -0.147345 
-0.001013 -0.139295 
-0.000098 -0.143744 
-0.001996 -0.144918 
0.001517 -0.140098 
0.001793 -0.132997 
-0.015974 -0.113007 
-0.011595 -0.120968 
-0.014467 -0.117818 
-0.006628 -0.120776 
-0.008946 -0.121672 
-0.010004 -0.113519 
-0.005993 -0.132263 
-0.007342 -0.127955 
-0.003639 -0.134043 
-0.001927 -0.115372 
-0.001590 -0.108477 
0.000415 -0.126964 
-0.001118 -0.121360 
-0.005218 -0.110736 
-0.003156 -0.117072 
-0.004700 -0.119032 
-0.001734 -0.133126 
-0.003296 -0.126407 
-0.000357 -0.130454 
-0.023644 -0.101012 
-0.020106 -0.103987 
-0.026188 -0.082369 
-0.023639 -0.093813 
-0.030545 -0.081010 
-0.016533 -0.104939 
-0.013098 -0.104611 
-0.013469 -0.019521 
-0.022173 -0.038400 
-0.020193 -0.026179 
-0.017398 -0.067837 
-0.020790 -0.053343 
-0.015925 -0.052324 
-0.031682 -0.056932 
-0.026266 -0.054960 
-0.027279 -0.069497 
-0.004523 -0.101323 
-0.002201 -0.100592 
-0.009927 -0.103612 
-0.007074 -0.102404 
-0.009308 -0.080094 
-0.008507 -0.092154 
-0.013026 -0.080929 
-0.021614 -0.082385 
-0.017153 -0.081769 
-0.015595 -0.094032 
0.000000 0.000000 
-0.009437 -0.018143 
-0.004958 -0.017784 
-0.006860 -0.017848 
0.000000 0.000000 
-0.012404 -0.035489 
-0.011797 -0.051677 
-0.000000 -0.017759 
-0.001050 -0.017762 
0.000000 0.000000 
-0.002561 -0.050736 
-0.001933 -0.034730 
-0.000000 -0.050671 
0.000000 0.000000 
-0.002172 -0.017766 
-0.003443 -0.017770 
-0.002664 -0.090699 
-0.000000 -0.100336 
-0.009287 -0.066381 
-0.005969 -0.079406 
-0.000000 -0.078799 
-0.002911 -0.078956 
-0.002888 -0.065559 
-0.006311 -0.034929 
-0.005276 -0.050924 
-0.008301 -0.051233 
0.000000 0.000000 
0.001050 -0.017762 
0.003443 -0.017770 
0.002172 -0.017766 
0.000000 0.000000 
0.001933 -0.034730 
0.002561 -0.050736 
0.013469 -0.019521 
0.009437 -0.018143 
0.000000 0.000000 
0.011797 -0.051677 
0.012404 -0.035489 
0.015925 -0.052324 
0.000000 0.000000 
0.006860 -0.017848 
0.004958 -0.017784 
0.002664 -0.090699 
0.002201 -0.100592 
0.002888 -0.065559 
0.002911 -0.078956 
0.009308 -0.080094 
0.005969 -0.079406 
0.009287 -0.066381 
0.006311 -0.034929 
0.008301 -0.051233 
0.005276 -0.050924 
0.020193 -0.026179 
0.022173 -0.038400 
0.027279 -0.069497 
0.026266 -0.054960 
0.031682 -0.056932 
0.020790 -0.053343 
0.017398 -0.067837 
0.015974 -0.113007 
0.020106 -0.103987 
0.023644 -0.101012 
0.013098 -0.104611 
0.016533 -0.104939 
0.010004 -0.113519 
0.030545 -0.081010 
0.023639 -0.093813 
0.026188 -0.082369 
0.004523 -0.101323 
0.001590 -0.108477 
0.013026 -0.080929 
0.008507 -0.092154 
0.005218 -0.110736 
0.007074 -0.102404 
0.009927 -0.103612 
0.021614 -0.082385 
0.015595 -0.094032 
0.017153 -0.081769 
0.014467 -0.117818 
0.011595 -0.120968 
0.003639 -0.134043 
0.007342 -0.127955 
0.005993 -0.132263 
0.008946 -0.121672 
0.006628 -0.120776 
0.001512 -0.147345 
0.006172 -0.153609 
-0.001793 -0.132997 
-0.001517 -0.140098 
0.001996 -0.144918 
0.000098 -0.143744 
0.001013 -0.139295 
0.001927 -0.115372 
0.004700 -0.119032 
0.003156 -0.117072 
0.001118 -0.121360 
-0.000415 -0.126964 
0.001734 -0.133126 
0.000357 -0.130454 
0.003296 -0.126407 
0.010155 -0.152709 
0.007892 -0.150481 
0.007998 -0.152495 
0.007770 -0.145026 
0.007835 -0.148098 
0.010763 -0.148186 
0.002510 -0.146495 
0.004941 -0.147485 
0.001724 -0.143515 
0.004993 -0.114484 
0.005983 -0.126721 
0.014682 -0.126793 
-0.000784 -0.128383 
0.001583 -0.127309 
-0.000742 -0.121922 
0.012376 -0.140946 
0.007071 -0.135132 
0.007582 -0.140891 
-0.002667 -0.130850 
-0.002922 -0.130739 
-0.002657 -0.127922 
-0.000949 -0.138893 
-0.002484 -0.134422 
-0.001895 -0.138190 
-0.002658 -0.126076 
-0.002770 -0.130256 
-0.002113 -0.129440 
0.003608 -0.140297 
-0.000120 -0.134519 
0.000814 -0.139584 
0.000000 -0.103202 
0.000921 -0.103212 
0.000989 -0.100000 
0.000485 -0.108837 
0.000735 -0.106140 
0.000000 -0.108782 
0.003096 -0.100000 
0.001859 -0.103249 
0.002831 -0.103322 
-0.000231 -0.116948 
-0.000144 -0.115421 
0.000000 -0.116805 
0.000470 -0.112088 
-0.000030 -0.113870 
-0.000175 -0.114509 
0.000000 -0.113411 
0.000011 -0.113522 
0.000229 -0.111309 
0.010144 -0.100000 
0.005897 -0.104286 
0.006174 -0.106202 
0.003851 -0.103455 
0.004911 -0.103709 
0.005698 -0.100000 
0.001389 -0.111095 
0.003170 -0.107454 
0.001478 -0.109988 
0.000931 -0.109016 
0.001287 -0.109365 
0.002148 -0.106427 
0.000619 -0.111367 
0.000449 -0.113951 
-0.000000 -0.111280 
0.000406 -0.118412 
0.000574 -0.116310 
0.000890 -0.116841 
-0.000000 -0.115877 
0.000281 -0.115986 
0.000123 -0.117471 
-0.002048 -0.125719 
-0.001318 -0.123848 
-0.001416 -0.125721 
-0.000912 -0.120879 
-0.001137 -0.122219 
-0.001490 -0.121789 
0.000059 -0.121422 
-0.000607 -0.122095 
-0.000007 -0.120316 
0.000000 -0.118534 
-0.000216 -0.118678 
-0.000251 -0.118048 
-0.000019 -0.118409 
-0.000135 -0.118806 
-0.000000 -0.118279 
-0.000819 -0.119248 
-0.000439 -0.119113 
-0.000673 -0.119844 
-0.000032 -0.119434 
-0.000401 -0.119909 
-0.000032 -0.118795 
0.002378 -0.112140 
-0.000007 -0.114354 
0.000897 -0.113092 
0.000031 -0.116579 
-0.001400 -0.119884 
-0.000491 -0.117383 
-0.001184 -0.119262 
-0.000806 -0.118140 
-0.000600 -0.116546 
-0.000471 -0.115533 
-0.002429 -0.125176 
-0.002192 -0.122328 
-0.002502 -0.124063 
-0.002053 -0.122772 
-0.001614 -0.120796 
-0.000940 -0.117081 
-0.001453 -0.119229 
-0.001554 -0.119310 
-0.000989 -0.100000 
-0.000921 -0.103212 
-0.002831 -0.103322 
-0.001859 -0.103249 
-0.003096 -0.100000 
-0.000735 -0.106140 
-0.000485 -0.108837 
-0.006174 -0.106202 
-0.005897 -0.104286 
-0.010144 -0.100000 
-0.001478 -0.109988 
-0.003170 -0.107454 
-0.001389 -0.111095 
-0.005698 -0.100000 
-0.004911 -0.103709 
-0.003851 -0.103455 
0.000144 -0.115421 
0.000231 -0.116948 
-0.000229 -0.111309 
-0.000011 -0.113522 
0.000175 -0.114509 
0.000030 -0.113870 
-0.000470 -0.112088 
-0.002148 -0.106427 
-0.001287 -0.109365 
-0.000931 -0.109016 
-0.007998 -0.152495 
-0.007892 -0.150481 
-0.010155 -0.152709 
-0.001724 -0.143515 
-0.004941 -0.147485 
-0.002510 -0.146495 
-0.010763 -0.148186 
-0.007835 -0.148098 
-0.007770 -0.145026 
0.002657 -0.127922 
0.002922 -0.130739 
0.002667 -0.130850 
0.002113 -0.129440 
0.002770 -0.130256 
0.002658 -0.126076 
0.001895 -0.138190 
0.002484 -0.134422 
0.000949 -0.138893 
-0.014682 -0.126793 
-0.005983 -0.126721 
-0.004993 -0.114484 
-0.007582 -0.140891 
-0.007071 -0.135132 
-0.012376 -0.140946 
0.000742 -0.121922 
-0.001583 -0.127309 
0.000784 -0.128383 
-0.000814 -0.139584 
0.000120 -0.134519 
-0.003608 -0.140297 
-0.000449 -0.113951 
-0.000619 -0.111367 
-0.000123 -0.117471 
-0.000281 -0.115986 
-0.000890 -0.116841 
-0.000574 -0.116310 
-0.000406 -0.118412 
0.000251 -0.118048 
0.000216 -0.118678 
0.000673 -0.119844 
0.000439 -0.119113 
0.000819 -0.119248 
0.000135 -0.118806 
0.000019 -0.118409 
0.001416 -0.125721 
0.001318 -0.123848 
0.002048 -0.125719 
0.000007 -0.120316 
0.000607 -0.122095 
-0.000059 -0.121422 
0.001490 -0.121789 
0.001137 -0.122219 
0.000912 -0.120879 
0.000032 -0.118795 
0.000401 -0.119909 
0.000032 -0.119434 
-0.002378 -0.112140 
0.001400 -0.119884 
-0.000031 -0.116579 
-0.000897 -0.113092 
0.000007 -0.114354 
0.002429 -0.125176 
0.001614 -0.120796 
0.002053 -0.122772 
0.002502 -0.124063 
0.002192 -0.122328 
0.000491 -0.117383 
0.000471 -0.115533 
0.000600 -0.116546 
0.000806 -0.118140 
0.001184 -0.119262 
0.001554 -0.119310 
0.001453 -0.119229 
0.000940 -0.117081 
-0.008171 -0.154444 
-0.005766 -0.151769 
-0.002247 -0.148910 
-0.003772 -0.150552 
-0.004387 -0.152140 
-0.003175 -0.148759 
-0.000740 -0.145252 
-0.002019 -0.139450 
-0.001250 -0.142144 
-0.002325 -0.141952 
0.000561 -0.140450 
-0.000300 -0.141620 
-0.000117 -0.138477 
-0.002222 -0.147671 
-0.000992 -0.144646 
-0.001312 -0.146918 
0.002431 -0.133752 
0.002075 -0.130564 
0.001140 -0.141344 
0.002193 -0.137392 
0.001314 -0.135220 
0.001968 -0.136422 
0.001328 -0.138693 
-0.000485 -0.145659 
0.000738 -0.142226 
0.000330 -0.143824 
-0.017566 -0.111718 
-0.015294 -0.115840 
-0.016817 -0.113870 
-0.012330 -0.117800 
-0.013793 -0.117114 
-0.014405 -0.113733 
-0.012156 -0.121616 
-0.013012 -0.119754 
-0.010764 -0.123472 
-0.007163 -0.116677 
-0.008331 -0.117352 
-0.008681 -0.112946 
-0.006988 -0.125009 
-0.007741 -0.121374 
-0.005909 -0.124555 
-0.011405 -0.113897 
-0.009587 -0.117823 
-0.010924 -0.118004 
-0.004398 -0.135600 
-0.004762 -0.133554 
-0.003216 -0.136583 
-0.008602 -0.127005 
-0.006581 -0.130363 
-0.007861 -0.128826 
-0.004304 -0.131188 
-0.005391 -0.131107 
-0.006170 -0.128256 
-0.010235 -0.121571 
-0.008165 -0.125053 
-0.009428 -0.124578 
-0.001253 -0.111630 
-0.000788 -0.108241 
-0.001243 -0.117563 
-0.001399 -0.114723 
-0.002421 -0.108865 
-0.001915 -0.112062 
-0.002618 -0.112644 
0.001388 -0.127764 
0.000585 -0.125200 
-0.001499 -0.122625 
-0.000401 -0.124166 
-0.000723 -0.125689 
-0.000187 -0.122721 
-0.000821 -0.120206 
-0.006289 -0.111494 
-0.005100 -0.115014 
-0.006086 -0.115874 
-0.003375 -0.113353 
-0.004199 -0.114157 
-0.004223 -0.110020 
-0.003320 -0.121722 
-0.003883 -0.118046 
-0.002672 -0.120584 
-0.001648 -0.118453 
-0.002119 -0.119475 
-0.002508 -0.116167 
-0.002154 -0.136770 
-0.003328 -0.130726 
-0.002627 -0.133861 
-0.001206 -0.136286 
-0.000379 -0.135239 
-0.005614 -0.119967 
-0.002578 -0.125231 
-0.004073 -0.122818 
-0.004936 -0.123792 
-0.004138 -0.127372 
0.001203 -0.129868 
0.000311 -0.133740 
0.000843 -0.131906 
0.000105 -0.128752 
-0.001171 -0.127208 
-0.002475 -0.129834 
-0.001754 -0.128625 
-0.000973 -0.131952 
-0.021450 -0.105480 
-0.019779 -0.107377 
-0.023858 -0.097984 
-0.021891 -0.102803 
-0.025698 -0.096342 
-0.018093 -0.108635 
-0.016413 -0.109358 
-0.029303 -0.075967 
-0.028415 -0.081916 
-0.031543 -0.075417 
-0.021608 -0.094288 
-0.025063 -0.088258 
-0.022908 -0.088575 
-0.029199 -0.086352 
-0.027172 -0.087556 
-0.025635 -0.092907 
-0.011606 -0.109273 
-0.010130 -0.108775 
-0.014760 -0.109645 
-0.013153 -0.109589 
-0.016272 -0.099806 
-0.014789 -0.104894 
-0.018152 -0.099870 
-0.021970 -0.099051 
-0.020059 -0.099647 
-0.018313 -0.104666 
-0.009147 -0.010855 
-0.016550 -0.021691 
-0.013084 -0.015920 
-0.019273 -0.037122 
-0.018512 -0.029239 
-0.015748 -0.027987 
-0.025004 -0.034908 
-0.021715 -0.031459 
-0.025270 -0.040299 
-0.015172 -0.067425 
-0.016900 -0.060267 
-0.014682 -0.059872 
-0.021792 -0.061246 
-0.019275 -0.060722 
-0.019750 -0.068272 
-0.016656 -0.044450 
-0.018264 -0.052772 
-0.019115 -0.045021 
-0.032203 -0.063406 
-0.029715 -0.063030 
-0.029765 -0.069682 
-0.027626 -0.048419 
-0.029047 -0.055964 
-0.030434 -0.050085 
-0.024737 -0.069143 
-0.027086 -0.062455 
-0.024417 -0.061834 
-0.021807 -0.045833 
-0.023479 -0.054070 
-0.024686 -0.046959 
-0.001910 -0.104793 
-0.000948 -0.104581 
-0.003936 -0.105609 
-0.002901 -0.105141 
-0.003723 -0.096167 
-0.003340 -0.100904 
-0.005037 -0.096542 
-0.008734 -0.108161 
-0.007420 -0.107491 
-0.009381 -0.098060 
-0.008461 -0.103010 
-0.010988 -0.098607 
-0.006186 -0.106815 
-0.005028 -0.106176 
-0.011252 -0.073793 
-0.011116 -0.080500 
-0.013207 -0.074185 
-0.006946 -0.091690 
-0.008999 -0.086342 
-0.007348 -0.085926 
-0.012572 -0.087256 
-0.010739 -0.086792 
-0.010150 -0.092651 
-0.005765 -0.101831 
-0.007857 -0.097513 
-0.006412 -0.096998 
-0.026950 -0.076124 
-0.022125 -0.075760 
-0.024539 -0.076022 
-0.023906 -0.082492 
-0.020743 -0.088604 
-0.015278 -0.074595 
-0.014499 -0.087707 
-0.015040 -0.081360 
-0.017465 -0.075009 
-0.019755 -0.075407 
-0.011475 -0.104164 
-0.017559 -0.094319 
-0.014442 -0.099532 
-0.012676 -0.099114 
-0.013698 -0.093627 
-0.019352 -0.082125 
-0.016514 -0.088111 
-0.018602 -0.088428 
0.000000 0.000000 
-0.007021 -0.009565 
-0.004845 -0.008998 
-0.005753 -0.009153 
0.000000 0.000000 
-0.011182 -0.018571 
-0.013445 -0.027308 
-0.002549 -0.008932 
-0.003006 -0.008924 
0.000000 0.000000 
-0.008420 -0.026606 
-0.005848 -0.017804 
-0.007147 -0.026529 
0.000000 0.000000 
-0.003525 -0.008923 
-0.004126 -0.008940 
-0.013773 -0.051967 
-0.012619 -0.059529 
-0.014406 -0.035810 
-0.014432 -0.044046 
-0.010605 -0.043527 
-0.012424 -0.043751 
-0.010631 -0.035276 
-0.008035 -0.017943 
-0.009859 -0.026729 
-0.011512 -0.026937 
-0.000000 -0.008975 
-0.000267 -0.008975 
0.000000 0.000000 
-0.000753 -0.026345 
-0.000521 -0.017760 
-0.000000 -0.026341 
0.000000 0.000000 
-0.000539 -0.008973 
-0.000820 -0.008970 
-0.001372 -0.058246 
-0.001271 -0.050688 
-0.000000 -0.058223 
-0.002939 -0.034761 
-0.002283 -0.042866 
-0.003469 -0.042920 
-0.000000 -0.042821 
-0.001133 -0.042833 
-0.000959 -0.034710 
0.000000 0.000000 
-0.001769 -0.008951 
-0.002140 -0.008942 
-0.001116 -0.008965 
-0.001430 -0.008959 
0.000000 0.000000 
-0.004022 -0.026409 
-0.002784 -0.017768 
-0.003140 -0.026386 
-0.001519 -0.026354 
-0.002310 -0.026367 
-0.001597 -0.017764 
-0.001093 -0.100400 
-0.000000 -0.104511 
-0.004038 -0.090948 
-0.002455 -0.095887 
-0.000000 -0.095657 
-0.001220 -0.095716 
-0.001323 -0.090546 
-0.011122 -0.066694 
-0.009411 -0.073432 
-0.006025 -0.072834 
-0.007673 -0.073110 
-0.007563 -0.066107 
-0.007596 -0.079725 
-0.005776 -0.085563 
-0.000000 -0.072317 
-0.001458 -0.072351 
-0.001434 -0.065477 
-0.001400 -0.084913 
-0.001446 -0.078839 
-0.000000 -0.084867 
-0.004381 -0.065693 
-0.002936 -0.072451 
-0.004452 -0.072613 
-0.004271 -0.085267 
-0.004413 -0.079147 
-0.002818 -0.085047 
-0.004163 -0.017775 
-0.005110 -0.034860 
-0.004971 -0.026439 
-0.006006 -0.026477 
-0.007615 -0.035016 
-0.002763 -0.058311 
-0.005684 -0.058563 
-0.004194 -0.058417 
-0.003890 -0.050815 
-0.004709 -0.042994 
-0.010703 -0.059230 
-0.008948 -0.043350 
-0.009980 -0.051436 
-0.008920 -0.058970 
-0.007254 -0.058748 
-0.006022 -0.043089 
-0.006740 -0.051063 
-0.007428 -0.043207 
0.000000 0.000000 
0.000267 -0.008975 
0.000820 -0.008970 
0.000539 -0.008973 
0.000000 0.000000 
0.000521 -0.017760 
0.000753 -0.026345 
0.002140 -0.008942 
0.001769 -0.008951 
0.000000 0.000000 
0.003140 -0.026386 
0.002784 -0.017768 
0.004022 -0.026409 
0.000000 0.000000 
0.001430 -0.008959 
0.001116 -0.008965 
0.001271 -0.050688 
0.001372 -0.058246 
0.000959 -0.034710 
0.001133 -0.042833 
0.003469 -0.042920 
0.002283 -0.042866 
0.002939 -0.034761 
0.001597 -0.017764 
0.002310 -0.026367 
0.001519 -0.026354 
0.009147 -0.010855 
0.007021 -0.009565 
0.000000 0.000000 
0.013445 -0.027308 
0.011182 -0.018571 
0.015748 -0.027987 
0.000000 0.000000 
0.005753 -0.009153 
0.004845 -0.008998 
0.012619 -0.059529 
0.013773 -0.051967 
0.014682 -0.059872 
0.010631 -0.035276 
0.012424 -0.043751 
0.010605 -0.043527 
0.016656 -0.044450 
0.014432 -0.044046 
0.014406 -0.035810 
0.000000 0.000000 
0.003006 -0.008924 
0.002549 -0.008932 
0.004126 -0.008940 
0.003525 -0.008923 
0.000000 0.000000 
0.007147 -0.026529 
0.005848 -0.017804 
0.008420 -0.026606 
0.011512 -0.026937 
0.009859 -0.026729 
0.008035 -0.017943 
0.001093 -0.100400 
0.000948 -0.104581 
0.001323 -0.090546 
0.001220 -0.095716 
0.003723 -0.096167 
0.002455 -0.095887 
0.004038 -0.090948 
0.001434 -0.065477 
0.001458 -0.072351 
0.004452 -0.072613 
0.002936 -0.072451 
0.004381 -0.065693 
0.001446 -0.078839 
0.001400 -0.084913 
0.011252 -0.073793 
0.009411 -0.073432 
0.011122 -0.066694 
0.005776 -0.085563 
0.007596 -0.079725 
0.007348 -0.085926 
0.007563 -0.066107 
0.007673 -0.073110 
0.006025 -0.072834 
0.002818 -0.085047 
0.004413 -0.079147 
0.004271 -0.085267 
0.004163 -0.017775 
0.007615 -0.035016 
0.006006 -0.026477 
0.004971 -0.026439 
0.005110 -0.034860 
0.010703 -0.059230 
0.007254 -0.058748 
0.008920 -0.058970 
0.009980 -0.051436 
0.008948 -0.043350 
0.002763 -0.058311 
0.004709 -0.042994 
0.003890 -0.050815 
0.004194 -0.058417 
0.005684 -0.058563 
0.007428 -0.043207 
0.006740 -0.051063 
0.006022 -0.043089 
0.013084 -0.015920 
0.016550 -0.021691 
0.025270 -0.040299 
0.021715 -0.031459 
0.025004 -0.034908 
0.018512 -0.029239 
0.019273 -0.037122 
0.029765 -0.069682 
0.029715 -0.063030 
0.032203 -0.063406 
0.024417 -0.061834 
0.027086 -0.062455 
0.024737 -0.069143 
0.030434 -0.050085 
0.029047 -0.055964 
0.027626 -0.048419 
0.016900 -0.060267 
0.015172 -0.067425 
0.019115 -0.045021 
0.018264 -0.052772 
0.019750 -0.068272 
0.019275 -0.060722 
0.021792 -0.061246 
0.024686 -0.046959 
0.023479 -0.054070 
0.021807 -0.045833 
0.017566 -0.111718 
0.019779 -0.107377 
0.021450 -0.105480 
0.016413 -0.109358 
0.018093 -0.108635 
0.014405 -0.113733 
0.025698 -0.096342 
0.021891 -0.102803 
0.023858 -0.097984 
0.010130 -0.108775 
0.011606 -0.109273 
0.008681 -0.112946 
0.018152 -0.099870 
0.014789 -0.104894 
0.016272 -0.099806 
0.011405 -0.113897 
0.013153 -0.109589 
0.014760 -0.109645 
0.031543 -0.075417 
0.028415 -0.081916 
0.029303 -0.075967 
0.025635 -0.092907 
0.027172 -0.087556 
0.029199 -0.086352 
0.022908 -0.088575 
0.025063 -0.088258 
0.021608 -0.094288 
0.018313 -0.104666 
0.020059 -0.099647 
0.021970 -0.099051 
0.001910 -0.104793 
0.000788 -0.108241 
0.005037 -0.096542 
0.003340 -0.100904 
0.002421 -0.108865 
0.002901 -0.105141 
0.003936 -0.105609 
0.013207 -0.074185 
0.011116 -0.080500 
0.010150 -0.092651 
0.010739 -0.086792 
0.012572 -0.087256 
0.008999 -0.086342 
0.006946 -0.091690 
0.006289 -0.111494 
0.007420 -0.107491 
0.008734 -0.108161 
0.005028 -0.106176 
0.006186 -0.106815 