# vtk DataFile Version 2.0
Unstructured Grid Example
ASCII
DATASET UNSTRUCTURED_GRID

POINTS 1089 float
0.010779 -0.157263 0.000000 
0.989221 -0.157263 0.000000 
1.000000 1.000000 0.000000 
0.000000 1.000000 0.000000 
0.500000 -0.100000 0.000000 
0.980510 0.388927 0.000000 
0.500000 1.000000 0.000000 
0.019490 0.388927 0.000000 
0.500000 0.390934 0.000000 
0.263613 -0.120955 0.000000 
0.500000 0.131571 0.000000 
0.247840 0.120062 0.000000 
0.736387 -0.120955 0.000000 
0.752160 0.120062 0.000000 
0.996119 0.108906 0.000000 
0.742534 0.386779 0.000000 
0.967803 0.679737 0.000000 
0.736966 0.682537 0.000000 
0.750000 1.000000 0.000000 
0.500000 0.684223 0.000000 
0.250000 1.000000 0.000000 
0.263034 0.682537 0.000000 
0.032197 0.679737 0.000000 
0.257466 0.386779 0.000000 
0.003881 0.108906 0.000000 
0.136715 -0.147909 0.000000 
0.248053 -0.002476 0.000000 
0.125651 -0.020259 0.000000 
0.500000 0.013625 0.000000 
0.375200 0.011384 0.000000 
0.380299 -0.100000 0.000000 
0.375484 0.254863 0.000000 
0.373654 0.128692 0.000000 
0.500000 0.256903 0.000000 
0.619701 -0.100000 0.000000 
0.624800 0.011384 0.000000 
0.874349 -0.020259 0.000000 
0.751947 -0.002476 0.000000 
0.863285 -0.147909 0.000000 
0.626346 0.128692 0.000000 
0.624516 0.254863 0.000000 
0.996292 -0.027369 0.000000 
0.875144 0.110667 0.000000 
0.861941 0.384803 0.000000 
0.869624 0.245318 0.000000 
0.989557 0.247822 0.000000 
0.748015 0.249736 0.000000 
0.621750 0.389835 0.000000 
0.972226 0.532504 0.000000 
0.855330 0.529738 0.000000 
0.858503 0.838511 0.000000 
0.852807 0.680792 0.000000 
0.971896 0.831969 0.000000 
0.738105 0.531164 0.000000 
0.619543 0.533131 0.000000 
0.875000 1.000000 0.000000 
0.741036 0.839677 0.000000 
0.500000 0.840144 0.000000 
0.621041 0.840008 0.000000 
0.625000 1.000000 0.000000 
0.619095 0.683745 0.000000 
0.500000 0.533956 0.000000 
0.375000 1.000000 0.000000 
0.378959 0.840008 0.000000 
0.141497 0.838511 0.000000 
0.258964 0.839677 0.000000 
0.125000 1.000000 0.000000 
0.380905 0.683745 0.000000 
0.380457 0.533131 0.000000 
0.028104 0.831969 0.000000 
0.147193 0.680792 0.000000 
0.138059 0.384803 0.000000 
0.144670 0.529738 0.000000 
0.027774 0.532504 0.000000 
0.261895 0.531164 0.000000 
0.378250 0.389835 0.000000 
0.010443 0.247822 0.000000 
0.130376 0.245318 0.000000 
0.124856 0.110667 0.000000 
0.003708 -0.027369 0.000000 
0.251985 0.249736 0.000000 
0.073334 -0.153182 0.000000 
0.129922 -0.084697 0.000000 
0.068382 -0.089805 0.000000 
0.251793 -0.061520 0.000000 
0.190932 -0.075997 0.000000 
0.200617 -0.138875 0.000000 
0.185248 0.050597 0.000000 
0.186501 -0.012824 0.000000 
0.247145 0.057933 0.000000 
0.500000 -0.043653 0.000000 
0.439159 -0.043782 0.000000 
0.439903 -0.100000 0.000000 
0.437060 0.071172 0.000000 
0.437891 0.013160 0.000000 
0.500000 0.071869 0.000000 
0.322386 -0.100000 0.000000 
0.378051 -0.044483 0.000000 
0.315448 -0.047707 0.000000 
0.438349 0.322463 0.000000 
0.437680 0.256377 0.000000 
0.500000 0.322847 0.000000 
0.310511 0.125021 0.000000 
0.374335 0.190665 0.000000 
0.311740 0.187704 0.000000 
0.500000 0.193169 0.000000 
0.437135 0.192520 0.000000 
0.436864 0.130840 0.000000 
0.311506 0.006786 0.000000 
0.373791 0.068950 0.000000 
0.310238 0.064606 0.000000 
0.560097 -0.100000 0.000000 
0.560841 -0.043782 0.000000 
0.684552 -0.047707 0.000000 
0.621949 -0.044483 0.000000 
0.677614 -0.100000 0.000000 
0.562109 0.013160 0.000000 
0.562940 0.071172 0.000000 
0.931618 -0.089805 0.000000 
0.870078 -0.084697 0.000000 
0.926666 -0.153182 0.000000 
0.752855 0.057933 0.000000 
0.813499 -0.012824 0.000000 
0.814752 0.050597 0.000000 
0.799383 -0.138875 0.000000 
0.809068 -0.075997 0.000000 
0.748207 -0.061520 0.000000 
0.562320 0.256377 0.000000 
0.561651 0.322463 0.000000 
0.563136 0.130840 0.000000 
0.562865 0.192520 0.000000 
0.688260 0.187704 0.000000 
0.625665 0.190665 0.000000 
0.689489 0.125021 0.000000 
0.688494 0.006786 0.000000 
0.689762 0.064606 0.000000 
0.626209 0.068950 0.000000 
0.993311 -0.093424 0.000000 
0.935300 -0.024798 0.000000 
0.935828 0.108496 0.000000 
0.936659 0.041383 0.000000 
0.997232 0.040292 0.000000 
0.875846 0.044836 0.000000 
0.814009 0.114822 0.000000 
0.921261 0.385698 0.000000 
0.925596 0.315011 0.000000 
0.985121 0.318054 0.000000 
0.805768 0.315437 0.000000 
0.865845 0.314413 0.000000 
0.802399 0.385392 0.000000 
0.993385 0.178118 0.000000 
0.929758 0.245285 0.000000 
0.933337 0.176462 0.000000 
0.623147 0.321268 0.000000 
0.560944 0.390773 0.000000 
0.750416 0.183986 0.000000 
0.686463 0.252530 0.000000 
0.682308 0.388403 0.000000 
0.684395 0.319443 0.000000 
0.745289 0.317331 0.000000 
0.872881 0.177440 0.000000 
0.809068 0.247075 0.000000 
0.811950 0.180242 0.000000 
0.976087 0.460293 0.000000 
0.917184 0.457409 0.000000 
0.911213 0.604386 0.000000 
0.913705 0.530263 0.000000 
0.969307 0.605617 0.000000 
0.858326 0.456551 0.000000 
0.799325 0.456974 0.000000 
0.924394 0.917997 0.000000 
0.915547 0.836439 0.000000 
0.980162 0.911699 0.000000 
0.795143 0.681714 0.000000 
0.854309 0.758832 0.000000 
0.796671 0.759867 0.000000 
0.968348 0.755050 0.000000 
0.911308 0.757178 0.000000 
0.910193 0.679944 0.000000 
0.620484 0.460490 0.000000 
0.560294 0.461237 0.000000 
0.740046 0.458065 0.000000 
0.680428 0.459353 0.000000 
0.678211 0.606896 0.000000 
0.678996 0.532220 0.000000 
0.736987 0.606022 0.000000 
0.853338 0.604453 0.000000 
0.795337 0.605131 0.000000 
0.796857 0.530214 0.000000 
0.937500 1.000000 0.000000 
0.865732 0.919275 0.000000 
0.745094 0.919614 0.000000 
0.805728 0.919552 0.000000 
0.812500 1.000000 0.000000 
0.800221 0.839320 0.000000 
0.738279 0.760523 0.000000 
0.500000 0.919664 0.000000 
0.561461 0.919649 0.000000 
0.562500 1.000000 0.000000 
0.559957 0.761500 0.000000 
0.560584 0.840095 0.000000 
0.500000 0.761593 0.000000 
0.687500 1.000000 0.000000 
0.622849 0.919639 0.000000 
0.684090 0.919630 0.000000 
0.559834 0.533735 0.000000 
0.500000 0.461475 0.000000 
0.678253 0.683222 0.000000 
0.619045 0.607613 0.000000 
0.500000 0.608269 0.000000 
0.559595 0.608085 0.000000 
0.559626 0.684083 0.000000 
0.681243 0.839876 0.000000 
0.619760 0.761295 0.000000 
0.679255 0.760975 0.000000 
0.437500 1.000000 0.000000 
0.438539 0.919649 0.000000 
0.315910 0.919630 0.000000 
0.377151 0.919639 0.000000 
0.312500 1.000000 0.000000 
0.439416 0.840095 0.000000 
0.440043 0.761500 0.000000 
0.075606 0.917997 0.000000 
0.134268 0.919275 0.000000 
0.062500 1.000000 0.000000 
0.261721 0.760523 0.000000 
0.199779 0.839320 0.000000 
0.203329 0.759867 0.000000 
0.187500 1.000000 0.000000 
0.194272 0.919552 0.000000 
0.254906 0.919614 0.000000 
0.440166 0.533735 0.000000 
0.439706 0.461237 0.000000 
0.440374 0.684083 0.000000 
0.440405 0.608085 0.000000 
0.321789 0.606896 0.000000 
0.380955 0.607613 0.000000 
0.321747 0.683222 0.000000 
0.318757 0.839876 0.000000 
0.320745 0.760975 0.000000 
0.380240 0.761295 0.000000 
0.019838 0.911699 0.000000 
0.084453 0.836439 0.000000 
0.089807 0.679944 0.000000 
0.088692 0.757178 0.000000 
0.031652 0.755050 0.000000 
0.145691 0.758832 0.000000 
0.204857 0.681714 0.000000 
0.078739 0.385698 0.000000 
0.082816 0.457409 0.000000 
0.023913 0.460293 0.000000 
0.200675 0.456974 0.000000 
0.141674 0.456551 0.000000 
0.197601 0.385392 0.000000 
0.030693 0.605617 0.000000 
0.086295 0.530263 0.000000 
0.088787 0.604386 0.000000 
0.379516 0.460490 0.000000 
0.439056 0.390773 0.000000 
0.263013 0.606022 0.000000 
0.321004 0.532220 0.000000 
0.317692 0.388403 0.000000 
0.319572 0.459353 0.000000 
0.259954 0.458065 0.000000 
0.146662 0.604453 0.000000 
0.203143 0.530214 0.000000 
0.204663 0.605131 0.000000 
0.014879 0.318054 0.000000 
0.074404 0.315011 0.000000 
0.066663 0.176462 0.000000 
0.070242 0.245285 0.000000 
0.006615 0.178118 0.000000 
0.134155 0.314413 0.000000 
0.194232 0.315437 0.000000 
0.064700 -0.024798 0.000000 
0.006689 -0.093424 0.000000 
0.185991 0.114822 0.000000 
0.124154 0.044836 0.000000 
0.002768 0.040292 0.000000 
0.063341 0.041383 0.000000 
0.064172 0.108496 0.000000 
0.376853 0.321268 0.000000 
0.254711 0.317331 0.000000 
0.315605 0.319443 0.000000 
0.313537 0.252530 0.000000 
0.249584 0.183986 0.000000 
0.127119 0.177440 0.000000 
0.188050 0.180242 0.000000 
0.190932 0.247075 0.000000 
0.041973 -0.155204 0.000000 
0.070846 -0.121726 0.000000 
0.039734 -0.123688 0.000000 
0.133112 -0.116537 0.000000 
0.101987 -0.119441 0.000000 
0.104921 -0.150847 0.000000 
0.096893 -0.055337 0.000000 
0.099201 -0.087566 0.000000 
0.127417 -0.052572 0.000000 
0.255895 -0.090973 0.000000 
0.225535 -0.100591 0.000000 
0.232387 -0.131681 0.000000 
0.218652 -0.038740 0.000000 
0.221272 -0.069587 0.000000 
0.249424 -0.032114 0.000000 
0.168653 -0.144056 0.000000 
0.194981 -0.107567 0.000000 
0.164144 -0.112705 0.000000 
0.216254 0.085610 0.000000 
0.216054 0.054170 0.000000 
0.247333 0.088776 0.000000 
0.156062 -0.016946 0.000000 
0.185569 0.018819 0.000000 
0.155035 0.015186 0.000000 
0.247350 0.027522 0.000000 
0.216297 0.023017 0.000000 
0.217100 -0.007919 0.000000 
0.160505 -0.080936 0.000000 
0.188210 -0.044409 0.000000 
0.157842 -0.048987 0.000000 
0.500000 -0.071977 0.000000 
0.469830 -0.071964 0.000000 
0.469919 -0.100000 0.000000 
0.469285 -0.015180 0.000000 
0.469591 -0.043670 0.000000 
0.500000 -0.015114 0.000000 
0.409998 -0.100000 0.000000 
0.439684 -0.071999 0.000000 
0.409580 -0.072078 0.000000 
0.468461 0.101307 0.000000 
0.468555 0.071681 0.000000 
0.500000 0.101506 0.000000 
0.406657 0.012504 0.000000 
0.437394 0.041992 0.000000 
0.405933 0.041187 0.000000 
0.500000 0.042598 0.000000 
0.468731 0.042437 0.000000 
0.468982 0.013506 0.000000 
0.295186 -0.100000 0.000000 
0.319105 -0.073484 0.000000 
0.286912 -0.077840 0.000000 
0.379520 -0.072228 0.000000 
0.349456 -0.072550 0.000000 
0.350980 -0.100000 0.000000 
0.344982 -0.018221 0.000000 
0.347109 -0.045448 0.000000 
0.376488 -0.016689 0.000000 
0.438511 -0.015405 0.000000 
0.407614 -0.015857 0.000000 
0.408672 -0.044020 0.000000 
0.469329 0.356590 0.000000 
[...]
POINT_DATA 1089

SCALARS u_h float 2
LOOKUP_TABLE default
0.010779 -0.157263 
-0.010779 -0.157263 
0.000000 0.000000 
0.000000 0.000000 
0.000000 -0.100000 
-0.019490 -0.111073 
0.000000 0.000000 
0.019490 -0.111073 
0.000000 -0.109066 
0.013613 -0.120955 
0.000000 -0.118429 
-0.002160 -0.129938 
-0.013613 -0.120955 
0.002160 -0.129938 
-0.003881 -0.141094 
-0.007466 -0.113221 
-0.032197 -0.070263 
-0.013034 -0.067463 
0.000000 0.000000 
0.000000 -0.065777 
0.000000 0.000000 
0.013034 -0.067463 
0.032197 -0.070263 
0.007466 -0.113221 
0.003881 -0.141094 
0.011715 -0.147909 
-0.001947 -0.127476 
0.000651 -0.145259 
0.000000 -0.111375 
0.000200 -0.113616 
0.005299 -0.100000 
0.000484 -0.120137 
-0.001346 -0.121308 
0.000000 -0.118097 
-0.005299 -0.100000 
-0.000200 -0.113616 
-0.000651 -0.145259 
0.001947 -0.127476 
-0.011715 -0.147909 
0.001346 -0.121308 
-0.000484 -0.120137 
-0.003708 -0.152369 
0.000144 -0.139333 
-0.013059 -0.115197 
-0.005376 -0.129682 
-0.010443 -0.127178 
-0.001985 -0.125264 
-0.003250 -0.110165 
-0.027774 -0.092496 
-0.019670 -0.095262 
-0.016497 -0.036489 
-0.022193 -0.069208 
-0.028104 -0.043031 
-0.011895 -0.093836 
-0.005457 -0.091869 
0.000000 0.000000 
-0.008964 -0.035323 
0.000000 -0.034856 
-0.003959 -0.034992 
0.000000 0.000000 
-0.005905 -0.066255 
0.000000 -0.091044 
0.000000 0.000000 
0.003959 -0.034992 
0.016497 -0.036489 
0.008964 -0.035323 
0.000000 0.000000 
0.005905 -0.066255 
0.005457 -0.091869 
0.028104 -0.043031 
0.022193 -0.069208 
0.013059 -0.115197 
0.019670 -0.095262 
0.027774 -0.092496 
0.011895 -0.093836 
0.003250 -0.110165 
0.010443 -0.127178 
0.005376 -0.129682 
-0.000144 -0.139333 
0.003708 -0.152369 
0.001985 -0.125264 
0.010834 -0.153182 
0.004922 -0.147197 
0.005882 -0.152305 
0.001793 -0.124020 
0.003432 -0.138497 
0.013117 -0.138875 
-0.002252 -0.136903 
-0.000999 -0.137824 
-0.002855 -0.129567 
0.000000 -0.106153 
0.001659 -0.106282 
0.002403 -0.100000 
-0.000440 -0.116328 
0.000391 -0.111840 
0.000000 -0.115631 
0.009886 -0.100000 
0.003051 -0.106983 
0.002948 -0.110207 
0.000849 -0.115037 
0.000180 -0.118623 
0.000000 -0.114653 
-0.001989 -0.124979 
-0.000665 -0.121835 
-0.000760 -0.124796 
0.000000 -0.119331 
-0.000365 -0.119980 
-0.000636 -0.119160 
-0.000994 -0.118214 
-0.001209 -0.118550 
-0.002262 -0.122894 
-0.002403 -0.100000 
-0.001659 -0.106282 
-0.002948 -0.110207 
-0.003051 -0.106983 
-0.009886 -0.100000 
-0.000391 -0.111840 
0.000440 -0.116328 
-0.005882 -0.152305 
-0.004922 -0.147197 
-0.010834 -0.153182 
0.002855 -0.129567 
0.000999 -0.137824 
0.002252 -0.136903 
-0.013117 -0.138875 
-0.003432 -0.138497 
-0.001793 -0.124020 
-0.000180 -0.118623 
-0.000849 -0.115037 
0.000636 -0.119160 
0.000365 -0.119980 
0.000760 -0.124796 
0.000665 -0.121835 
0.001989 -0.124979 
0.000994 -0.118214 
0.002262 -0.122894 
0.001209 -0.118550 
-0.006689 -0.155924 
-0.002200 -0.149798 
-0.001672 -0.141504 
-0.000841 -0.146117 
-0.002768 -0.147208 
0.000846 -0.142664 
0.001509 -0.135178 
-0.016239 -0.114302 
-0.011904 -0.122489 
-0.014879 -0.119446 
-0.006732 -0.122063 
-0.009155 -0.123087 
-0.010101 -0.114608 
-0.006615 -0.134382 
-0.007742 -0.129715 
-0.004163 -0.136038 
-0.001853 -0.116232 
-0.001556 -0.109227 
0.000416 -0.128514 
-0.001037 -0.122470 
-0.005192 -0.111597 
-0.003105 -0.118057 
-0.004711 -0.120169 
-0.002119 -0.135060 
-0.003432 -0.127925 
-0.000550 -0.132258 
-0.023913 -0.102207 
-0.020316 -0.105091 
-0.026287 -0.083114 
-0.023795 -0.094737 
-0.030693 -0.081883 
-0.016674 -0.105949 
-0.013175 -0.105526 
-0.013106 -0.019503 
-0.021953 -0.038561 
-0.019838 -0.025801 
-0.017357 -0.068286 
-0.020691 -0.053668 
-0.015829 -0.052633 
-0.031652 -0.057450 
-0.026192 -0.055322 
-0.027307 -0.070056 
-0.004516 -0.102010 
-0.002206 -0.101263 
-0.009954 -0.104435 
-0.007072 -0.103147 
-0.009289 -0.080604 
-0.008504 -0.092780 
-0.013013 -0.081478 
-0.021662 -0.083047 
-0.017163 -0.082369 
-0.015643 -0.094786 
0.000000 0.000000 
-0.009268 -0.018225 
-0.004906 -0.017886 
-0.006772 -0.017948 
0.000000 0.000000 
-0.012279 -0.035680 
-0.011721 -0.051977 
0.000000 -0.017836 
-0.001039 -0.017851 
0.000000 0.000000 
-0.002543 -0.051000 
-0.001916 -0.034905 
0.000000 -0.050907 
0.000000 0.000000 
-0.002151 -0.017861 
-0.003410 -0.017870 
-0.002666 -0.091265 
0.000000 -0.101025 
-0.009247 -0.066778 
-0.005955 -0.079887 
0.000000 -0.079231 
-0.002905 -0.079415 
-0.002874 -0.065917 
-0.006257 -0.035124 
-0.005240 -0.051205 
-0.008245 -0.051525 
0.000000 0.000000 
0.001039 -0.017851 
0.003410 -0.017870 
0.002151 -0.017861 
0.000000 0.000000 
0.001916 -0.034905 
0.002543 -0.051000 
0.013106 -0.019503 
0.009268 -0.018225 
0.000000 0.000000 
0.011721 -0.051977 
0.012279 -0.035680 
0.015829 -0.052633 
0.000000 0.000000 
0.006772 -0.017948 
0.004906 -0.017886 
0.002666 -0.091265 
0.002206 -0.101263 
0.002874 -0.065917 
0.002905 -0.079415 
0.009289 -0.080604 
0.005955 -0.079887 
0.009247 -0.066778 
0.006257 -0.035124 
0.008245 -0.051525 
0.005240 -0.051205 
0.019838 -0.025801 
0.021953 -0.038561 
0.027307 -0.070056 
0.026192 -0.055322 
0.031652 -0.057450 
0.020691 -0.053668 
0.017357 -0.068286 
0.016239 -0.114302 
0.020316 -0.105091 
0.023913 -0.102207 
0.013175 -0.105526 
0.016674 -0.105949 
0.010101 -0.114608 
0.030693 -0.081883 
0.023795 -0.094737 
0.026287 -0.083114 
0.004516 -0.102010 
0.001556 -0.109227 
0.013013 -0.081478 
0.008504 -0.092780 
0.005192 -0.111597 
0.007072 -0.103147 
0.009954 -0.104435 
0.021662 -0.083047 
0.015643 -0.094786 
0.017163 -0.082369 
0.014879 -0.119446 
0.011904 -0.122489 
0.004163 -0.136038 
0.007742 -0.129715 
0.006615 -0.134382 
0.009155 -0.123087 
0.006732 -0.122063 
0.002200 -0.149798 
0.006689 -0.155924 
-0.001509 -0.135178 
-0.000846 -0.142664 
0.002768 -0.147208 
0.000841 -0.146117 
0.001672 -0.141504 
0.001853 -0.116232 
0.004711 -0.120169 
0.003105 -0.118057 
0.001037 -0.122470 
-0.000416 -0.128514 
0.002119 -0.135060 
0.000550 -0.132258 
0.003432 -0.127925 
0.010723 -0.155204 
0.008346 -0.152976 
0.008484 -0.154938 
0.008112 -0.147787 
0.008237 -0.150691 
0.011171 -0.150847 
0.003143 -0.149087 
0.005451 -0.150066 
0.002417 -0.146322 
0.005895 -0.122223 
0.006785 -0.131841 
0.013637 -0.131681 
-0.000098 -0.132490 
0.002522 -0.132087 
-0.000576 -0.125864 
0.012403 -0.144056 
0.007481 -0.138817 
0.007894 -0.143955 
-0.002496 -0.133140 
-0.002696 -0.133330 
-0.002667 -0.129974 
-0.000188 -0.141946 
-0.001931 -0.137431 
-0.001215 -0.141064 
-0.002650 -0.128728 
-0.002453 -0.133233 
-0.001650 -0.132919 
0.004255 -0.143436 
0.000710 -0.138159 
0.001592 -0.142737 
0.000000 -0.103227 
0.001080 -0.103214 
0.001169 -0.100000 
0.000535 -0.108930 
0.000841 -0.106170 
0.000000 -0.108864 
0.003748 -0.100000 
0.002184 -0.103249 
0.003330 -0.103328 
-0.000289 -0.117443 
-0.000195 -0.115819 
0.000000 -0.117244 
0.000407 -0.112496 
-0.000106 -0.114258 
-0.000317 -0.115063 
0.000000 -0.113652 
-0.000019 -0.113813 
0.000232 -0.111494 
0.013936 -0.100000 
0.006605 -0.104734 
0.005662 -0.109090 
0.004520 -0.103478 
0.005706 -0.103800 
0.007230 -0.100000 
0.001232 -0.111971 
0.003359 -0.107948 
0.001488 -0.110439 
0.001011 -0.109155 
0.001364 -0.109607 
0.002422 -0.106520 
0.000579 -0.112160 
0.000409 -0.114739 
0.000000 -0.112116 
0.000309 -0.119263 
0.000506 -0.117110 
0.000806 -0.117680 
0.000000 -0.116651 
0.000242 -0.116764 
0.000081 -0.118232 
-0.002164 -0.127336 
-0.001467 -0.125160 
-0.001508 -0.127221 
-0.001083 -0.121851 
-0.001311 -0.123353 
-0.001696 -0.122955 
-0.000062 -0.122478 
-0.000752 -0.123191 
-0.000132 -0.121263 
0.000000 -0.119136 
-0.000272 -0.119324 
-0.000311 -0.118627 
-0.000065 -0.119143 
-0.000186 -0.119503 
0.000000 -0.118988 
-0.000984 -0.120047 
-0.000546 -0.119835 
-0.000820 -0.120676 
-0.000144 -0.120290 
-0.000529 -0.120759 
-0.000116 -0.119579 
0.001862 -0.114942 
-0.000284 -0.115433 
0.000529 -0.114692 
-0.000366 -0.119112 
-0.001705 -0.122175 
-0.000610 -0.117979 
-0.001406 -0.120208 
-0.000982 -0.118886 
-0.000773 -0.117212 
-0.000693 -0.116344 
-0.002577 -0.126926 
-0.002431 -0.124409 
-0.002690 -0.125966 
-0.002275 -0.124233 
-0.001856 -0.121985 
-0.001236 -0.118248 
-0.001729 -0.120424 
-0.001871 -0.120912 
-0.001169 -0.100000 
-0.001080 -0.103214 
-0.003330 -0.103328 
-0.002184 -0.103249 
-0.003748 -0.100000 
-0.000841 -0.106170 
-0.000535 -0.108930 
-0.005662 -0.109090 
-0.006605 -0.104734 
-0.013936 -0.100000 
-0.001488 -0.110439 
-0.003359 -0.107948 
-0.001232 -0.111971 
-0.007230 -0.100000 
-0.005706 -0.103800 
-0.004520 -0.103478 
0.000195 -0.115819 
0.000289 -0.117443 
-0.000232 -0.111494 
0.000019 -0.113813 
0.000317 -0.115063 
0.000106 -0.114258 
-0.000407 -0.112496 
-0.002422 -0.106520 
-0.001364 -0.109607 
-0.001011 -0.109155 
-0.008484 -0.154938 
-0.008346 -0.152976 
-0.010723 -0.155204 
-0.002417 -0.146322 
-0.005451 -0.150066 
-0.003143 -0.149087 
-0.011171 -0.150847 
-0.008237 -0.150691 
-0.008112 -0.147787 
0.002667 -0.129974 
0.002696 -0.133330 
0.002496 -0.133140 
0.001650 -0.132919 
0.002453 -0.133233 
0.002650 -0.128728 
0.001215 -0.141064 
0.001931 -0.137431 
0.000188 -0.141946 
-0.013637 -0.131681 
-0.006785 -0.131841 
-0.005895 -0.122223 
-0.007894 -0.143955 
-0.007481 -0.138817 
-0.012403 -0.144056 
0.000576 -0.125864 
-0.002522 -0.132087 
0.000098 -0.132490 
-0.001592 -0.142737 
-0.000710 -0.138159 
-0.004255 -0.143436 
-0.000409 -0.114739 
-0.000579 -0.112160 
-0.000081 -0.118232 
-0.000242 -0.116764 
-0.000806 -0.117680 
-0.000506 -0.117110 
-0.000309 -0.119263 
0.000311 -0.118627 
0.000272 -0.119324 
0.000820 -0.120676 
0.000546 -0.119835 
0.000984 -0.120047 
0.000186 -0.119503 
0.000065 -0.119143 
0.001508 -0.127221 
0.001467 -0.125160 
0.002164 -0.127336 
0.000132 -0.121263 
0.000752 -0.123191 
0.000062 -0.122478 
0.001696 -0.122955 
0.001311 -0.123353 
0.001083 -0.121851 
0.000116 -0.119579 
0.000529 -0.120759 
0.000144 -0.120290 
-0.001862 -0.114942 
0.001705 -0.122175 
0.000366 -0.119112 
-0.000529 -0.114692 
0.000284 -0.115433 
0.002577 -0.126926 
0.001856 -0.121985 
0.002275 -0.124233 
0.002690 -0.125966 
0.002431 -0.124409 
0.000610 -0.117979 
0.000693 -0.116344 
0.000773 -0.117212 
0.000982 -0.118886 
0.001406 -0.120208 
0.001871 -0.120912 
0.001729 -0.120424 
0.001236 -0.118248 
-0.008686 -0.156883 
-0.006271 -0.154170 
-0.002927 -0.151267 
-0.004361 -0.152926 
-0.004977 -0.154395 
-0.003776 -0.151223 
-0.001452 -0.147839 
-0.002719 -0.141661 
-0.001995 -0.144416 
-0.003090 -0.144241 
-0.000106 -0.142803 
-0.001012 -0.143920 
-0.000718 -0.140705 
-0.002966 -0.149942 
-0.001754 -0.146960 
-0.002054 -0.149259 
0.002081 -0.136170 
0.001940 -0.132615 
0.000413 -0.144042 
0.001608 -0.140054 
0.000897 -0.137460 
0.001473 -0.138867 
0.000729 -0.141104 
-0.001223 -0.148084 
0.000022 -0.144687 
-0.000407 -0.146366 
-0.017867 -0.113045 
-0.015617 -0.117286 
-0.017190 -0.115348 
-0.012566 -0.119158 
-0.014072 -0.118519 
-0.014630 -0.114983 
-0.012613 -0.123384 
-0.013370 -0.121325 
-0.011166 -0.125168 
-0.007217 -0.117796 
-0.008428 -0.118538 
-0.008739 -0.113976 
-0.007227 -0.126542 
-0.007897 -0.122729 
-0.006087 -0.126025 
-0.011545 -0.115042 
-0.009730 -0.119071 
-0.011114 -0.119309 
-0.005079 -0.137801 
-0.005338 -0.135593 
-0.003857 -0.138716 
-0.009056 -0.128823 
-0.007093 -0.132296 
-0.008424 -0.130842 
-0.004702 -0.133025 
-0.005850 -0.132986 
-0.006512 -0.129966 
-0.010495 -0.123041 
-0.008461 -0.126641 
-0.009778 -0.126218 
-0.001201 -0.112407 
-0.000768 -0.109020 
-0.001154 -0.118458 
-0.001327 -0.115541 
-0.002378 -0.109619 
-0.001857 -0.112850 
-0.002559 -0.113465 
0.001392 -0.129452 
0.000658 -0.126596 
-0.001453 -0.123841 
-0.000343 -0.125468 
-0.000724 -0.127119 
-0.000088 -0.123897 
-0.000720 -0.121218 
-0.006284 -0.112408 
-0.005085 -0.116000 
-0.006102 -0.116926 
-0.003323 -0.114220 
-0.004161 -0.115080 
-0.004184 -0.110835 
-0.003326 -0.122948 
-0.003858 -0.119105 
-0.002637 -0.121719 
-0.001564 -0.119418 
-0.002053 -0.120522 
-0.002441 -0.117084 
-0.002747 -0.138877 
-0.003655 -0.132517 
-0.003088 -0.135828 
-0.001737 -0.138384 
-0.000830 -0.137326 
-0.005669 -0.121181 
-0.002643 -0.126657 
-0.004131 -0.124133 
-0.005052 -0.125190 
-0.004346 -0.128967 
0.001093 -0.131724 
-0.000039 -0.135792 
0.000610 -0.133884 
0.000014 -0.130443 
-0.001247 -0.128757 
-0.002721 -0.131566 
-0.001915 -0.130277 
-0.001267 -0.133836 
-0.021752 -0.106745 
-0.020053 -0.108613 
-0.024070 -0.099047 
-0.022133 -0.103952 
-0.025935 -0.097459 
-0.018331 -0.109832 
-0.016613 -0.110510 
-0.029395 -0.076678 
-0.028540 -0.082718 
-0.031656 -0.076208 
-0.021735 -0.095165 
-0.025192 -0.089093 
-0.023009 -0.089363 
-0.029378 -0.087308 
-0.027327 -0.088446 
-0.025818 -0.093883 
-0.011693 -0.110273 
-0.010185 -0.109721 
-0.014922 -0.110748 
-0.013276 -0.110641 
-0.016363 -0.100682 
-0.014897 -0.105856 
-0.018272 -0.100790 
-0.022153 -0.100064 
-0.020211 -0.100613 
-0.018488 -0.105724 
-0.008640 -0.010589 
-0.016134 -0.021586 
-0.012707 -0.014940 
-0.019063 -0.037290 
-0.018210 -0.029307 
-0.015490 -0.028080 
-0.024726 -0.034915 
-0.021401 -0.031483 
-0.025059 -0.040459 
-0.015126 -0.067858 
-0.016831 -0.060644 
-0.014614 -0.060240 
-0.021737 -0.061653 
-0.019210 -0.061113 
-0.019719 -0.068740 
-0.016522 -0.044695 
-0.018163 -0.053087 
-0.018969 -0.045267 
-0.032230 -0.064023 
-0.029721 -0.063547 
-0.029818 -0.070299 
-0.027503 -0.048710 
-0.028996 -0.056373 
-0.030333 -0.050485 
-0.024741 -0.069664 
-0.027068 -0.062918 
-0.024377 -0.062263 
-0.021658 -0.046083 
-0.023387 -0.054409 
-0.024543 -0.047220 
-0.001905 -0.105508 
-0.000958 -0.105319 
-0.003915 -0.106343 
-0.002885 -0.105857 
-0.003724 -0.096792 
-0.003337 -0.101577 
-0.005035 -0.097180 
-0.008761 -0.109056 
-0.007425 -0.108337 
-0.009390 -0.098777 
-0.008470 -0.103791 
-0.011010 -0.099360 
-0.006175 -0.107617 
-0.005008 -0.106939 
-0.011221 -0.074261 
-0.011098 -0.081029 
-0.013177 -0.074668 
-0.006942 -0.092295 
-0.008990 -0.086910 
-0.007338 -0.086476 
-0.012574 -0.087872 
-0.010733 -0.087383 
-0.010154 -0.093304 
-0.005757 -0.102542 
-0.007857 -0.098198 
-0.006408 -0.097656 
-0.027017 -0.076777 
-0.022143 -0.076337 
-0.024580 -0.076632 
-0.023979 -0.083192 
-0.020818 -0.089351 
-0.015254 -0.075097 
-0.014514 -0.088352 
-0.015036 -0.081933 
-0.017451 -0.075532 
-0.019755 -0.075955 
-0.011524 -0.105031 
-0.017631 -0.095112 
-0.014506 -0.100365 
-0.012717 -0.099905 
-0.013727 -0.094344 
-0.019379 -0.082754 
-0.016545 -0.088787 
-0.018653 -0.089138 
0.000000 0.000000 
-0.006787 -0.009550 
-0.004755 -0.009048 
-0.005618 -0.009190 
0.000000 0.000000 
-0.010935 -0.018623 
-0.013244 -0.027426 
-0.002521 -0.008985 
-0.002970 -0.008978 
0.000000 0.000000 
-0.008329 -0.026753 
-0.005781 -0.017906 
-0.007076 -0.026678 
0.000000 0.000000 
-0.003477 -0.008978 
-0.004062 -0.008994 
-0.013686 -0.052272 
-0.012555 -0.059888 
-0.014252 -0.035994 
-0.014315 -0.044292 
-0.010521 -0.043773 
-0.012324 -0.043997 
-0.010529 -0.035471 
-0.007915 -0.018038 
-0.009742 -0.026872 
-0.011359 -0.027072 
0.000000 -0.009013 
-0.000263 -0.009017 
0.000000 0.000000 
-0.000745 -0.026470 
-0.000514 -0.017844 
0.000000 -0.026456 
0.000000 0.000000 
-0.000533 -0.009018 
-0.000811 -0.009017 
-0.001364 -0.058543 
-0.001262 -0.050940 
0.000000 -0.058504 
-0.002914 -0.034944 
-0.002265 -0.043086 
-0.003442 -0.043147 
0.000000 -0.043015 
-0.001123 -0.043042 
-0.000950 -0.034877 
0.000000 0.000000 
-0.001752 -0.009002 
-0.002118 -0.008994 
-0.001104 -0.009014 
-0.001416 -0.009009 
0.000000 0.000000 
-0.003986 -0.026555 
-0.002758 -0.017866 
-0.003111 -0.026528 
-0.001504 -0.026486 
-0.002289 -0.026505 
-0.001582 -0.017857 
-0.001102 -0.101079 
0.000000 -0.105290 
-0.004037 -0.091522 
-0.002461 -0.096507 
0.000000 -0.096273 
-0.001226 -0.096334 
-0.001326 -0.091105 
-0.011077 -0.067102 
-0.009381 -0.073885 
-0.006004 -0.073264 
-0.007647 -0.073550 
-0.007528 -0.066495 
-0.007579 -0.080220 
-0.005769 -0.086098 
0.000000 -0.072695 
-0.001454 -0.072746 
-0.001427 -0.065822 
-0.001400 -0.085414 
-0.001444 -0.079286 
0.000000 -0.085355 
-0.004360 -0.066062 
-0.002926 -0.072858 
-0.004436 -0.073032 
-0.004267 -0.085789 
-0.004403 -0.079617 
-0.002817 -0.085559 
-0.004122 -0.017876 
-0.005067 -0.035052 
-0.004926 -0.026586 
-0.005950 -0.026626 
-0.007549 -0.035212 
-0.002747 -0.058621 
-0.005652 -0.058892 
-0.004170 -0.058737 
-0.003863 -0.051089 
-0.004673 -0.043228 
-0.010646 -0.059581 
-0.008878 -0.043595 
-0.009914 -0.051732 
-0.008871 -0.059314 
-0.007212 -0.059084 
-0.005976 -0.043328 
-0.006694 -0.051350 
-0.007371 -0.043449 
0.000000 0.000000 
0.000263 -0.009017 
0.000811 -0.009017 
0.000533 -0.009018 
0.000000 0.000000 
0.000514 -0.017844 
0.000745 -0.026470 
0.002118 -0.008994 
0.001752 -0.009002 
0.000000 0.000000 
0.003111 -0.026528 
0.002758 -0.017866 
0.003986 -0.026555 
0.000000 0.000000 
0.001416 -0.009009 
0.001104 -0.009014 
0.001262 -0.050940 
0.001364 -0.058543 
0.000950 -0.034877 
0.001123 -0.043042 
0.003442 -0.043147 
0.002265 -0.043086 
0.002914 -0.034944 
0.001582 -0.017857 
0.002289 -0.026505 
0.001504 -0.026486 
0.008640 -0.010589 
0.006787 -0.009550 
0.000000 0.000000 
0.013244 -0.027426 
0.010935 -0.018623 
0.015490 -0.028080 
0.000000 0.000000 
0.005618 -0.009190 
0.004755 -0.009048 
0.012555 -0.059888 
0.013686 -0.052272 
0.014614 -0.060240 
0.010529 -0.035471 
0.012324 -0.043997 
0.010521 -0.043773 
0.016522 -0.044695 
0.014315 -0.044292 
0.014252 -0.035994 
0.000000 0.000000 
0.002970 -0.008978 
0.002521 -0.008985 
0.004062 -0.008994 
0.003477 -0.008978 
0.000000 0.000000 
0.007076 -0.026678 
0.005781 -0.017906 
0.008329 -0.026753 
0.011359 -0.027072 
0.009742 -0.026872 
0.007915 -0.018038 
0.001102 -0.101079 
0.000958 -0.105319 
0.001326 -0.091105 
0.001226 -0.096334 
0.003724 -0.096792 
0.002461 -0.096507 
0.004037 -0.091522 
0.001427 -0.065822 
0.001454 -0.072746 
0.004436 -0.073032 
0.002926 -0.072858 
0.004360 -0.066062 
0.001444 -0.079286 
0.001400 -0.085414 
0.011221 -0.074261 
0.009381 -0.073885 
0.011077 -0.067102 
0.005769 -0.086098 
0.007579 -0.080220 
0.007338 -0.086476 
0.007528 -0.066495 
0.007647 -0.073550 
0.006004 -0.073264 
0.002817 -0.085559 
0.004403 -0.079617 
0.004267 -0.085789 
0.004122 -0.017876 
0.007549 -0.035212 
0.005950 -0.026626 
0.004926 -0.026586 
0.005067 -0.035052 
0.010646 -0.059581 
0.007212 -0.059084 
0.008871 -0.059314 
0.009914 -0.051732 
0.008878 -0.043595 
0.002747 -0.058621 
0.004673 -0.043228 
0.003863 -0.051089 
0.004170 -0.058737 
0.005652 -0.058892 
0.007371 -0.043449 
0.006694 -0.051350 
0.005976 -0.043328 
0.012707 -0.014940 
0.016134 -0.021586 
0.025059 -0.040459 
0.021401 -0.031483 
0.024726 -0.034915 
0.018210 -0.029307 
0.019063 -0.037290 
0.029818 -0.070299 
0.029721 -0.063547 
0.032230 -0.064023 
0.024377 -0.062263 
0.027068 -0.062918 
0.024741 -0.069664 
0.030333 -0.050485 
0.028996 -0.056373 
0.027503 -0.048710 
0.016831 -0.060644 
0.015126 -0.067858 
0.018969 -0.045267 
0.018163 -0.053087 
0.019719 -0.068740 
0.019210 -0.061113 
0.021737 -0.061653 
0.024543 -0.047220 
0.023387 -0.054409 
0.021658 -0.046083 
0.017867 -0.113045 
0.020053 -0.108613 
0.021752 -0.106745 
0.016613 -0.110510 
0.018331 -0.109832 
0.014630 -0.114983 
0.025935 -0.097459 
0.022133 -0.103952 
0.024070 -0.099047 
0.010185 -0.109721 
0.011693 -0.110273 
0.008739 -0.113976 
0.018272 -0.100790 
0.014897 -0.105856 
0.016363 -0.100682 
0.011545 -0.115042 
0.013276 -0.110641 
0.014922 -0.110748 
0.031656 -0.076208 
0.028540 -0.082718 
0.029395 -0.076678 
0.025818 -0.093883 
0.027327 -0.088446 
0.029378 -0.087308 
0.023009 -0.089363 
0.025192 -0.089093 
0.021735 -0.095165 
0.018488 -0.105724 
0.020211 -0.100613 
0.022153 -0.100064 
0.001905 -0.105508 
0.000768 -0.109020 
0.005035 -0.097180 
0.003337 -0.101577 
0.002378 -0.109619 
0.002885 -0.105857 
0.003915 -0.106343 
0.013177 -0.074668 
0.011098 -0.081029 
0.010154 -0.093304 
0.010733 -0.087383 
0.012574 -0.087872 
0.008990 -0.086910 
0.006942 -0.092295 
0.006284 -0.112408 
0.007425 -0.108337 
0.008761 -0.109056 
0.005008 -0.106939 
0.006175 -0.107617 
0.004184 -0.110835 