# vtk DataFile Version 2.0
Unstructured Grid Example
ASCII
DATASET UNSTRUCTURED_GRID

POINTS 9 float
-0.015952 -0.111656 0.000000 
1.015952 -0.111656 0.000000 
1.000000 1.000000 0.000000 
0.000000 1.000000 0.000000 
0.500000 0.009808 0.000000 
0.985755 0.419143 0.000000 
0.500000 1.000000 0.000000 
0.014245 0.419143 0.000000 
0.500000 0.432214 0.000000 

CELLS 8 32
3  0 4 8 
3  4 1 8 
3  1 5 8 
3  5 2 8 
3  2 6 8 
3  6 3 8 
3  3 7 8 
3  7 0 8 

CELL_TYPES 8
5
5
5
5
5
5
5
5

POINT_DATA 9

SCALARS u_h float 2
LOOKUP_TABLE default
-0.015952 -0.111656 
0.015952 -0.111656 
0.000000 0.000000 
0.000000 0.000000 
0.000000 0.009808 
-0.014245 -0.080857 
0.000000 0.000000 
0.014245 -0.080857 
-0.000000 -0.067786 

CELL_DATA 8

SCALARS epsilon float 4
LOOKUP_TABLE default
0.031396 -0.127996 0.000000 0.143639
0.031396 -0.127996 0.000000 -0.143639
-0.028706 0.058504 0.000000 -0.043284
-0.027918 0.149806 0.000000 0.003134
0.000000 0.126513 0.000000 0.000000
0.000000 0.126513 0.000000 0.000000
-0.027918 0.149806 0.000000 -0.003134
-0.028706 0.058504 0.000000 0.043284

SCALARS sigma float 4
LOOKUP_TABLE default
-1.020704 -4.540347 -1.527761 2.285026
-1.020704 -4.540347 -1.527761 -2.285026
-0.250045 1.184701 0.256774 -0.689075
0.641427 3.403460 1.111233 0.017055
1.193865 3.151804 1.193865 0.000000
1.193865 3.151804 1.193865 0.000000
0.641427 3.403460 1.111233 -0.017055
-0.250045 1.184701 0.256774 0.689075

