# vtk DataFile Version 2.0
Unstructured Grid Example
ASCII
DATASET UNSTRUCTURED_GRID

POINTS 4225 float
0.010367 -0.155560 0.000000 
0.989633 -0.155560 0.000000 
1.000000 1.000000 0.000000 
0.000000 1.000000 0.000000 
0.500000 -0.100000 0.000000 
0.980743 0.389811 0.000000 
0.500000 1.000000 0.000000 
0.019257 0.389811 0.000000 
0.500000 0.391550 0.000000 
0.264429 -0.114786 0.000000 
0.500000 0.131925 0.000000 
0.247838 0.121317 0.000000 
0.735571 -0.114786 0.000000 
0.752162 0.121317 0.000000 
0.996621 0.110405 0.000000 
0.742556 0.387426 0.000000 
0.967838 0.680223 0.000000 
0.736929 0.682814 0.000000 
0.750000 1.000000 0.000000 
0.500000 0.684436 0.000000 
0.250000 1.000000 0.000000 
0.263071 0.682814 0.000000 
0.032162 0.680223 0.000000 
0.257444 0.387426 0.000000 
0.003379 0.110405 0.000000 
0.136566 -0.146056 0.000000 
0.247988 -0.000283 0.000000 
0.125159 -0.018415 0.000000 
0.500000 0.013721 0.000000 
0.375318 0.011843 0.000000 
0.379561 -0.100000 0.000000 
0.375555 0.255487 0.000000 
0.373790 0.129350 0.000000 
0.500000 0.257409 0.000000 
0.620439 -0.100000 0.000000 
0.624682 0.011843 0.000000 
0.874841 -0.018415 0.000000 
0.752012 -0.000283 0.000000 
0.863434 -0.146056 0.000000 
0.626210 0.129350 0.000000 
0.624445 0.255487 0.000000 
0.996728 -0.025896 0.000000 
0.875512 0.112175 0.000000 
0.862074 0.385603 0.000000 
0.869825 0.246429 0.000000 
0.989915 0.249095 0.000000 
0.748024 0.250624 0.000000 
0.621721 0.390357 0.000000 
0.972363 0.533211 0.000000 
0.855397 0.530293 0.000000 
0.858361 0.838625 0.000000 
0.852785 0.681117 0.000000 
0.971744 0.832115 0.000000 
0.738117 0.531616 0.000000 
0.619544 0.533521 0.000000 
0.875000 1.000000 0.000000 
0.740975 0.839806 0.000000 
0.500000 0.840241 0.000000 
0.621017 0.840131 0.000000 
0.625000 1.000000 0.000000 
0.619075 0.683994 0.000000 
0.500000 0.534324 0.000000 
0.375000 1.000000 0.000000 
0.378983 0.840131 0.000000 
0.141639 0.838625 0.000000 
0.259025 0.839806 0.000000 
0.125000 1.000000 0.000000 
0.380925 0.683994 0.000000 
0.380456 0.533521 0.000000 
0.028256 0.832115 0.000000 
0.147215 0.681117 0.000000 
0.137926 0.385603 0.000000 
0.144603 0.530293 0.000000 
0.027637 0.533211 0.000000 
0.261883 0.531616 0.000000 
0.378279 0.390357 0.000000 
0.010085 0.249095 0.000000 
0.130175 0.246429 0.000000 
0.124488 0.112175 0.000000 
0.003272 -0.025896 0.000000 
0.251976 0.250624 0.000000 
0.072997 -0.151495 0.000000 
0.129585 -0.082874 0.000000 
0.068073 -0.088181 0.000000 
0.251417 -0.057807 0.000000 
0.190407 -0.073503 0.000000 
0.200946 -0.136503 0.000000 
0.184934 0.052422 0.000000 
0.186020 -0.010580 0.000000 
0.247140 0.059509 0.000000 
0.500000 -0.043628 0.000000 
0.439023 -0.043757 0.000000 
0.439621 -0.100000 0.000000 
0.437137 0.071514 0.000000 
0.437904 0.013335 0.000000 
0.500000 0.072094 0.000000 
0.320611 -0.100000 0.000000 
0.377858 -0.044351 0.000000 
0.315632 -0.046749 0.000000 
0.438393 0.323001 0.000000 
0.437732 0.256917 0.000000 
0.500000 0.323397 0.000000 
0.310634 0.125958 0.000000 
0.374434 0.191317 0.000000 
0.311820 0.188542 0.000000 
0.500000 0.193617 0.000000 
0.437201 0.193036 0.000000 
0.436944 0.131295 0.000000 
0.311766 0.007914 0.000000 
0.373957 0.069565 0.000000 
0.310423 0.065650 0.000000 
0.560379 -0.100000 0.000000 
0.560977 -0.043757 0.000000 
0.684368 -0.046749 0.000000 
0.622142 -0.044351 0.000000 
0.679389 -0.100000 0.000000 
0.562096 0.013335 0.000000 
0.562863 0.071514 0.000000 
0.931927 -0.088181 0.000000 
0.870415 -0.082874 0.000000 
0.927003 -0.151495 0.000000 
0.752860 0.059509 0.000000 
0.813980 -0.010580 0.000000 
0.815066 0.052422 0.000000 
0.799054 -0.136503 0.000000 
0.809593 -0.073503 0.000000 
0.748583 -0.057807 0.000000 
0.562268 0.256917 0.000000 
0.561607 0.323001 0.000000 
0.563056 0.131295 0.000000 
0.562799 0.193036 0.000000 
0.688180 0.188542 0.000000 
0.625566 0.191317 0.000000 
0.689366 0.125958 0.000000 
0.688234 0.007914 0.000000 
0.689577 0.065650 0.000000 
0.626043 0.069565 0.000000 
0.993633 -0.091898 0.000000 
0.935745 -0.023180 0.000000 
0.936284 0.109967 0.000000 
0.937159 0.042956 0.000000 
0.997748 0.041798 0.000000 
0.876306 0.046550 0.000000 
0.814216 0.116298 0.000000 
0.921451 0.386563 0.000000 
0.925817 0.316029 0.000000 
0.985413 0.319147 0.000000 
0.805847 0.316298 0.000000 
0.865998 0.315359 0.000000 
0.802473 0.386117 0.000000 
0.993820 0.179534 0.000000 
0.930044 0.246463 0.000000 
0.933707 0.177795 0.000000 
0.623097 0.321846 0.000000 
0.560921 0.391282 0.000000 
0.750422 0.185031 0.000000 
0.686411 0.253276 0.000000 
0.682294 0.388977 0.000000 
0.684364 0.320102 0.000000 
0.745302 0.318091 0.000000 
0.873157 0.178738 0.000000 
0.809171 0.248094 0.000000 
0.812093 0.181458 0.000000 
0.976271 0.461100 0.000000 
0.917331 0.458148 0.000000 
0.911274 0.604886 0.000000 
0.913810 0.530883 0.000000 
0.969398 0.606216 0.000000 
0.858427 0.457224 0.000000 
0.799382 0.457581 0.000000 
0.924133 0.917976 0.000000 
0.915375 0.836544 0.000000 
0.979928 0.911372 0.000000 
0.795108 0.682010 0.000000 
0.854227 0.759046 0.000000 
0.796596 0.760070 0.000000 
0.968305 0.755404 0.000000 
0.911238 0.757418 0.000000 
0.910199 0.680319 0.000000 
0.620483 0.460949 0.000000 
0.560301 0.461690 0.000000 
0.740069 0.458611 0.000000 
0.680430 0.459847 0.000000 
0.678198 0.607233 0.000000 
0.678996 0.532635 0.000000 
0.736977 0.606385 0.000000 
0.853365 0.604893 0.000000 
0.795340 0.605528 0.000000 
0.796891 0.530713 0.000000 
0.937500 1.000000 0.000000 
0.865610 0.919329 0.000000 
0.745056 0.919682 0.000000 
0.805664 0.919619 0.000000 
0.812500 1.000000 0.000000 
0.800126 0.839445 0.000000 
0.738221 0.760720 0.000000 
0.500000 0.919712 0.000000 
0.561453 0.919707 0.000000 
0.562500 1.000000 0.000000 
0.559944 0.761672 0.000000 
0.560571 0.840209 0.000000 
0.500000 0.761744 0.000000 
0.687500 1.000000 0.000000 
0.622834 0.919702 0.000000 
0.684066 0.919696 0.000000 
0.559838 0.534114 0.000000 
0.500000 0.461946 0.000000 
0.678223 0.683484 0.000000 
0.619036 0.607932 0.000000 
0.500000 0.608553 0.000000 
0.559592 0.608389 0.000000 
0.559617 0.684319 0.000000 
0.681203 0.840004 0.000000 
0.619734 0.761480 0.000000 
0.679213 0.761167 0.000000 
0.437500 1.000000 0.000000 
0.438547 0.919707 0.000000 
0.315934 0.919696 0.000000 
0.377166 0.919702 0.000000 
0.312500 1.000000 0.000000 
0.439429 0.840209 0.000000 
0.440056 0.761672 0.000000 
0.075867 0.917976 0.000000 
0.134390 0.919329 0.000000 
0.062500 1.000000 0.000000 
0.261779 0.760720 0.000000 
0.199874 0.839445 0.000000 
0.203404 0.760070 0.000000 
0.187500 1.000000 0.000000 
0.194336 0.919619 0.000000 
0.254944 0.919682 0.000000 
0.440162 0.534114 0.000000 
0.439699 0.461690 0.000000 
0.440383 0.684319 0.000000 
0.440408 0.608389 0.000000 
0.321802 0.607233 0.000000 
0.380964 0.607932 0.000000 
0.321777 0.683484 0.000000 
0.318797 0.840004 0.000000 
0.320787 0.761167 0.000000 
0.380266 0.761480 0.000000 
0.020072 0.911372 0.000000 
0.084625 0.836544 0.000000 
0.089801 0.680319 0.000000 
0.088762 0.757418 0.000000 
0.031695 0.755404 0.000000 
0.145773 0.759046 0.000000 
0.204892 0.682010 0.000000 
0.078549 0.386563 0.000000 
0.082669 0.458148 0.000000 
0.023729 0.461100 0.000000 
0.200618 0.457581 0.000000 
0.141573 0.457224 0.000000 
0.197527 0.386117 0.000000 
0.030602 0.606216 0.000000 
0.086190 0.530883 0.000000 
0.088726 0.604886 0.000000 
0.379517 0.460949 0.000000 
0.439079 0.391282 0.000000 
0.263023 0.606385 0.000000 
0.321004 0.532635 0.000000 
0.317706 0.388977 0.000000 
0.319570 0.459847 0.000000 
0.259931 0.458611 0.000000 
0.146635 0.604893 0.000000 
0.203109 0.530713 0.000000 
0.204660 0.605528 0.000000 
0.014587 0.319147 0.000000 
0.074183 0.316029 0.000000 
0.066293 0.177795 0.000000 
0.069956 0.246463 0.000000 
0.006180 0.179534 0.000000 
0.134002 0.315359 0.000000 
0.194153 0.316298 0.000000 
0.064255 -0.023180 0.000000 
0.006367 -0.091898 0.000000 
0.185784 0.116298 0.000000 
0.123694 0.046550 0.000000 
0.002252 0.041798 0.000000 
0.062841 0.042956 0.000000 
0.063716 0.109967 0.000000 
0.376903 0.321846 0.000000 
0.254698 0.318091 0.000000 
0.315636 0.320102 0.000000 
0.313589 0.253276 0.000000 
0.249578 0.185031 0.000000 
0.126843 0.178738 0.000000 
0.187907 0.181458 0.000000 
0.190829 0.248094 0.000000 
0.041592 -0.153549 0.000000 
0.070564 -0.120084 0.000000 
0.039426 -0.122074 0.000000 
0.132918 -0.114732 0.000000 
0.101747 -0.117741 0.000000 
0.104657 -0.149096 0.000000 
0.096491 -0.053631 0.000000 
0.098888 -0.085872 0.000000 
0.126972 -0.050722 0.000000 
0.255265 -0.085870 0.000000 
0.225077 -0.097248 0.000000 
0.233133 -0.128464 0.000000 
0.218163 -0.035964 0.000000 
0.220651 -0.066419 0.000000 
0.249257 -0.029343 0.000000 
0.168687 -0.142028 0.000000 
0.194751 -0.105144 0.000000 
0.163974 -0.110700 0.000000 
0.216124 0.087168 0.000000 
0.215883 0.055938 0.000000 
0.247332 0.090171 0.000000 
0.155551 -0.014914 0.000000 
0.185177 0.020851 0.000000 
0.154569 0.017110 0.000000 
0.247329 0.029348 0.000000 
0.216058 0.025052 0.000000 
0.216757 -0.005545 0.000000 
0.160100 -0.078872 0.000000 
0.187655 -0.041989 0.000000 
0.157334 -0.046903 0.000000 
0.500000 -0.071961 0.000000 
0.469719 -0.071966 0.000000 
0.469792 -0.100000 0.000000 
0.469252 -0.015122 0.000000 
0.469519 -0.043655 0.000000 
0.500000 -0.015064 0.000000 
0.409525 -0.100000 0.000000 
0.439457 -0.072005 0.000000 
0.409233 -0.072083 0.000000 
0.468502 0.101641 0.000000 
0.468591 0.071948 0.000000 
0.500000 0.101799 0.000000 
0.406707 0.012782 0.000000 
0.437449 0.042255 0.000000 
0.406036 0.041566 0.000000 
0.500000 0.042755 0.000000 
0.468753 0.042631 0.000000 
0.468981 0.013627 0.000000 
0.292724 -0.100000 0.000000 
0.318640 -0.073156 0.000000 
0.287352 -0.075652 0.000000 
0.379056 -0.072225 0.000000 
0.348912 -0.072500 0.000000 
0.349837 -0.100000 0.000000 
0.345113 -0.017608 0.000000 
0.347000 -0.045107 0.000000 
0.376494 -0.016381 0.000000 
0.438460 -0.015316 0.000000 
0.407569 -0.015696 0.000000 
0.408488 -0.043964 0.000000 
0.469358 0.357133 0.000000 
[...]
POINT_DATA 4225

SCALARS u_h float 2
LOOKUP_TABLE default
0.010367 -0.155560 
-0.010367 -0.155560 
0.000000 0.000000 
0.000000 0.000000 
0.000000 -0.100000 
-0.019257 -0.110189 
0.000000 0.000000 
0.019257 -0.110189 
0.000000 -0.108450 
0.014429 -0.114786 
0.000000 -0.118075 
-0.002162 -0.128683 
-0.014429 -0.114786 
0.002162 -0.128683 
-0.003379 -0.139595 
-0.007444 -0.112574 
-0.032162 -0.069777 
-0.013071 -0.067186 
0.000000 0.000000 
0.000000 -0.065564 
0.000000 0.000000 
0.013071 -0.067186 
0.032162 -0.069777 
0.007444 -0.112574 
0.003379 -0.139595 
0.011566 -0.146056 
-0.002012 -0.125283 
0.000159 -0.143415 
0.000000 -0.111279 
0.000318 -0.113157 
0.004561 -0.100000 
0.000555 -0.119513 
-0.001210 -0.120650 
0.000000 -0.117591 
-0.004561 -0.100000 
-0.000318 -0.113157 
-0.000159 -0.143415 
0.002012 -0.125283 
-0.011566 -0.146056 
0.001210 -0.120650 
-0.000555 -0.119513 
-0.003272 -0.150896 
0.000512 -0.137825 
-0.012926 -0.114397 
-0.005175 -0.128571 
-0.010085 -0.125905 
-0.001976 -0.124376 
-0.003279 -0.109643 
-0.027637 -0.091789 
-0.019603 -0.094707 
-0.016639 -0.036375 
-0.022215 -0.068883 
-0.028256 -0.042885 
-0.011883 -0.093384 
-0.005456 -0.091479 
0.000000 0.000000 
-0.009025 -0.035194 
0.000000 -0.034759 
-0.003983 -0.034869 
0.000000 0.000000 
-0.005925 -0.066006 
0.000000 -0.090676 
0.000000 0.000000 
0.003983 -0.034869 
0.016639 -0.036375 
0.009025 -0.035194 
0.000000 0.000000 
0.005925 -0.066006 
0.005456 -0.091479 
0.028256 -0.042885 
0.022215 -0.068883 
0.012926 -0.114397 
0.019603 -0.094707 
0.027637 -0.091789 
0.011883 -0.093384 
0.003279 -0.109643 
0.010085 -0.125905 
0.005175 -0.128571 
-0.000512 -0.137825 
0.003272 -0.150896 
0.001976 -0.124376 
0.010497 -0.151495 
0.004585 -0.145374 
0.005573 -0.150681 
0.001417 -0.120307 
0.002907 -0.136003 
0.013446 -0.136503 
-0.002566 -0.135078 
-0.001480 -0.135580 
-0.002860 -0.127991 
0.000000 -0.106128 
0.001523 -0.106257 
0.002121 -0.100000 
-0.000363 -0.115986 
0.000404 -0.111665 
0.000000 -0.115406 
0.008111 -0.100000 
0.002858 -0.106851 
0.003132 -0.109249 
0.000893 -0.114499 
0.000232 -0.118083 
0.000000 -0.114103 
-0.001866 -0.124042 
-0.000566 -0.121183 
-0.000680 -0.123958 
0.000000 -0.118883 
-0.000299 -0.119464 
-0.000556 -0.118705 
-0.000734 -0.117086 
-0.001043 -0.117935 
-0.002077 -0.121850 
-0.002121 -0.100000 
-0.001523 -0.106257 
-0.003132 -0.109249 
-0.002858 -0.106851 
-0.008111 -0.100000 
-0.000404 -0.111665 
0.000363 -0.115986 
-0.005573 -0.150681 
-0.004585 -0.145374 
-0.010497 -0.151495 
0.002860 -0.127991 
0.001480 -0.135580 
0.002566 -0.135078 
-0.013446 -0.136503 
-0.002907 -0.136003 
-0.001417 -0.120307 
-0.000232 -0.118083 
-0.000893 -0.114499 
0.000556 -0.118705 
0.000299 -0.119464 
0.000680 -0.123958 
0.000566 -0.121183 
0.001866 -0.124042 
0.000734 -0.117086 
0.002077 -0.121850 
0.001043 -0.117935 
-0.006367 -0.154398 
-0.001755 -0.148180 
-0.001216 -0.140033 
-0.000341 -0.144544 
-0.002252 -0.145702 
0.001306 -0.140950 
0.001716 -0.133702 
-0.016049 -0.113437 
-0.011683 -0.121471 
-0.014587 -0.118353 
-0.006653 -0.121202 
-0.009002 -0.122141 
-0.010027 -0.113883 
-0.006180 -0.132966 
-0.007456 -0.128537 
-0.003793 -0.134705 
-0.001903 -0.115654 
-0.001579 -0.108718 
0.000422 -0.127469 
-0.001089 -0.121724 
-0.005206 -0.111023 
-0.003136 -0.117398 
-0.004698 -0.119409 
-0.001843 -0.133762 
-0.003329 -0.126906 
-0.000407 -0.131042 
-0.023729 -0.101400 
-0.020169 -0.104352 
-0.026226 -0.082614 
-0.023690 -0.094117 
-0.030602 -0.081284 
-0.016573 -0.105276 
-0.013118 -0.104919 
-0.013367 -0.019524 
-0.022125 -0.038456 
-0.020072 -0.026128 
-0.017392 -0.067990 
-0.020773 -0.053454 
-0.015904 -0.052430 
-0.031695 -0.057096 
-0.026262 -0.055082 
-0.027301 -0.069681 
-0.004517 -0.101551 
-0.002199 -0.100810 
-0.009931 -0.103889 
-0.007070 -0.102653 
-0.009302 -0.080267 
-0.008504 -0.092365 
-0.013023 -0.081115 
-0.021635 -0.082607 
-0.017160 -0.081972 
-0.015609 -0.094287 
0.000000 0.000000 
-0.009390 -0.018171 
-0.004944 -0.017818 
-0.006836 -0.017881 
0.000000 0.000000 
-0.012374 -0.035555 
-0.011779 -0.051780 
0.000000 -0.017788 
-0.001047 -0.017793 
0.000000 0.000000 
-0.002556 -0.050828 
-0.001929 -0.034791 
0.000000 -0.050756 
0.000000 0.000000 
-0.002166 -0.017798 
-0.003434 -0.017804 
-0.002662 -0.090886 
0.000000 -0.100554 
-0.009277 -0.066516 
-0.005964 -0.079568 
0.000000 -0.078947 
-0.002908 -0.079111 
-0.002883 -0.065681 
-0.006297 -0.034996 
-0.005266 -0.051020 
-0.008287 -0.051333 
0.000000 0.000000 
0.001047 -0.017793 
0.003434 -0.017804 
0.002166 -0.017798 
0.000000 0.000000 
0.001929 -0.034791 
0.002556 -0.050828 
0.013367 -0.019524 
0.009390 -0.018171 
0.000000 0.000000 
0.011779 -0.051780 
0.012374 -0.035555 
0.015904 -0.052430 
0.000000 0.000000 
0.006836 -0.017881 
0.004944 -0.017818 
0.002662 -0.090886 
0.002199 -0.100810 
0.002883 -0.065681 
0.002908 -0.079111 
0.009302 -0.080267 
0.005964 -0.079568 
0.009277 -0.066516 
0.006297 -0.034996 
0.008287 -0.051333 
0.005266 -0.051020 
0.020072 -0.026128 
0.022125 -0.038456 
0.027301 -0.069681 
0.026262 -0.055082 
0.031695 -0.057096 
0.020773 -0.053454 
0.017392 -0.067990 
0.016049 -0.113437 
0.020169 -0.104352 
0.023729 -0.101400 
0.013118 -0.104919 
0.016573 -0.105276 
0.010027 -0.113883 
0.030602 -0.081284 
0.023690 -0.094117 
0.026226 -0.082614 
0.004517 -0.101551 
0.001579 -0.108718 
0.013023 -0.081115 
0.008504 -0.092365 
0.005206 -0.111023 
0.007070 -0.102653 
0.009931 -0.103889 
0.021635 -0.082607 
0.015609 -0.094287 
0.017160 -0.081972 
0.014587 -0.118353 
0.011683 -0.121471 
0.003793 -0.134705 
0.007456 -0.128537 
0.006180 -0.132966 
0.009002 -0.122141 
0.006653 -0.121202 
0.001755 -0.148180 
0.006367 -0.154398 
-0.001716 -0.133702 
-0.001306 -0.140950 
0.002252 -0.145702 
0.000341 -0.144544 
0.001216 -0.140033 
0.001903 -0.115654 
0.004698 -0.119409 
0.003136 -0.117398 
0.001089 -0.121724 
-0.000422 -0.127469 
0.001843 -0.133762 
0.000407 -0.131042 
0.003329 -0.126906 
0.010342 -0.153549 
0.008064 -0.151334 
0.008176 -0.153324 
0.007918 -0.145982 
0.007997 -0.148991 
0.010907 -0.149096 
0.002741 -0.147381 
0.005138 -0.148372 
0.001972 -0.144472 
0.005265 -0.117120 
0.006327 -0.128498 
0.014383 -0.128464 
-0.000587 -0.129714 
0.001901 -0.128919 
-0.000743 -0.123093 
0.012437 -0.142028 
0.007251 -0.136394 
0.007724 -0.141950 
-0.002626 -0.131582 
-0.002867 -0.131562 
-0.002668 -0.128579 
-0.000699 -0.139914 
-0.002323 -0.135399 
-0.001681 -0.139140 
-0.002671 -0.126902 
-0.002692 -0.131198 
-0.001993 -0.130545 
0.003850 -0.141372 
0.000155 -0.135739 
0.001084 -0.140653 
0.000000 -0.103211 
0.000969 -0.103216 
0.001042 -0.100000 
0.000502 -0.108872 
0.000769 -0.106155 
0.000000 -0.108814 
0.003275 -0.100000 
0.001957 -0.103255 
0.002983 -0.103333 
-0.000248 -0.117109 
-0.000159 -0.115552 
0.000000 -0.116951 
0.000457 -0.112218 
-0.000051 -0.113995 
-0.000214 -0.114684 
0.000000 -0.113495 
0.000003 -0.113619 
0.000231 -0.111373 
0.011474 -0.100000 
0.006140 -0.104406 
0.006102 -0.106902 
0.004056 -0.103475 
0.005162 -0.103750 
0.006087 -0.100000 
0.001363 -0.111358 
0.003250 -0.107607 
0.001494 -0.110131 
0.000960 -0.109066 
0.001319 -0.109446 
0.002238 -0.106464 
0.000608 -0.111617 
0.000438 -0.114201 
0.000000 -0.111538 
0.000375 -0.118687 
0.000553 -0.116567 
0.000864 -0.117113 
0.000000 -0.116123 
0.000270 -0.116235 
0.000110 -0.117715 
-0.002088 -0.126244 
-0.001368 -0.124274 
-0.001449 -0.126209 
-0.000967 -0.121192 
-0.001193 -0.122586 
-0.001555 -0.122164 
0.000018 -0.121766 
-0.000655 -0.122451 
-0.000048 -0.120623 
0.000000 -0.118731 
-0.000233 -0.118887 
-0.000270 -0.118235 
-0.000033 -0.118645 
-0.000151 -0.119031 
0.000000 -0.118508 
-0.000870 -0.119503 
-0.000473 -0.119344 
-0.000720 -0.120110 
-0.000068 -0.119710 
-0.000442 -0.120183 
-0.000058 -0.119047 
0.002232 -0.112984 
-0.000079 -0.114686 
0.000805 -0.113574 
-0.000086 -0.117377 
-0.001492 -0.120616 
-0.000527 -0.117573 
-0.001252 -0.119562 
-0.000859 -0.118376 
-0.000650 -0.116757 
-0.000532 -0.115786 
-0.002479 -0.125742 
-0.002266 -0.122996 
-0.002562 -0.124676 
-0.002123 -0.123243 
-0.001689 -0.121176 
-0.001025 -0.117446 
-0.001536 -0.119608 
-0.001648 -0.119819 
-0.001042 -0.100000 
-0.000969 -0.103216 
-0.002983 -0.103333 
-0.001957 -0.103255 
-0.003275 -0.100000 
-0.000769 -0.106155 
-0.000502 -0.108872 
-0.006102 -0.106902 
-0.006140 -0.104406 
-0.011474 -0.100000 
-0.001494 -0.110131 
-0.003250 -0.107607 
-0.001363 -0.111358 
-0.006087 -0.100000 
-0.005162 -0.103750 
-0.004056 -0.103475 
0.000159 -0.115552 
0.000248 -0.117109 
-0.000231 -0.111373 
-0.000003 -0.113619 
0.000214 -0.114684 
0.000051 -0.113995 
-0.000457 -0.112218 
-0.002238 -0.106464 
-0.001319 -0.109446 
-0.000960 -0.109066 
-0.008176 -0.153324 
-0.008064 -0.151334 
-0.010342 -0.153549 
-0.001972 -0.144472 
-0.005138 -0.148372 
-0.002741 -0.147381 
-0.010907 -0.149096 
-0.007997 -0.148991 
-0.007918 -0.145982 
0.002668 -0.128579 
0.002867 -0.131562 
0.002626 -0.131582 
0.001993 -0.130545 
0.002692 -0.131198 
0.002671 -0.126902 
0.001681 -0.139140 
0.002323 -0.135399 
0.000699 -0.139914 
-0.014383 -0.128464 
-0.006327 -0.128498 
-0.005265 -0.117120 
-0.007724 -0.141950 
-0.007251 -0.136394 
-0.012437 -0.142028 
0.000743 -0.123093 
-0.001901 -0.128919 
0.000587 -0.129714 
-0.001084 -0.140653 
-0.000155 -0.135739 
-0.003850 -0.141372 
-0.000438 -0.114201 
-0.000608 -0.111617 
-0.000110 -0.117715 
-0.000270 -0.116235 
-0.000864 -0.117113 
-0.000553 -0.116567 
-0.000375 -0.118687 
0.000270 -0.118235 
0.000233 -0.118887 
0.000720 -0.120110 
0.000473 -0.119344 
0.000870 -0.119503 
0.000151 -0.119031 
0.000033 -0.118645 
0.001449 -0.126209 
0.001368 -0.124274 
0.002088 -0.126244 
0.000048 -0.120623 
0.000655 -0.122451 
-0.000018 -0.121766 
0.001555 -0.122164 
0.001193 -0.122586 
0.000967 -0.121192 
0.000058 -0.119047 
0.000442 -0.120183 
0.000068 -0.119710 
-0.002232 -0.112984 
0.001492 -0.120616 
0.000086 -0.117377 
-0.000805 -0.113574 
0.000079 -0.114686 
0.002479 -0.125742 
0.001689 -0.121176 
0.002123 -0.123243 
0.002562 -0.124676 
0.002266 -0.122996 
0.000527 -0.117573 
0.000532 -0.115786 
0.000650 -0.116757 
0.000859 -0.118376 
0.001252 -0.119562 
0.001648 -0.119819 
0.001536 -0.119608 
0.001025 -0.117446 
-0.008355 -0.155267 
-0.005959 -0.152589 
-0.002490 -0.149716 
-0.003991 -0.151365 
-0.004606 -0.152916 
-0.003398 -0.149601 
-0.000988 -0.146130 
-0.002236 -0.140192 
-0.001488 -0.142911 
-0.002571 -0.142729 
0.000353 -0.141234 
-0.000525 -0.142391 
-0.000299 -0.139216 
-0.002477 -0.148454 
-0.001243 -0.145431 
-0.001566 -0.147716 
0.002334 -0.134532 
0.002043 -0.131224 
0.000903 -0.142246 
0.002016 -0.138265 
0.001195 -0.135950 
0.001823 -0.137221 
0.001145 -0.139489 
-0.000735 -0.146481 
0.000507 -0.143050 
0.000084 -0.144680 
-0.017653 -0.112158 
-0.015387 -0.116318 
-0.016925 -0.114358 
-0.012395 -0.118251 
-0.013872 -0.117580 
-0.014467 -0.114149 
-0.012290 -0.122197 
-0.013115 -0.120273 
-0.010880 -0.124032 
-0.007174 -0.117049 
-0.008354 -0.117747 
-0.008693 -0.113290 
-0.007053 -0.125516 
-0.007781 -0.121823 
-0.005955 -0.125040 
-0.011441 -0.114279 
-0.009624 -0.118238 
-0.010975 -0.118437 
-0.004606 -0.136335 
-0.004934 -0.134232 
-0.003411 -0.137295 
-0.008734 -0.127606 
-0.006731 -0.131003 
-0.008028 -0.129491 
-0.004417 -0.131795 
-0.005524 -0.131729 
-0.006266 -0.128821 
-0.010307 -0.122058 
-0.008247 -0.125578 
-0.009528 -0.125121 
-0.001238 -0.111880 
-0.000781 -0.108485 
-0.001214 -0.117855 
-0.001377 -0.114988 
-0.002407 -0.109111 
-0.001897 -0.112318 
-0.002598 -0.112914 
0.001397 -0.128312 
0.000613 -0.125656 
-0.001480 -0.123025 
-0.000377 -0.124592 
-0.000717 -0.126157 
-0.000152 -0.123106 
-0.000787 -0.120537 
-0.006283 -0.111800 
-0.005091 -0.115342 
-0.006086 -0.116224 
-0.003356 -0.113640 
-0.004183 -0.114463 
-0.004208 -0.110291 
-0.003316 -0.122127 
-0.003871 -0.118397 
-0.002656 -0.120959 
-0.001619 -0.118770 
-0.002095 -0.119820 
-0.002485 -0.116468 
-0.002332 -0.137471 
-0.003419 -0.131316 
-0.002761 -0.134511 
-0.001363 -0.136980 
-0.000510 -0.135925 
-0.005624 -0.120369 
-0.002590 -0.125699 
-0.004084 -0.123252 
-0.004964 -0.124253 
-0.004193 -0.127897 
0.001178 -0.130469 
0.000213 -0.134410 
0.000782 -0.132548 
0.000085 -0.129302 
-0.001186 -0.127715 
-0.002541 -0.130402 
-0.001795 -0.129165 
-0.001054 -0.132568 
-0.021543 -0.105895 
-0.019861 -0.107784 
-0.023926 -0.098331 
-0.021966 -0.103179 
-0.025775 -0.096701 
-0.018162 -0.109032 
-0.016470 -0.109741 
-0.029344 -0.076196 
-0.028463 -0.082175 
-0.031592 -0.075664 
-0.021649 -0.094579 
-0.025108 -0.088533 
-0.022944 -0.088837 
-0.029264 -0.086654 
-0.027227 -0.087844 
-0.025696 -0.093224 
-0.011627 -0.109608 
-0.010142 -0.109092 
-0.014805 -0.110013 
-0.013185 -0.109940 
-0.016299 -0.100100 
-0.014819 -0.105216 
-0.018188 -0.100177 
-0.022027 -0.099385 
-0.020106 -0.099968 
-0.018364 -0.105018 
-0.008985 -0.010800 
-0.016422 -0.021668 
-0.012937 -0.015625 
-0.019224 -0.037180 
-0.018434 -0.029265 
-0.015682 -0.028021 
-0.024933 -0.034954 
-0.021636 -0.031477 
-0.025228 -0.040360 
-0.015163 -0.067573 
-0.016887 -0.060396 
-0.014667 -0.059998 
-0.021787 -0.061384 
-0.019265 -0.060855 
-0.019749 -0.068431 
-0.016626 -0.044534 
-0.018244 -0.052880 
-0.019084 -0.045105 
-0.032231 -0.063598 
-0.029734 -0.063199 
-0.029796 -0.069882 
-0.027611 -0.048520 
-0.029052 -0.056100 
-0.030428 -0.050218 
-0.024750 -0.069317 
-0.027097 -0.062609 
-0.024418 -0.061978 
-0.021778 -0.045918 
-0.023467 -0.054184 
-0.024662 -0.047049 
-0.001905 -0.105024 
-0.000948 -0.104814 
-0.003926 -0.105852 
-0.002893 -0.105375 
-0.003720 -0.096373 
-0.003335 -0.101125 
-0.005033 -0.096754 
-0.008738 -0.108461 
-0.007417 -0.107774 
-0.009380 -0.098302 
-0.008459 -0.103273 
-0.010991 -0.098861 
-0.006178 -0.107083 
-0.005018 -0.106430 
-0.011245 -0.073952 
-0.011111 -0.080680 
-0.013200 -0.074349 
-0.006942 -0.091893 
-0.008995 -0.086534 
-0.007343 -0.086111 
-0.012573 -0.087465 
-0.010736 -0.086992 
-0.010149 -0.092871 
-0.005758 -0.102069 
-0.007853 -0.097743 
-0.006407 -0.097218 
-0.026982 -0.076339 
-0.022138 -0.075954 
-0.024561 -0.076225 
-0.023935 -0.082725 
-0.020769 -0.088854 
-0.015275 -0.074766 
-0.014504 -0.087925 
-0.015041 -0.081554 
-0.017466 -0.075187 
-0.019761 -0.075593 
-0.011486 -0.104455 
-0.017581 -0.094586 
-0.014459 -0.099812 
-0.012686 -0.099380 
-0.013706 -0.093869 
-0.019365 -0.082337 
-0.016525 -0.088340 
-0.018620 -0.088667 
0.000000 0.000000 
-0.006942 -0.009567 
-0.004817 -0.009015 
-0.005709 -0.009167 
0.000000 0.000000 
-0.011113 -0.018591 
-0.013393 -0.027349 
-0.002541 -0.008950 
-0.002996 -0.008942 
0.000000 0.000000 
-0.008396 -0.026656 
-0.005830 -0.017838 
-0.007128 -0.026580 
0.000000 0.000000 
-0.003511 -0.008941 
-0.004107 -0.008958 
-0.013753 -0.052072 
-0.012604 -0.059652 
-0.014369 -0.035874 
-0.014405 -0.044130 
-0.010584 -0.043611 
-0.012400 -0.043835 
-0.010606 -0.035343 
-0.008002 -0.017974 
-0.009829 -0.026777 
-0.011472 -0.026983 
0.000000 -0.008989 
-0.000266 -0.008990 
0.000000 0.000000 
-0.000751 -0.026390 
-0.000519 -0.017790 
0.000000 -0.026384 
0.000000 0.000000 
-0.000537 -0.008989 
-0.000818 -0.008986 
-0.001369 -0.058350 
-0.001268 -0.050777 
0.000000 -0.058324 
-0.002932 -0.034824 
-0.002278 -0.042942 
-0.003462 -0.042998 
0.000000 -0.042892 
-0.001130 -0.042907 
-0.000956 -0.034769 
0.000000 0.000000 
-0.001765 -0.008968 
-0.002134 -0.008959 
-0.001112 -0.008982 
-0.001426 -0.008976 
0.000000 0.000000 
-0.004012 -0.026459 
-0.002776 -0.017801 
-0.003132 -0.026434 
-0.001515 -0.026400 
-0.002304 -0.026415 
-0.001593 -0.017796 
-0.001093 -0.100618 
0.000000 -0.104752 
-0.004035 -0.091139 
-0.002454 -0.096091 
0.000000 -0.095857 
-0.001220 -0.095917 
-0.001323 -0.090731 
-0.011111 -0.066833 
-0.009403 -0.073586 
-0.006019 -0.072980 
-0.007665 -0.073259 
-0.007553 -0.066239 
-0.007590 -0.079892 
-0.005772 -0.085742 
0.000000 -0.072448 
-0.001456 -0.072486 
-0.001432 -0.065596 
-0.001399 -0.085080 
-0.001445 -0.078990 
0.000000 -0.085031 
-0.004375 -0.065819 
-0.002932 -0.072589 
-0.004447 -0.072755 
-0.004268 -0.085441 
-0.004408 -0.079305 
-0.002816 -0.085218 
-0.004152 -0.017809 
-0.005098 -0.034925 
-0.004959 -0.026489 
-0.005991 -0.026528 
-0.007598 -0.035083 
-0.002758 -0.058418 
-0.005675 -0.058675 
-0.004187 -0.058526 
-0.003882 -0.050909 
-0.004699 -0.043074 
-0.010689 -0.059350 
-0.008930 -0.043434 
-0.009964 -0.051537 
-0.008908 -0.059087 
-0.007242 -0.058863 
-0.006010 -0.043171 
-0.006728 -0.051161 
-0.007413 -0.043289 
0.000000 0.000000 
0.000266 -0.008990 
0.000818 -0.008986 
0.000537 -0.008989 
0.000000 0.000000 
0.000519 -0.017790 
0.000751 -0.026390 
0.002134 -0.008959 
0.001765 -0.008968 
0.000000 0.000000 
0.003132 -0.026434 
0.002776 -0.017801 
0.004012 -0.026459 
0.000000 0.000000 
0.001426 -0.008976 
0.001112 -0.008982 
0.001268 -0.050777 
0.001369 -0.058350 
0.000956 -0.034769 
0.001130 -0.042907 
0.003462 -0.042998 
0.002278 -0.042942 
0.002932 -0.034824 
0.001593 -0.017796 
0.002304 -0.026415 
0.001515 -0.026400 
0.008985 -0.010800 
0.006942 -0.009567 
0.000000 0.000000 
0.013393 -0.027349 
0.011113 -0.018591 
0.015682 -0.028021 
0.000000 0.000000 
0.005709 -0.009167 
0.004817 -0.009015 
0.012604 -0.059652 
0.013753 -0.052072 
0.014667 -0.059998 
0.010606 -0.035343 
0.012400 -0.043835 
0.010584 -0.043611 
0.016626 -0.044534 
0.014405 -0.044130 
0.014369 -0.035874 
0.000000 0.000000 
0.002996 -0.008942 
0.002541 -0.008950 
0.004107 -0.008958 
0.003511 -0.008941 
0.000000 0.000000 
0.007128 -0.026580 
0.005830 -0.017838 
0.008396 -0.026656 
0.011472 -0.026983 
0.009829 -0.026777 
0.008002 -0.017974 
0.001093 -0.100618 
0.000948 -0.104814 
0.001323 -0.090731 
0.001220 -0.095917 
0.003720 -0.096373 
0.002454 -0.096091 
0.004035 -0.091139 
0.001432 -0.065596 
0.001456 -0.072486 
0.004447 -0.072755 
0.002932 -0.072589 
0.004375 -0.065819 
0.001445 -0.078990 
0.001399 -0.085080 
0.011245 -0.073952 
0.009403 -0.073586 
0.011111 -0.066833 
0.005772 -0.085742 
0.007590 -0.079892 
0.007343 -0.086111 
0.007553 -0.066239 
0.007665 -0.073259 
0.006019 -0.072980 
0.002816 -0.085218 
0.004408 -0.079305 
0.004268 -0.085441 
0.004152 -0.017809 
0.007598 -0.035083 
0.005991 -0.026528 
0.004959 -0.026489 
0.005098 -0.034925 
0.010689 -0.059350 
0.007242 -0.058863 
0.008908 -0.059087 
0.009964 -0.051537 
0.008930 -0.043434 
0.002758 -0.058418 
0.004699 -0.043074 
0.003882 -0.050909 
0.004187 -0.058526 
0.005675 -0.058675 
0.007413 -0.043289 
0.006728 -0.051161 
0.006010 -0.043171 
0.012937 -0.015625 
0.016422 -0.021668 
0.025228 -0.040360 
0.021636 -0.031477 
0.024933 -0.034954 
0.018434 -0.029265 
0.019224 -0.037180 
0.029796 -0.069882 
0.029734 -0.063199 
0.032231 -0.063598 
0.024418 -0.061978 
0.027097 -0.062609 
0.024750 -0.069317 
0.030428 -0.050218 
0.029052 -0.056100 
0.027611 -0.048520 
0.016887 -0.060396 
0.015163 -0.067573 
0.019084 -0.045105 
0.018244 -0.052880 
0.019749 -0.068431 
0.019265 -0.060855 
0.021787 -0.061384 
0.024662 -0.047049 
0.023467 -0.054184 
0.021778 -0.045918 
0.017653 -0.112158 
0.019861 -0.107784 
0.021543 -0.105895 
0.016470 -0.109741 
0.018162 -0.109032 
0.014467 -0.114149 
0.025775 -0.096701 
0.021966 -0.103179 
0.023926 -0.098331 
0.010142 -0.109092 
0.011627 -0.109608 
0.008693 -0.113290 
0.018188 -0.100177 
0.014819 -0.105216 
0.016299 -0.100100 
0.011441 -0.114279 
0.013185 -0.109940 
0.014805 -0.110013 
0.031592 -0.075664 
0.028463 -0.082175 
0.029344 -0.076196 
0.025696 -0.093224 
0.027227 -0.087844 
0.029264 -0.086654 
0.022944 -0.088837 
0.025108 -0.088533 
0.021649 -0.094579 
0.018364 -0.105018 
0.020106 -0.099968 
0.022027 -0.099385 
0.001905 -0.105024 
0.000781 -0.108485 
0.005033 -0.096754 
0.003335 -0.101125 
0.002407 -0.109111 
0.002893 -0.105375 
0.003926 -0.105852 
0.013200 -0.074349 
0.011111 -0.080680 
0.010149 -0.092871 
0.010736 -0.086992 
0.012573 -0.087465 
0.008995 -0.086534 
0.006942 -0.091893 
0.006283 -0.111800 
0.007417 -0.107774 
0.008738 -0.108461 
0.005018 -0.106430 
0.006178 -0.107083 
0.004208 -0.110291 