# vtk DataFile Version 2.0
Unstructured Grid Example
ASCII
DATASET UNSTRUCTURED_GRID

POINTS 25 float
0.014702 -0.249355 0.000000 
0.985298 -0.249355 0.000000 
1.000000 1.000000 0.000000 
0.000000 1.000000 0.000000 
0.500000 -0.247860 0.000000 
0.955491 0.321268 0.000000 
0.500000 1.000000 0.000000 
0.044509 0.321268 0.000000 
0.500000 0.306905 0.000000 
0.257672 -0.251551 0.000000 
0.500000 0.014448 0.000000 
0.262109 0.014295 0.000000 
0.742328 -0.251551 0.000000 
0.737891 0.014295 0.000000 
0.974108 0.021884 0.000000 
0.726367 0.311632 0.000000 
0.942166 0.636192 0.000000 
0.723971 0.645859 0.000000 
0.750000 1.000000 0.000000 
0.500000 0.649218 0.000000 
0.250000 1.000000 0.000000 
0.276029 0.645859 0.000000 
0.057834 0.636192 0.000000 
0.273633 0.311632 0.000000 
0.025892 0.021884 0.000000 

CELLS 32 128
3  0 9 11 
3  4 10 9 
3  8 11 10 
3  9 10 11 
3  4 12 10 
3  1 13 12 
3  8 10 13 
3  12 13 10 
3  1 14 13 
3  5 15 14 
3  8 13 15 
3  14 15 13 
3  5 16 15 
3  2 17 16 
3  8 15 17 
3  16 17 15 
3  2 18 17 
3  6 19 18 
3  8 17 19 
3  18 19 17 
3  6 20 19 
3  3 21 20 
3  8 19 21 
3  20 21 19 
3  3 22 21 
3  7 23 22 
3  8 21 23 
3  22 23 21 
3  7 24 23 
3  0 11 24 
3  8 23 11 
3  24 11 23 

CELL_TYPES 32
5
5
5
5
5
5
5
5
5
5
5
5
5
5
5
5
5
5
5
5
5
5
5
5
5
5
5
5
5
5
5
5

POINT_DATA 25

SCALARS u_h float 2
LOOKUP_TABLE default
0.014702 -0.249355 
-0.014702 -0.249355 
0.000000 0.000000 
0.000000 0.000000 
0.000000 -0.247860 
-0.044509 -0.178732 
0.000000 0.000000 
0.044509 -0.178732 
-0.000000 -0.193095 
0.007672 -0.251551 
0.000000 -0.235552 
0.012109 -0.235705 
-0.007672 -0.251551 
-0.012109 -0.235705 
-0.025892 -0.228116 
-0.023633 -0.188368 
-0.057834 -0.113808 
-0.026029 -0.104141 
0.000000 0.000000 
-0.000000 -0.100782 
0.000000 0.000000 
0.026029 -0.104141 
0.057834 -0.113808 
0.023633 -0.188368 
0.025892 -0.228116 

CELL_DATA 32

SCALARS epsilon float 4
LOOKUP_TABLE default
-0.028217 0.061569 0.000000 0.004970
-0.031160 0.048128 0.000000 0.007030
-0.049605 0.155713 0.000000 0.000262
-0.049462 0.061372 0.000000 0.009579
-0.031160 0.048128 0.000000 -0.007030
-0.028217 0.061569 0.000000 -0.004970
-0.049605 0.155713 0.000000 -0.000262
-0.049462 0.061372 0.000000 -0.009579
-0.054378 0.083123 0.000000 -0.009592
-0.082080 0.181712 0.000000 -0.023522
-0.097236 0.172818 0.000000 -0.016942
-0.054570 0.173453 0.000000 -0.011047
-0.084135 0.229665 0.000000 -0.012648
-0.111908 0.368532 0.000000 0.106124
-0.098772 0.284023 0.000000 0.002038
-0.135419 0.284013 0.000000 -0.019295
0.002701 0.337303 0.000000 0.047556
0.000000 0.328579 0.000000 0.000000
-0.109461 0.306095 0.000000 -0.004840
-0.105017 0.338365 0.000000 0.048376
0.000000 0.328579 0.000000 0.000000
0.002701 0.337303 0.000000 -0.047556
-0.109461 0.306095 0.000000 0.004840
-0.105017 0.338365 0.000000 -0.048376
-0.111908 0.368532 0.000000 -0.106124
-0.084135 0.229665 0.000000 0.012648
-0.098772 0.284023 0.000000 -0.002038
-0.135419 0.284013 0.000000 0.019295
-0.082080 0.181712 0.000000 0.023522
-0.054378 0.083123 0.000000 0.009592
-0.097236 0.172818 0.000000 0.016942
-0.054570 0.173453 0.000000 0.011047

SCALARS sigma float 4
LOOKUP_TABLE default
-0.170699 1.234757 0.298275 0.062098
-0.384506 0.884746 0.138694 0.119054
0.098068 3.021619 0.906596 0.004519
-0.797846 1.003180 0.056555 0.146983
-0.384506 0.884746 0.138694 -0.119054
-0.170699 1.234757 0.298275 -0.062098
0.098068 3.021619 0.906596 -0.004519
-0.797846 1.003180 0.056555 -0.146983
-0.744463 1.446359 0.195205 -0.099927
-0.745844 3.147603 0.686954 -0.189480
-1.327471 2.803131 0.413995 -0.176189
0.101433 3.312228 0.997084 -0.048221
-0.353131 4.002251 1.065642 -0.025223
-0.644089 5.756244 1.516159 0.811035
-0.366447 4.750424 1.291359 0.079292
-1.773174 4.278875 0.709276 -0.329428
3.373031 6.881259 3.373031 0.274153
3.285792 6.738481 3.285792 0.000000
-0.565072 4.973515 1.295761 -0.089805
-0.221841 5.505901 1.576002 0.386625
3.285792 6.738481 3.285792 0.000000
3.373031 6.881259 3.373031 -0.274153
-0.565072 4.973515 1.295761 0.089805
-0.221841 5.505901 1.576002 -0.386625
-0.644089 5.756244 1.516159 -0.811035
-0.353131 4.002251 1.065642 0.025223
-0.366447 4.750424 1.291359 -0.079292
-1.773174 4.278875 0.709276 0.329428
-0.745844 3.147603 0.686954 0.189480
-0.744463 1.446359 0.195205 0.099927
-1.327471 2.803131 0.413995 0.176189
0.101433 3.312228 0.997084 0.048221

