# vtk DataFile Version 2.0
Unstructured Grid Example
ASCII
DATASET UNSTRUCTURED_GRID

POINTS 1089 float
0.002131 -0.243928 0.000000 
0.997869 -0.243928 0.000000 
1.000000 1.000000 0.000000 
0.000000 1.000000 0.000000 
0.500000 -0.265519 0.000000 
0.950787 0.313531 0.000000 
0.500000 1.000000 0.000000 
0.049213 0.313531 0.000000 
0.500000 0.299548 0.000000 
0.251129 -0.260522 0.000000 
0.500000 -0.000265 0.000000 
0.262928 0.004099 0.000000 
0.748871 -0.260522 0.000000 
0.737072 0.004099 0.000000 
0.975045 0.020255 0.000000 
0.724204 0.301616 0.000000 
0.935108 0.633306 0.000000 
0.718699 0.637567 0.000000 
0.750000 1.000000 0.000000 
0.500000 0.638976 0.000000 
0.250000 1.000000 0.000000 
0.281301 0.637567 0.000000 
0.064892 0.633306 0.000000 
0.275796 0.301616 0.000000 
0.024955 0.020255 0.000000 
0.126479 -0.253545 0.000000 
0.256802 -0.131968 0.000000 
0.134975 -0.125269 0.000000 
0.500000 -0.136843 0.000000 
0.378452 -0.135703 0.000000 
0.375672 -0.264478 0.000000 
0.384841 0.145772 0.000000 
0.381560 0.000767 0.000000 
0.500000 0.144968 0.000000 
0.624328 -0.264478 0.000000 
0.621548 -0.135703 0.000000 
0.865025 -0.125269 0.000000 
0.743198 -0.131968 0.000000 
0.873521 -0.253545 0.000000 
0.618440 0.000767 0.000000 
0.615159 0.145772 0.000000 
0.986856 -0.115415 0.000000 
0.856013 0.010325 0.000000 
0.837119 0.305205 0.000000 
0.846531 0.153679 0.000000 
0.962788 0.163237 0.000000 
0.730594 0.148371 0.000000 
0.611938 0.300198 0.000000 
0.940402 0.470138 0.000000 
0.829265 0.465450 0.000000 
0.837399 0.815872 0.000000 
0.826582 0.635318 0.000000 
0.942201 0.803488 0.000000 
0.719269 0.464587 0.000000 
0.609622 0.464633 0.000000 
0.875000 1.000000 0.000000 
0.727642 0.818581 0.000000 
0.500000 0.819260 0.000000 
0.614472 0.819054 0.000000 
0.625000 1.000000 0.000000 
0.609740 0.638590 0.000000 
0.500000 0.464735 0.000000 
0.375000 1.000000 0.000000 
0.385528 0.819054 0.000000 
0.162601 0.815872 0.000000 
0.272358 0.818581 0.000000 
0.125000 1.000000 0.000000 
0.390260 0.638590 0.000000 
0.390378 0.464633 0.000000 
0.057799 0.803488 0.000000 
0.173418 0.635318 0.000000 
0.162881 0.305205 0.000000 
0.170735 0.465450 0.000000 
0.059598 0.470138 0.000000 
0.280731 0.464587 0.000000 
0.388062 0.300198 0.000000 
0.037212 0.163237 0.000000 
0.153469 0.153679 0.000000 
0.143987 0.010325 0.000000 
0.013144 -0.115415 0.000000 
0.269406 0.148371 0.000000 
0.064245 -0.248956 0.000000 
0.130687 -0.190290 0.000000 
0.069062 -0.185734 0.000000 
0.253908 -0.197149 0.000000 
0.192307 -0.194107 0.000000 
0.188797 -0.257419 0.000000 
0.199635 -0.062063 0.000000 
0.195908 -0.129009 0.000000 
0.259810 -0.064914 0.000000 
0.500000 -0.202132 0.000000 
0.438505 -0.201890 0.000000 
0.437861 -0.265383 0.000000 
0.439995 -0.069316 0.000000 
0.439229 -0.136573 0.000000 
0.500000 -0.069585 0.000000 
0.313427 -0.262865 0.000000 
0.377007 -0.201004 0.000000 
0.315477 -0.199435 0.000000 
0.443247 0.221275 0.000000 
0.442433 0.145173 0.000000 
0.500000 0.221073 0.000000 
0.322280 0.002115 0.000000 
0.383189 0.072147 0.000000 
0.324710 0.073359 0.000000 
0.500000 0.071218 0.000000 
0.441608 0.071447 0.000000 
0.440791 -0.000012 0.000000 
0.317648 -0.134184 0.000000 
0.379976 -0.068480 0.000000 
0.319920 -0.067031 0.000000 
0.562139 -0.265383 0.000000 
0.561495 -0.201890 0.000000 
0.684523 -0.199435 0.000000 
0.622993 -0.201004 0.000000 
0.686573 -0.262865 0.000000 
0.560771 -0.136573 0.000000 
0.560005 -0.069316 0.000000 
0.930938 -0.185734 0.000000 
0.869313 -0.190290 0.000000 
0.935755 -0.248956 0.000000 
0.740190 -0.064914 0.000000 
0.804092 -0.129009 0.000000 
0.800365 -0.062063 0.000000 
0.811203 -0.257419 0.000000 
0.807693 -0.194107 0.000000 
0.746092 -0.197149 0.000000 
0.557567 0.145173 0.000000 
0.556753 0.221275 0.000000 
0.559209 -0.000012 0.000000 
0.558392 0.071447 0.000000 
0.675290 0.073359 0.000000 
0.616811 0.072147 0.000000 
0.677720 0.002115 0.000000 
0.682352 -0.134184 0.000000 
0.680080 -0.067031 0.000000 
0.620024 -0.068480 0.000000 
0.992512 -0.180544 0.000000 
0.925971 -0.120739 0.000000 
0.915552 0.014772 0.000000 
0.920838 -0.053912 0.000000 
0.981027 -0.048491 0.000000 
0.860593 -0.058416 0.000000 
0.796507 0.006803 0.000000 
0.893879 0.308528 0.000000 
0.899195 0.232212 0.000000 
0.956679 0.237463 0.000000 
0.784466 0.225693 0.000000 
0.841760 0.228395 0.000000 
0.780562 0.303020 0.000000 
0.968945 0.090833 0.000000 
0.904657 0.157814 0.000000 
0.910139 0.085340 0.000000 
0.613517 0.221757 0.000000 
0.555946 0.299873 0.000000 
0.733860 0.075162 0.000000 
0.672821 0.146807 0.000000 
0.668011 0.300735 0.000000 
0.670365 0.222567 0.000000 
0.727338 0.223824 0.000000 
0.851310 0.081006 0.000000 
0.788498 0.150603 0.000000 
0.792536 0.077666 0.000000 
0.945198 0.390969 0.000000 
0.888886 0.386768 0.000000 
0.881618 0.549344 0.000000 
0.884646 0.467011 0.000000 
0.936813 0.550929 0.000000 
0.832828 0.384189 0.000000 
0.777022 0.382685 0.000000 
0.907074 0.905902 0.000000 
0.890056 0.811474 0.000000 
0.956179 0.893483 0.000000 
0.772737 0.636614 0.000000 
0.829450 0.724252 0.000000 
0.775865 0.726258 0.000000 
0.936328 0.717353 0.000000 
0.882644 0.721110 0.000000 
0.880545 0.633935 0.000000 
0.610589 0.381154 0.000000 
0.555265 0.381020 0.000000 
0.721422 0.381846 0.000000 
0.665962 0.381394 0.000000 
0.663761 0.550246 0.000000 
0.664437 0.464580 0.000000 
0.718167 0.549859 0.000000 
0.826925 0.549107 0.000000 
0.772512 0.549420 0.000000 
0.774178 0.464790 0.000000 
0.937500 1.000000 0.000000 
0.852612 0.908981 0.000000 
0.737224 0.909923 0.000000 
0.795501 0.909745 0.000000 
0.812500 1.000000 0.000000 
0.783146 0.817788 0.000000 
0.721604 0.727387 0.000000 
0.500000 0.909952 0.000000 
0.559585 0.909886 0.000000 
0.562500 1.000000 0.000000 
0.555770 0.728529 0.000000 
0.557312 0.819143 0.000000 
0.500000 0.728674 0.000000 
0.687500 1.000000 0.000000 
0.619060 0.909897 0.000000 
0.678323 0.909928 0.000000 
0.554807 0.464688 0.000000 
0.500000 0.380955 0.000000 
0.664360 0.638196 0.000000 
0.609249 0.550533 0.000000 
0.500000 0.550835 0.000000 
0.554647 0.550723 0.000000 
0.554919 0.638831 0.000000 
0.671318 0.818911 0.000000 
0.611397 0.728331 0.000000 
0.666729 0.727997 0.000000 
0.437500 1.000000 0.000000 
0.440415 0.909886 0.000000 
0.321677 0.909928 0.000000 
0.380940 0.909897 0.000000 
0.312500 1.000000 0.000000 
0.442688 0.819143 0.000000 
0.444230 0.728529 0.000000 
0.092926 0.905902 0.000000 
0.147388 0.908981 0.000000 
0.062500 1.000000 0.000000 
0.278396 0.727387 0.000000 
0.216854 0.817788 0.000000 
0.224135 0.726258 0.000000 
0.187500 1.000000 0.000000 
0.204499 0.909745 0.000000 
0.262776 0.909923 0.000000 
0.445193 0.464688 0.000000 
0.444735 0.381020 0.000000 
0.445081 0.638831 0.000000 
0.445353 0.550723 0.000000 
0.336239 0.550246 0.000000 
0.390751 0.550533 0.000000 
0.335640 0.638196 0.000000 
0.328682 0.818911 0.000000 
0.333271 0.727997 0.000000 
0.388603 0.728331 0.000000 
0.043821 0.893483 0.000000 
0.109944 0.811474 0.000000 
0.119455 0.633935 0.000000 
0.117356 0.721110 0.000000 
0.063672 0.717353 0.000000 
0.170550 0.724252 0.000000 
0.227263 0.636614 0.000000 
0.106121 0.308528 0.000000 
0.111114 0.386768 0.000000 
0.054802 0.390969 0.000000 
0.222978 0.382685 0.000000 
0.167172 0.384189 0.000000 
0.219438 0.303020 0.000000 
0.063187 0.550929 0.000000 
0.115354 0.467011 0.000000 
0.118382 0.549344 0.000000 
0.389411 0.381154 0.000000 
0.444054 0.299873 0.000000 
0.281833 0.549859 0.000000 
0.335563 0.464580 0.000000 
0.331989 0.300735 0.000000 
0.334038 0.381394 0.000000 
0.278578 0.381846 0.000000 
0.173075 0.549107 0.000000 
0.225822 0.464790 0.000000 
0.227488 0.549420 0.000000 
0.043321 0.237463 0.000000 
0.100805 0.232212 0.000000 
0.089861 0.085340 0.000000 
0.095343 0.157814 0.000000 
0.031055 0.090833 0.000000 
0.158240 0.228395 0.000000 
0.215534 0.225693 0.000000 
0.074029 -0.120739 0.000000 
0.007488 -0.180544 0.000000 
0.203493 0.006803 0.000000 
0.139407 -0.058416 0.000000 
0.018973 -0.048491 0.000000 
0.079162 -0.053912 0.000000 
0.084448 0.014772 0.000000 
0.386483 0.221757 0.000000 
0.272662 0.223824 0.000000 
0.329635 0.222567 0.000000 
0.327179 0.146807 0.000000 
0.266140 0.075162 0.000000 
0.148690 0.081006 0.000000 
0.207464 0.077666 0.000000 
0.211502 0.150603 0.000000 
0.033179 -0.246455 0.000000 
0.066642 -0.217558 0.000000 
0.035683 -0.215052 0.000000 
0.128581 -0.222135 0.000000 
0.097607 -0.219930 0.000000 
0.095346 -0.251332 0.000000 
0.102168 -0.155826 0.000000 
0.099874 -0.188099 0.000000 
0.132815 -0.158005 0.000000 
0.252504 -0.229059 0.000000 
0.221526 -0.227618 0.000000 
0.219965 -0.259067 0.000000 
0.224722 -0.163383 0.000000 
0.223111 -0.195725 0.000000 
0.255341 -0.164788 0.000000 
0.157632 -0.255577 0.000000 
0.190544 -0.225984 0.000000 
0.159561 -0.224156 0.000000 
0.231461 -0.029362 0.000000 
0.229730 -0.063584 0.000000 
0.261356 -0.030658 0.000000 
0.165446 -0.127237 0.000000 
0.197755 -0.095771 0.000000 
0.167468 -0.094024 0.000000 
0.258291 -0.098680 0.000000 
0.228030 -0.097321 0.000000 
0.226361 -0.130584 0.000000 
0.161498 -0.192295 0.000000 
0.194094 -0.161785 0.000000 
0.163457 -0.159992 0.000000 
0.500000 -0.234061 0.000000 
0.469081 -0.234045 0.000000 
0.468934 -0.265565 0.000000 
0.469428 -0.169671 0.000000 
0.469249 -0.202088 0.000000 
0.500000 -0.169729 0.000000 
0.406774 -0.265019 0.000000 
0.438168 -0.233857 0.000000 
0.407250 -0.233497 0.000000 
0.470196 -0.035124 0.000000 
0.469998 -0.069519 0.000000 
0.500000 -0.035189 0.000000 
0.408843 -0.136216 0.000000 
0.439608 -0.103194 0.000000 
0.409409 -0.102842 0.000000 
0.500000 -0.103465 0.000000 
0.469804 -0.103400 0.000000 
0.469614 -0.136779 0.000000 
0.282284 -0.261787 0.000000 
0.314435 -0.231374 0.000000 
0.283474 -0.230309 0.000000 
0.376323 -0.232964 0.000000 
0.345384 -0.232257 0.000000 
0.344557 -0.263761 0.000000 
0.347138 -0.167900 0.000000 
0.346246 -0.200307 0.000000 
0.377718 -0.168587 0.000000 
0.438860 -0.169467 0.000000 
0.408291 -0.169108 0.000000 
[...]
POINT_DATA 1089

SCALARS u_h float 2
LOOKUP_TABLE default
0.002131 -0.243928 
-0.002131 -0.243928 
0.000000 0.000000 
0.000000 0.000000 
0.000000 -0.265519 
-0.049213 -0.186469 
0.000000 0.000000 
0.049213 -0.186469 
-0.000000 -0.200452 
0.001129 -0.260522 
-0.000000 -0.250265 
0.012928 -0.245901 
-0.001129 -0.260522 
-0.012928 -0.245901 
-0.024955 -0.229745 
-0.025796 -0.198384 
-0.064892 -0.116694 
-0.031301 -0.112433 
0.000000 0.000000 
-0.000000 -0.111024 
0.000000 0.000000 
0.031301 -0.112433 
0.064892 -0.116694 
0.025796 -0.198384 
0.024955 -0.229745 
0.001479 -0.253545 
0.006802 -0.256968 
0.009975 -0.250269 
0.000000 -0.261843 
0.003452 -0.260703 
0.000672 -0.264478 
0.009841 -0.229228 
0.006560 -0.249233 
-0.000000 -0.230032 
-0.000672 -0.264478 
-0.003452 -0.260703 
-0.009975 -0.250269 
-0.006802 -0.256968 
-0.001479 -0.253545 
-0.006560 -0.249233 
-0.009841 -0.229228 
-0.013144 -0.240415 
-0.018987 -0.239675 
-0.037881 -0.194795 
-0.028469 -0.221321 
-0.037212 -0.211763 
-0.019406 -0.226629 
-0.013062 -0.199802 
-0.059598 -0.154862 
-0.045735 -0.159550 
-0.037601 -0.059128 
-0.048418 -0.114682 
-0.057799 -0.071512 
-0.030731 -0.160413 
-0.015378 -0.160367 
0.000000 0.000000 
-0.022358 -0.056419 
0.000000 -0.055740 
-0.010528 -0.055946 
0.000000 0.000000 
-0.015260 -0.111410 
0.000000 -0.160265 
0.000000 0.000000 
0.010528 -0.055946 
0.037601 -0.059128 
0.022358 -0.056419 
0.000000 0.000000 
0.015260 -0.111410 
0.015378 -0.160367 
0.057799 -0.071512 
0.048418 -0.114682 
0.037881 -0.194795 
0.045735 -0.159550 
0.059598 -0.154862 
0.030731 -0.160413 
0.013062 -0.199802 
0.037212 -0.211763 
0.028469 -0.221321 
0.018987 -0.239675 
0.013144 -0.240415 
0.019406 -0.226629 
0.001745 -0.248956 
0.005687 -0.252790 
0.006562 -0.248234 
0.003908 -0.259649 
0.004807 -0.256607 
0.001297 -0.257419 
0.012135 -0.249563 
0.008408 -0.254009 
0.009810 -0.252414 
0.000000 -0.264632 
0.001005 -0.264390 
0.000361 -0.265383 
0.002495 -0.256816 
0.001729 -0.261573 
0.000000 -0.257085 
0.000927 -0.262865 
0.002007 -0.263504 
0.002977 -0.261935 
0.005747 -0.216225 
0.004933 -0.229827 
-0.000000 -0.216427 
0.009780 -0.247885 
0.008189 -0.240353 
0.012210 -0.239141 
-0.000000 -0.241282 
0.004108 -0.241053 
0.003291 -0.250012 
0.005148 -0.259184 
0.004976 -0.255980 
0.007420 -0.254531 
-0.000361 -0.265383 
-0.001005 -0.264390 
-0.002977 -0.261935 
-0.002007 -0.263504 
-0.000927 -0.262865 
-0.001729 -0.261573 
-0.002495 -0.256816 
-0.006562 -0.248234 
-0.005687 -0.252790 
-0.001745 -0.248956 
-0.009810 -0.252414 
-0.008408 -0.254009 
-0.012135 -0.249563 
-0.001297 -0.257419 
-0.004807 -0.256607 
-0.003908 -0.259649 
-0.004933 -0.229827 
-0.005747 -0.216225 
-0.003291 -0.250012 
-0.004108 -0.241053 
-0.012210 -0.239141 
-0.008189 -0.240353 
-0.009780 -0.247885 
-0.005148 -0.259184 
-0.007420 -0.254531 
-0.004976 -0.255980 
-0.007488 -0.243044 
-0.011529 -0.245739 
-0.021948 -0.235228 
-0.016662 -0.241412 
-0.018973 -0.235991 
-0.014407 -0.245916 
-0.015993 -0.243197 
-0.043621 -0.191472 
-0.038305 -0.205288 
-0.043321 -0.200037 
-0.028034 -0.211807 
-0.033240 -0.209105 
-0.031938 -0.196980 
-0.031055 -0.221667 
-0.032843 -0.217186 
-0.027361 -0.227160 
-0.011483 -0.215743 
-0.006554 -0.200127 
-0.016140 -0.237338 
-0.014679 -0.228193 
-0.019489 -0.199265 
-0.017135 -0.214933 
-0.022662 -0.213676 
-0.023690 -0.231494 
-0.024002 -0.224397 
-0.019964 -0.234834 
-0.054802 -0.171531 
-0.048614 -0.175732 
-0.055882 -0.138156 
-0.052854 -0.157989 
-0.063187 -0.136571 
-0.042172 -0.178311 
-0.035478 -0.179815 
-0.030426 -0.031598 
-0.047444 -0.063526 
-0.043821 -0.044017 
-0.039763 -0.113386 
-0.045550 -0.088248 
-0.036635 -0.086242 
-0.063672 -0.095147 
-0.054856 -0.091390 
-0.056955 -0.116065 
-0.014411 -0.181346 
-0.007235 -0.181480 
-0.028578 -0.180654 
-0.021538 -0.181106 
-0.023739 -0.137254 
-0.023063 -0.160420 
-0.031833 -0.137641 
-0.048075 -0.138393 
-0.039988 -0.138080 
-0.038322 -0.160210 
0.000000 0.000000 
-0.022388 -0.028519 
-0.012776 -0.027577 
-0.016999 -0.027755 
0.000000 0.000000 
-0.029354 -0.057212 
-0.028396 -0.085113 
0.000000 -0.027548 
-0.002915 -0.027614 
0.000000 0.000000 
-0.006730 -0.083971 
-0.005188 -0.055857 
-0.000000 -0.083826 
0.000000 0.000000 
-0.005940 -0.027603 
-0.009177 -0.027572 
-0.007693 -0.160312 
-0.000000 -0.181545 
-0.023140 -0.111804 
-0.015751 -0.136967 
0.000000 -0.136665 
-0.007853 -0.136777 
-0.007581 -0.111169 
-0.016182 -0.056089 
-0.013603 -0.084169 
-0.020771 -0.084503 
0.000000 0.000000 
0.002915 -0.027614 
0.009177 -0.027572 
0.005940 -0.027603 
0.000000 0.000000 
0.005188 -0.055857 
0.006730 -0.083971 
0.030426 -0.031598 
0.022388 -0.028519 
0.000000 0.000000 
0.028396 -0.085113 
0.029354 -0.057212 
0.036635 -0.086242 
0.000000 0.000000 
0.016999 -0.027755 
0.012776 -0.027577 
0.007693 -0.160312 
0.007235 -0.181480 
0.007581 -0.111169 
0.007853 -0.136777 
0.023739 -0.137254 
0.015751 -0.136967 
0.023140 -0.111804 
0.016182 -0.056089 
0.020771 -0.084503 
0.013603 -0.084169 
0.043821 -0.044017 
0.047444 -0.063526 
0.056955 -0.116065 
0.054856 -0.091390 
0.063672 -0.095147 
0.045550 -0.088248 
0.039763 -0.113386 
0.043621 -0.191472 
0.048614 -0.175732 
0.054802 -0.171531 
0.035478 -0.179815 
0.042172 -0.178311 
0.031938 -0.196980 
0.063187 -0.136571 
0.052854 -0.157989 
0.055882 -0.138156 
0.014411 -0.181346 
0.006554 -0.200127 
0.031833 -0.137641 
0.023063 -0.160420 
0.019489 -0.199265 
0.021538 -0.181106 
0.028578 -0.180654 
0.048075 -0.138393 
0.038322 -0.160210 
0.039988 -0.138080 
0.043321 -0.200037 
0.038305 -0.205288 
0.027361 -0.227160 
0.032843 -0.217186 
0.031055 -0.221667 
0.033240 -0.209105 
0.028034 -0.211807 
0.011529 -0.245739 
0.007488 -0.243044 
0.015993 -0.243197 
0.014407 -0.245916 
0.018973 -0.235991 
0.016662 -0.241412 
0.021948 -0.235228 
0.011483 -0.215743 
0.022662 -0.213676 
0.017135 -0.214933 
0.014679 -0.228193 
0.016140 -0.237338 
0.023690 -0.231494 
0.019964 -0.234834 
0.024002 -0.224397 
0.001929 -0.246455 
0.004142 -0.248808 
0.004433 -0.246302 
0.003581 -0.253385 
0.003857 -0.251180 
0.001596 -0.251332 
0.008418 -0.249576 
0.006124 -0.250599 
0.007815 -0.251755 
0.002504 -0.260309 
0.002776 -0.258868 
0.001215 -0.259067 
0.005972 -0.257133 
0.004361 -0.258225 
0.005341 -0.258538 
0.001382 -0.255577 
0.003044 -0.257234 
0.003311 -0.255406 
0.012711 -0.248112 
0.010980 -0.251084 
0.011356 -0.249408 
0.009196 -0.252237 
0.010255 -0.252021 
0.011218 -0.250274 
0.008291 -0.254930 
0.009280 -0.253571 
0.007611 -0.255584 
0.005248 -0.254795 
0.006594 -0.255535 
0.007207 -0.253742 
-0.000000 -0.265311 
0.000331 -0.265295 
0.000184 -0.265565 
0.000678 -0.263421 
0.000499 -0.264588 
0.000000 -0.263479 
0.000524 -0.265019 
0.000668 -0.265107 
0.001000 -0.264747 
0.001446 -0.253874 
0.001248 -0.257019 
-0.000000 -0.253939 
0.002593 -0.261216 
0.002108 -0.259444 
0.003159 -0.259092 
0.000000 -0.259715 
0.001054 -0.259650 
0.000864 -0.261779 
0.001034 -0.261787 
0.001935 -0.262624 
0.002224 -0.261559 
0.001323 -0.264214 
0.001634 -0.263507 
0.000807 -0.263761 
0.003388 -0.261650 
0.002496 -0.262807 
0.002718 -0.262337 
0.001360 -0.263217 
0.002041 -0.262858 
0.001508 -0.264031 
0.003062 -0.208634 
0.002869 -0.216362 
-0.000000 -0.208730 
0.007393 -0.229578 
0.005343 -0.223330 
0.008011 -0.223103 
-0.000000 -0.223528 
0.002670 -0.223472 
0.002467 -0.229978 
0.011364 -0.246977 
0.010988 -0.243782 
0.012767 -0.242914 
0.007370 -0.245067 
0.009188 -0.244496 
0.008178 -0.248634 
0.011239 -0.234578 
0.010209 -0.239815 
0.009014 -0.235078 
-0.000000 -0.246051 
0.001850 -0.245991 
0.001647 -0.250203 
0.002262 -0.235892 
0.002055 -0.241225 
-0.000000 -0.235947 
0.004930 -0.249690 
0.003698 -0.245809 
0.005539 -0.245502 
0.006773 -0.235460 
0.006154 -0.240764 
0.004521 -0.235730 
0.003447 -0.260885 
0.004305 -0.260027 
0.004049 -0.260792 
0.004700 -0.259756 
0.005981 -0.258166 
0.002890 -0.253677 
0.005761 -0.252866 
0.004330 -0.253342 
0.003739 -0.256471 
0.004206 -0.258588 
0.009982 -0.250522 
0.007289 -0.256104 
0.008623 -0.253560 
0.008590 -0.251464 
0.007183 -0.252242 
0.005244 -0.257926 
0.006204 -0.255336 
0.006273 -0.257101 
-0.000184 -0.265565 
-0.000331 -0.265295 
-0.001000 -0.264747 
-0.000668 -0.265107 
-0.000524 -0.265019 
-0.000499 -0.264588 
-0.000678 -0.263421 
-0.002224 -0.261559 
-0.001935 -0.262624 
-0.001034 -0.261787 
-0.002718 -0.262337 
-0.002496 -0.262807 
-0.003388 -0.261650 
-0.000807 -0.263761 
-0.001634 -0.263507 
-0.001323 -0.264214 
-0.001248 -0.257019 
-0.001446 -0.253874 
-0.000864 -0.261779 
-0.001054 -0.259650 
-0.003159 -0.259092 
-0.002108 -0.259444 
-0.002593 -0.261216 
-0.001508 -0.264031 
-0.002041 -0.262858 
-0.001360 -0.263217 
-0.004433 -0.246302 
-0.004142 -0.248808 
-0.001929 -0.246455 
-0.007815 -0.251755 
-0.006124 -0.250599 
-0.008418 -0.249576 
-0.001596 -0.251332 
-0.003857 -0.251180 
-0.003581 -0.253385 
-0.011356 -0.249408 
-0.010980 -0.251084 
-0.012711 -0.248112 
-0.007611 -0.255584 
-0.009280 -0.253571 
-0.008291 -0.254930 
-0.011218 -0.250274 
-0.010255 -0.252021 
-0.009196 -0.252237 
-0.001215 -0.259067 
-0.002776 -0.258868 
-0.002504 -0.260309 
-0.003311 -0.255406 
-0.003044 -0.257234 
-0.001382 -0.255577 
-0.005341 -0.258538 
-0.004361 -0.258225 
-0.005972 -0.257133 
-0.007207 -0.253742 
-0.006594 -0.255535 
-0.005248 -0.254795 
-0.002869 -0.216362 
-0.003062 -0.208634 
-0.002467 -0.229978 
-0.002670 -0.223472 
-0.008011 -0.223103 
-0.005343 -0.223330 
-0.007393 -0.229578 
-0.001647 -0.250203 
-0.001850 -0.245991 
-0.005539 -0.245502 
-0.003698 -0.245809 
-0.004930 -0.249690 
-0.002055 -0.241225 
-0.002262 -0.235892 
-0.012767 -0.242914 
-0.010988 -0.243782 
-0.011364 -0.246977 
-0.009014 -0.235078 
-0.010209 -0.239815 
-0.011239 -0.234578 
-0.008178 -0.248634 
-0.009188 -0.244496 
-0.007370 -0.245067 
-0.004521 -0.235730 
-0.006154 -0.240764 
-0.006773 -0.235460 
-0.003447 -0.260885 
-0.005981 -0.258166 
-0.004700 -0.259756 
-0.004049 -0.260792 
-0.004305 -0.260027 
-0.009982 -0.250522 
-0.007183 -0.252242 
-0.008590 -0.251464 
-0.008623 -0.253560 
-0.007289 -0.256104 
-0.002890 -0.253677 
-0.004206 -0.258588 
-0.003739 -0.256471 
-0.004330 -0.253342 
-0.005761 -0.252866 
-0.006273 -0.257101 
-0.006204 -0.255336 
-0.005244 -0.257926 
-0.004744 -0.243703 
-0.007009 -0.245713 
-0.012322 -0.243178 
-0.009643 -0.244672 
-0.010293 -0.241951 
-0.009024 -0.247214 
-0.010750 -0.248102 
-0.023439 -0.232623 
-0.020604 -0.235953 
-0.021946 -0.233097 
-0.017982 -0.240911 
-0.019287 -0.238554 
-0.020467 -0.237574 
-0.016039 -0.238430 
-0.017804 -0.238820 
-0.015043 -0.241228 
-0.014049 -0.246625 
-0.014471 -0.244645 
-0.012172 -0.248325 
-0.013276 -0.247843 
-0.017497 -0.241544 
-0.015370 -0.244936 
-0.016679 -0.243034 
-0.014075 -0.243806 
-0.015533 -0.243774 
-0.013122 -0.246170 
-0.046428 -0.189233 
-0.043649 -0.196271 
-0.046311 -0.193486 
-0.038306 -0.200583 
-0.040989 -0.198619 
-0.040775 -0.193303 
-0.040281 -0.206128 
-0.040810 -0.202860 
-0.037928 -0.208988 
-0.027155 -0.205588 
-0.030012 -0.204679 
-0.028890 -0.197761 
-0.030862 -0.215471 
-0.030657 -0.210576 
-0.028461 -0.217044 
-0.034936 -0.196005 
-0.032823 -0.203567 
-0.035586 -0.202216 
-0.027993 -0.225935 
-0.029198 -0.224569 
-0.026306 -0.228829 
-0.035021 -0.214649 
-0.032107 -0.219843 
-0.034132 -0.216943 
-0.028091 -0.224676 
-0.030098 -0.222412 
-0.030663 -0.219400 
-0.035786 -0.207356 
-0.033233 -0.213627 
-0.035584 -0.211478 
-0.006149 -0.208493 
-0.003282 -0.200258 
-0.010666 -0.222787 
-0.008622 -0.216019 
-0.009816 -0.199984 
-0.009226 -0.208315 
-0.012285 -0.208084 
-0.014524 -0.241882 
-0.014187 -0.238319 
-0.017058 -0.227485 
-0.015620 -0.233181 
-0.017769 -0.232258 
-0.013442 -0.233949 
-0.012272 -0.228770 
-0.022660 -0.198877 
-0.021311 -0.206926 
-0.024254 -0.206328 
-0.015322 -0.207786 
-0.018333 -0.207405 
-0.016288 -0.199567 
-0.021041 -0.220439 
-0.019916 -0.214370 
-0.018494 -0.221218 
-0.013302 -0.222376 
-0.015913 -0.221858 
-0.014322 -0.215386 
-0.024641 -0.231431 
-0.026074 -0.226659 
-0.025528 -0.229461 
-0.022985 -0.233759 
-0.021325 -0.235830 
-0.025369 -0.212830 
-0.021721 -0.225607 
-0.023552 -0.219499 
-0.026025 -0.218376 
-0.026250 -0.222977 
-0.016257 -0.240671 
-0.019655 -0.237661 
-0.017967 -0.239270 
-0.018065 -0.236181 
-0.019889 -0.231164 
-0.024039 -0.228386 
-0.021978 -0.229880 
-0.021837 -0.233278 
-0.052093 -0.179227 
-0.049164 -0.181781 
-0.054123 -0.165502 
-0.051737 -0.173871 
-0.057319 -0.163404 
-0.046192 -0.183850 
-0.043170 -0.185510 
-0.060616 -0.127336 
-0.059608 -0.137599 
-0.064329 -0.126832 
-0.049338 -0.158919 
-0.054558 -0.148342 
-0.050876 -0.148944 
-0.061579 -0.145916 
-0.058128 -0.147373 
-0.056273 -0.156671 
-0.033771 -0.188697 
-0.030531 -0.189335 
-0.040094 -0.186832 
-0.036960 -0.187877 
-0.040572 -0.169867 
-0.038854 -0.179168 
-0.044071 -0.169221 
-0.050851 -0.167115 
-0.047500 -0.168328 
-0.045426 -0.177188 
-0.021109 -0.017227 
-0.036662 -0.036140 
-0.031314 -0.026634 
-0.042335 -0.060914 
-0.040556 -0.048115 
-0.035395 -0.045403 
-0.052180 -0.058494 
-0.046331 -0.052407 
-0.052723 -0.067083 
-0.035497 -0.112864 
-0.038637 -0.100100 
-0.034358 -0.099484 
-0.047485 -0.101813 
-0.043023 -0.100874 
-0.044080 -0.113997 
-0.037841 -0.072766 
-0.041014 -0.087111 
-0.042356 -0.073998 
-0.064734 -0.106142 
-0.060694 -0.105227 
-0.061031 -0.116558 
-0.056877 -0.080619 
-0.059402 -0.093280 
-0.061470 -0.083645 
-0.052729 -0.115397 
-0.056406 -0.104080 
-0.051971 -0.102902 
-0.047110 -0.075692 
-0.050195 -0.089681 
-0.052008 -0.077910 
-0.006922 -0.191123 
-0.003479 -0.191216 
-0.013773 -0.190890 
-0.010353 -0.191019 
-0.011227 -0.171190 
-0.010828 -0.181422 
-0.014954 -0.171169 
-0.027245 -0.189830 
-0.023919 -0.190210 
-0.026080 -0.170990 
-0.025072 -0.180916 
-0.029757 -0.170851 
-0.020562 -0.190500 
-0.017178 -0.190722 
-0.027698 -0.125037 
-0.027774 -0.137436 
-0.031815 -0.125329 
-0.019221 -0.160396 
-0.023532 -0.149139 
-0.019587 -0.149043 
-0.031446 -0.149341 
-0.027486 -0.149242 
-0.026902 -0.160431 
-0.017982 -0.181245 
-0.022384 -0.171079 
-0.018674 -0.171134 
-0.056725 -0.127408 
-0.048559 -0.126868 
-0.052691 -0.127212 
-0.052028 -0.138383 
-0.047098 -0.149280 
-0.035975 -0.125669 
-0.035401 -0.149423 
-0.035909 -0.137861 
-0.040167 -0.126052 
-0.044372 -0.126463 
-0.032050 -0.180298 
-0.042058 -0.159960 
-0.037013 -0.170323 
-0.033404 -0.170638 
-0.034542 -0.160349 
-0.044051 -0.138272 
-0.039340 -0.149465 
-0.043246 -0.149433 
0.000000 0.000000 
-0.016672 -0.014876 
-0.011932 -0.013727 
-0.013932 -0.014061 
0.000000 0.000000 
-0.025900 -0.029521 
-0.030994 -0.043835 
-0.006731 -0.013553 
-0.007800 -0.013535 
0.000000 0.000000 
-0.020793 -0.042101 
-0.014786 -0.027630 
-0.018010 -0.041925 
0.000000 0.000000 
-0.008985 -0.013539 
-0.010335 -0.013587 
-0.032430 -0.085592 
-0.030195 -0.099003 
-0.033290 -0.057963 
-0.033591 -0.071897 
-0.025808 -0.070872 
-0.029589 -0.071291 
-0.025730 -0.056729 
-0.019492 -0.028012 
-0.023827 -0.042407 
-0.027189 -0.042932 
0.000000 -0.013653 
-0.000756 -0.013681 
0.000000 0.000000 
-0.002061 -0.041668 
-0.001449 -0.027596 
0.000000 -0.041608 
0.000000 0.000000 
-0.001525 -0.013686 
-0.002311 -0.013678 
-0.003611 -0.097649 
-0.003357 -0.083896 
-0.000000 -0.097581 
-0.007829 -0.055900 
-0.006050 -0.069981 
-0.009123 -0.070048 
0.000000 -0.069846 
-0.003016 -0.069916 
-0.002584 -0.055807 
0.000000 0.000000 
-0.004826 -0.013610 
-0.005747 -0.013580 
-0.003119 -0.013661 
-0.003954 -0.013638 
0.000000 0.000000 
-0.010653 -0.041748 
-0.007524 -0.027587 
-0.008420 -0.041733 
-0.004141 -0.041701 
-0.006255 -0.041720 
-0.004408 -0.027614 
-0.003627 -0.181523 
-0.000000 -0.191287 
-0.011535 -0.160338 
-0.007494 -0.171204 
0.000000 -0.171205 
-0.003752 -0.171209 
-0.003848 -0.160288 
-0.027183 -0.112083 
-0.023630 -0.124794 
-0.015633 -0.124434 
-0.019609 -0.124595 
-0.019169 -0.111584 
-0.019732 -0.137097 
-0.015654 -0.148957 
-0.000000 -0.124074 
-0.003886 -0.124130 
-0.003785 -0.111087 
-0.003909 -0.148779 
-0.003925 -0.136712 
0.000000 -0.148743 
-0.011401 -0.111275 
-0.007780 -0.124207 
-0.011692 -0.124307 
-0.011732 -0.148885 
-0.011793 -0.136861 
-0.007818 -0.148826 
-0.010919 -0.027564 
-0.013304 -0.056004 
-0.012978 -0.041775 
-0.015419 -0.041827 
-0.019189 -0.056218 
-0.007236 -0.097731 
-0.014595 -0.097962 
-0.010892 -0.097832 
-0.010139 -0.084060 
-0.012253 -0.070129 
-0.026148 -0.098631 
-0.022213 -0.070580 
-0.024515 -0.084761 
-0.022208 -0.098347 
-0.018362 -0.098129 
-0.015463 -0.070233 
-0.017140 -0.084312 
-0.018774 -0.070377 
0.000000 0.000000 
0.000756 -0.013681 
0.002311 -0.013678 
0.001525 -0.013686 
0.000000 0.000000 
0.001449 -0.027596 
0.002061 -0.041668 
0.005747 -0.013580 
0.004826 -0.013610 
0.000000 0.000000 
0.008420 -0.041733 
0.007524 -0.027587 
0.010653 -0.041748 
0.000000 0.000000 
0.003954 -0.013638 
0.003119 -0.013661 
0.003357 -0.083896 
0.003611 -0.097649 
0.002584 -0.055807 
0.003016 -0.069916 
0.009123 -0.070048 
0.006050 -0.069981 
0.007829 -0.055900 
0.004408 -0.027614 
0.006255 -0.041720 
0.004141 -0.041701 
0.021109 -0.017227 
0.016672 -0.014876 
0.000000 0.000000 
0.030994 -0.043835 
0.025900 -0.029521 
0.035395 -0.045403 
0.000000 0.000000 
0.013932 -0.014061 
0.011932 -0.013727 
0.030195 -0.099003 
0.032430 -0.085592 
0.034358 -0.099484 
0.025730 -0.056729 
0.029589 -0.071291 
0.025808 -0.070872 
0.037841 -0.072766 
0.033591 -0.071897 
0.033290 -0.057963 
0.000000 0.000000 
0.007800 -0.013535 
0.006731 -0.013553 
0.010335 -0.013587 
0.008985 -0.013539 
0.000000 0.000000 
0.018010 -0.041925 
0.014786 -0.027630 
0.020793 -0.042101 
0.027189 -0.042932 
0.023827 -0.042407 
0.019492 -0.028012 
0.003627 -0.181523 
0.003479 -0.191216 
0.003848 -0.160288 
0.003752 -0.171209 
0.011227 -0.171190 
0.007494 -0.171204 
0.011535 -0.160338 
0.003785 -0.111087 
0.003886 -0.124130 
0.011692 -0.124307 
0.007780 -0.124207 
0.011401 -0.111275 
0.003925 -0.136712 
0.003909 -0.148779 
0.027698 -0.125037 
0.023630 -0.124794 
0.027183 -0.112083 
0.015654 -0.148957 
0.019732 -0.137097 
0.019587 -0.149043 
0.019169 -0.111584 
0.019609 -0.124595 
0.015633 -0.124434 
0.007818 -0.148826 
0.011793 -0.136861 
0.011732 -0.148885 
0.010919 -0.027564 
0.019189 -0.056218 
0.015419 -0.041827 
0.012978 -0.041775 
0.013304 -0.056004 
0.026148 -0.098631 
0.018362 -0.098129 
0.022208 -0.098347 
0.024515 -0.084761 
0.022213 -0.070580 
0.007236 -0.097731 
0.012253 -0.070129 
0.010139 -0.084060 
0.010892 -0.097832 
0.014595 -0.097962 
0.018774 -0.070377 
0.017140 -0.084312 
0.015463 -0.070233 
0.031314 -0.026634 
0.036662 -0.036140 
0.052723 -0.067083 
0.046331 -0.052407 
0.052180 -0.058494 
0.040556 -0.048115 
0.042335 -0.060914 
0.061031 -0.116558 
0.060694 -0.105227 
0.064734 -0.106142 
0.051971 -0.102902 
0.056406 -0.104080 
0.052729 -0.115397 
0.061470 -0.083645 
0.059402 -0.093280 
0.056877 -0.080619 
0.038637 -0.100100 
0.035497 -0.112864 
0.042356 -0.073998 
0.041014 -0.087111 
0.044080 -0.113997 
0.043023 -0.100874 
0.047485 -0.101813 
0.052008 -0.077910 
0.050195 -0.089681 
0.047110 -0.075692 
0.046428 -0.189233 
0.049164 -0.181781 
0.052093 -0.179227 
0.043170 -0.185510 
0.046192 -0.183850 
0.040775 -0.193303 
0.057319 -0.163404 
0.051737 -0.173871 
0.054123 -0.165502 
0.030531 -0.189335 
0.033771 -0.188697 
0.028890 -0.197761 
0.044071 -0.169221 
0.038854 -0.179168 
0.040572 -0.169867 
0.034936 -0.196005 
0.036960 -0.187877 
0.040094 -0.186832 
0.064329 -0.126832 
0.059608 -0.137599 
0.060616 -0.127336 
0.056273 -0.156671 
0.058128 -0.147373 
0.061579 -0.145916 
0.050876 -0.148944 
0.054558 -0.148342 
0.049338 -0.158919 
0.045426 -0.177188 
0.047500 -0.168328 
0.050851 -0.167115 
0.006922 -0.191123 
0.003282 -0.200258 
0.014954 -0.171169 
0.010828 -0.181422 
0.009816 -0.199984 
0.010353 -0.191019 
0.013773 -0.190890 
0.031815 -0.125329 
0.027774 -0.137436 
0.026902 -0.160431 
0.027486 -0.149242 
0.031446 -0.149341 
0.023532 -0.149139 
0.019221 -0.160396 
0.022660 -0.198877 
0.023919 -0.190210 
0.027245 -0.189830 
0.017178 -0.190722 
0.020562 -0.190500 