# vtk DataFile Version 2.0
Unstructured Grid Example
ASCII
DATASET UNSTRUCTURED_GRID

POINTS 16641 float
0.001505 -0.243565 0.000000 
0.998495 -0.243565 0.000000 
1.000000 1.000000 0.000000 
0.000000 1.000000 0.000000 
0.500000 -0.266276 0.000000 
0.950634 0.313024 0.000000 
0.500000 1.000000 0.000000 
0.049366 0.313024 0.000000 
0.500000 0.299402 0.000000 
0.250916 -0.260921 0.000000 
0.500000 -0.000790 0.000000 
0.262967 0.003670 0.000000 
0.749084 -0.260921 0.000000 
0.737033 0.003670 0.000000 
0.975037 0.020067 0.000000 
0.724145 0.301210 0.000000 
0.934816 0.633174 0.000000 
0.718493 0.637216 0.000000 
0.750000 1.000000 0.000000 
0.500000 0.638554 0.000000 
0.250000 1.000000 0.000000 
0.281507 0.637216 0.000000 
0.065184 0.633174 0.000000 
0.275855 0.301210 0.000000 
0.024963 0.020067 0.000000 
0.126107 -0.253770 0.000000 
0.256737 -0.132398 0.000000 
0.134889 -0.125543 0.000000 
0.500000 -0.137450 0.000000 
0.378429 -0.136234 0.000000 
0.375561 -0.264992 0.000000 
0.384899 0.145329 0.000000 
0.381590 0.000269 0.000000 
0.500000 0.144552 0.000000 
0.624439 -0.264992 0.000000 
0.621571 -0.136234 0.000000 
0.865111 -0.125543 0.000000 
0.743263 -0.132398 0.000000 
0.873893 -0.253770 0.000000 
0.618410 0.000269 0.000000 
0.615101 0.145329 0.000000 
0.986959 -0.115431 0.000000 
0.855976 0.010012 0.000000 
0.837021 0.304823 0.000000 
0.846443 0.153316 0.000000 
0.962725 0.162935 0.000000 
0.730513 0.147949 0.000000 
0.611918 0.299794 0.000000 
0.940248 0.469899 0.000000 
0.829156 0.465082 0.000000 
0.836857 0.815488 0.000000 
0.826325 0.634952 0.000000 
0.941647 0.803188 0.000000 
0.719183 0.464203 0.000000 
0.609588 0.464254 0.000000 
0.875000 1.000000 0.000000 
0.727363 0.818363 0.000000 
0.500000 0.818975 0.000000 
0.614358 0.818890 0.000000 
0.625000 1.000000 0.000000 
0.609636 0.638266 0.000000 
0.500000 0.464329 0.000000 
0.375000 1.000000 0.000000 
0.385642 0.818890 0.000000 
0.163143 0.815488 0.000000 
0.272637 0.818363 0.000000 
0.125000 1.000000 0.000000 
0.390364 0.638266 0.000000 
0.390412 0.464254 0.000000 
0.058353 0.803188 0.000000 
0.173675 0.634952 0.000000 
0.162979 0.304823 0.000000 
0.170844 0.465082 0.000000 
0.059752 0.469899 0.000000 
0.280817 0.464203 0.000000 
0.388082 0.299794 0.000000 
0.037275 0.162935 0.000000 
0.153557 0.153316 0.000000 
0.144024 0.010012 0.000000 
0.013041 -0.115431 0.000000 
0.269487 0.147949 0.000000 
0.063750 -0.249005 0.000000 
0.130477 -0.190551 0.000000 
0.068838 -0.185842 0.000000 
0.253768 -0.197569 0.000000 
0.192129 -0.194461 0.000000 
0.188515 -0.257746 0.000000 
0.199628 -0.062433 0.000000 
0.195829 -0.129373 0.000000 
0.259805 -0.065345 0.000000 
0.500000 -0.202792 0.000000 
0.438481 -0.202482 0.000000 
0.437797 -0.265971 0.000000 
0.440002 -0.069867 0.000000 
0.439223 -0.137149 0.000000 
0.500000 -0.070151 0.000000 
0.313269 -0.263322 0.000000 
0.376945 -0.201533 0.000000 
0.315376 -0.199910 0.000000 
0.443288 0.220893 0.000000 
0.442469 0.144742 0.000000 
0.500000 0.220748 0.000000 
0.322316 0.001646 0.000000 
0.383237 0.071675 0.000000 
0.324769 0.072904 0.000000 
0.500000 0.070741 0.000000 
0.441636 0.070970 0.000000 
0.440810 -0.000529 0.000000 
0.317604 -0.134667 0.000000 
0.379983 -0.068999 0.000000 
0.319922 -0.067511 0.000000 
0.562203 -0.265971 0.000000 
0.561519 -0.202482 0.000000 
0.684624 -0.199910 0.000000 
0.623055 -0.201533 0.000000 
0.686731 -0.263322 0.000000 
0.560777 -0.137149 0.000000 
0.559998 -0.069867 0.000000 
0.931162 -0.185842 0.000000 
0.869523 -0.190551 0.000000 
0.936250 -0.249005 0.000000 
0.740195 -0.065345 0.000000 
0.804171 -0.129373 0.000000 
0.800372 -0.062433 0.000000 
0.811485 -0.257746 0.000000 
0.807871 -0.194461 0.000000 
0.746232 -0.197569 0.000000 
0.557531 0.144742 0.000000 
0.556712 0.220893 0.000000 
0.559190 -0.000529 0.000000 
0.558364 0.070970 0.000000 
0.675231 0.072904 0.000000 
0.616763 0.071675 0.000000 
0.677684 0.001646 0.000000 
0.682396 -0.134667 0.000000 
0.680078 -0.067511 0.000000 
0.620017 -0.068999 0.000000 
0.992755 -0.180404 0.000000 
0.926056 -0.120889 0.000000 
0.915524 0.014527 0.000000 
0.920852 -0.054110 0.000000 
0.981060 -0.048608 0.000000 
0.860602 -0.058706 0.000000 
0.796467 0.006426 0.000000 
0.893757 0.308141 0.000000 
0.899088 0.231839 0.000000 
0.956585 0.237090 0.000000 
0.784374 0.225294 0.000000 
0.841658 0.228014 0.000000 
0.780484 0.302626 0.000000 
0.968907 0.090586 0.000000 
0.904576 0.157481 0.000000 
0.910083 0.085050 0.000000 
0.613464 0.221337 0.000000 
0.555940 0.299513 0.000000 
0.733794 0.074736 0.000000 
0.672751 0.146367 0.000000 
0.667971 0.300323 0.000000 
0.670299 0.222140 0.000000 
0.727259 0.223407 0.000000 
0.851242 0.080668 0.000000 
0.788411 0.150208 0.000000 
0.792467 0.077280 0.000000 
0.945078 0.390630 0.000000 
0.888794 0.386408 0.000000 
0.881439 0.549030 0.000000 
0.884527 0.466679 0.000000 
0.936601 0.550757 0.000000 
0.832744 0.383815 0.000000 
0.776947 0.382299 0.000000 
0.906154 0.905303 0.000000 
0.889470 0.811049 0.000000 
0.955420 0.892375 0.000000 
0.772497 0.636245 0.000000 
0.829066 0.723875 0.000000 
0.775523 0.725905 0.000000 
0.935927 0.717209 0.000000 
0.882249 0.720756 0.000000 
0.880277 0.633618 0.000000 
0.610573 0.380764 0.000000 
0.555275 0.380655 0.000000 
0.721360 0.381451 0.000000 
0.665921 0.380996 0.000000 
0.663655 0.549882 0.000000 
0.664374 0.464197 0.000000 
0.718031 0.549487 0.000000 
0.826759 0.548742 0.000000 
0.772357 0.549044 0.000000 
0.774078 0.464410 0.000000 
0.937500 1.000000 0.000000 
0.852115 0.908730 0.000000 
0.737065 0.909830 0.000000 
0.795234 0.909611 0.000000 
0.812500 1.000000 0.000000 
0.782738 0.817496 0.000000 
0.721331 0.727079 0.000000 
0.500000 0.909791 0.000000 
0.559547 0.909796 0.000000 
0.562500 1.000000 0.000000 
0.555709 0.728246 0.000000 
0.557256 0.818952 0.000000 
0.500000 0.728302 0.000000 
0.687500 1.000000 0.000000 
0.618994 0.909824 0.000000 
0.678222 0.909853 0.000000 
0.554798 0.464307 0.000000 
0.500000 0.380623 0.000000 
0.664201 0.637865 0.000000 
0.609181 0.550171 0.000000 
0.500000 0.550402 0.000000 
0.554616 0.550343 0.000000 
0.554870 0.638482 0.000000 
0.671134 0.818735 0.000000 
0.611271 0.728075 0.000000 
0.666532 0.727728 0.000000 
0.437500 1.000000 0.000000 
0.440453 0.909796 0.000000 
0.321778 0.909853 0.000000 
0.381006 0.909824 0.000000 
0.312500 1.000000 0.000000 
0.442744 0.818952 0.000000 
0.444291 0.728246 0.000000 
0.093846 0.905303 0.000000 
0.147885 0.908730 0.000000 
0.062500 1.000000 0.000000 
0.278669 0.727079 0.000000 
0.217262 0.817496 0.000000 
0.224477 0.725905 0.000000 
0.187500 1.000000 0.000000 
0.204766 0.909611 0.000000 
0.262935 0.909830 0.000000 
0.445202 0.464307 0.000000 
0.444725 0.380655 0.000000 
0.445130 0.638482 0.000000 
0.445384 0.550343 0.000000 
0.336345 0.549882 0.000000 
0.390819 0.550171 0.000000 
0.335799 0.637865 0.000000 
0.328866 0.818735 0.000000 
0.333468 0.727728 0.000000 
0.388729 0.728075 0.000000 
0.044580 0.892375 0.000000 
0.110530 0.811049 0.000000 
0.119723 0.633618 0.000000 
0.117751 0.720756 0.000000 
0.064073 0.717209 0.000000 
0.170934 0.723875 0.000000 
0.227503 0.636245 0.000000 
0.106243 0.308141 0.000000 
0.111206 0.386408 0.000000 
0.054922 0.390630 0.000000 
0.223053 0.382299 0.000000 
0.167256 0.383815 0.000000 
0.219516 0.302626 0.000000 
0.063399 0.550757 0.000000 
0.115473 0.466679 0.000000 
0.118561 0.549030 0.000000 
0.389427 0.380764 0.000000 
0.444060 0.299513 0.000000 
0.281969 0.549487 0.000000 
0.335626 0.464197 0.000000 
0.332029 0.300323 0.000000 
0.334079 0.380996 0.000000 
0.278640 0.381451 0.000000 
0.173241 0.548742 0.000000 
0.225922 0.464410 0.000000 
0.227643 0.549044 0.000000 
0.043415 0.237090 0.000000 
0.100912 0.231839 0.000000 
0.089917 0.085050 0.000000 
0.095424 0.157481 0.000000 
0.031093 0.090586 0.000000 
0.158342 0.228014 0.000000 
0.215626 0.225294 0.000000 
0.073944 -0.120889 0.000000 
0.007245 -0.180404 0.000000 
0.203533 0.006426 0.000000 
0.139398 -0.058706 0.000000 
0.018940 -0.048608 0.000000 
0.079148 -0.054110 0.000000 
0.084476 0.014527 0.000000 
0.386536 0.221337 0.000000 
0.272741 0.223407 0.000000 
0.329701 0.222140 0.000000 
0.327249 0.146367 0.000000 
0.266206 0.074736 0.000000 
0.148758 0.080668 0.000000 
0.207533 0.077280 0.000000 
0.211589 0.150208 0.000000 
0.032611 -0.246353 0.000000 
0.066300 -0.217645 0.000000 
0.035324 -0.215002 0.000000 
0.128292 -0.222383 0.000000 
0.097290 -0.220110 0.000000 
0.094918 -0.251483 0.000000 
0.102026 -0.156031 0.000000 
0.099654 -0.188294 0.000000 
0.132674 -0.158272 0.000000 
0.252325 -0.229469 0.000000 
0.221322 -0.227997 0.000000 
0.219719 -0.259433 0.000000 
0.224607 -0.163778 0.000000 
0.222952 -0.196114 0.000000 
0.255240 -0.165215 0.000000 
0.157309 -0.255859 0.000000 
0.190312 -0.226327 0.000000 
0.159301 -0.224456 0.000000 
0.231480 -0.029766 0.000000 
0.229724 -0.063987 0.000000 
0.261375 -0.031088 0.000000 
0.165362 -0.127561 0.000000 
0.197715 -0.096138 0.000000 
0.167426 -0.094351 0.000000 
0.258259 -0.099112 0.000000 
0.227993 -0.097723 0.000000 
0.226288 -0.130984 0.000000 
0.161303 -0.192607 0.000000 
0.193968 -0.162145 0.000000 
0.163322 -0.160310 0.000000 
0.500000 -0.234762 0.000000 
0.469066 -0.234686 0.000000 
0.468902 -0.266210 0.000000 
0.469424 -0.170283 0.000000 
0.469242 -0.202715 0.000000 
0.500000 -0.170359 0.000000 
0.406685 -0.265566 0.000000 
0.438130 -0.234450 0.000000 
0.407188 -0.234051 0.000000 
0.470203 -0.035667 0.000000 
0.470003 -0.070080 0.000000 
0.500000 -0.035735 0.000000 
0.408829 -0.136770 0.000000 
0.439609 -0.103758 0.000000 
0.409407 -0.103388 0.000000 
0.500000 -0.104052 0.000000 
0.469806 -0.103979 0.000000 
0.469613 -0.137375 0.000000 
0.282100 -0.262216 0.000000 
0.314304 -0.231840 0.000000 
0.283320 -0.230749 0.000000 
0.376238 -0.233486 0.000000 
0.345277 -0.232751 0.000000 
0.344422 -0.264246 0.000000 
0.347082 -0.168406 0.000000 
0.346165 -0.200808 0.000000 
0.377677 -0.169119 0.000000 
0.438847 -0.170053 0.000000 
0.408265 -0.169666 0.000000 
[...]
POINT_DATA 16641

SCALARS u_h float 2
LOOKUP_TABLE default
0.001505 -0.243565 
-0.001505 -0.243565 
0.000000 0.000000 
0.000000 0.000000 
-0.000000 -0.266276 
-0.049366 -0.186976 
0.000000 0.000000 
0.049366 -0.186976 
-0.000000 -0.200598 
0.000916 -0.260921 
-0.000000 -0.250790 
0.012967 -0.246330 
-0.000916 -0.260921 
-0.012967 -0.246330 
-0.024963 -0.229933 
-0.025855 -0.198790 
-0.065184 -0.116826 
-0.031507 -0.112784 
0.000000 0.000000 
-0.000000 -0.111446 
0.000000 0.000000 
0.031507 -0.112784 
0.065184 -0.116826 
0.025855 -0.198790 
0.024963 -0.229933 
0.001107 -0.253770 
0.006737 -0.257398 
0.009889 -0.250543 
-0.000000 -0.262450 
0.003429 -0.261234 
0.000561 -0.264992 
0.009899 -0.229671 
0.006590 -0.249731 
-0.000000 -0.230448 
-0.000561 -0.264992 
-0.003429 -0.261234 
-0.009889 -0.250543 
-0.006737 -0.257398 
-0.001107 -0.253770 
-0.006590 -0.249731 
-0.009899 -0.229671 
-0.013041 -0.240431 
-0.019024 -0.239988 
-0.037979 -0.195177 
-0.028557 -0.221684 
-0.037275 -0.212065 
-0.019487 -0.227051 
-0.013082 -0.200206 
-0.059752 -0.155101 
-0.045844 -0.159918 
-0.038143 -0.059512 
-0.048675 -0.115048 
-0.058353 -0.071812 
-0.030817 -0.160797 
-0.015412 -0.160746 
0.000000 0.000000 
-0.022637 -0.056637 
-0.000000 -0.056025 
-0.010642 -0.056110 
0.000000 0.000000 
-0.015364 -0.111734 
-0.000000 -0.160671 
0.000000 0.000000 
0.010642 -0.056110 
0.038143 -0.059512 
0.022637 -0.056637 
0.000000 0.000000 
0.015364 -0.111734 
0.015412 -0.160746 
0.058353 -0.071812 
0.048675 -0.115048 
0.037979 -0.195177 
0.045844 -0.159918 
0.059752 -0.155101 
0.030817 -0.160797 
0.013082 -0.200206 
0.037275 -0.212065 
0.028557 -0.221684 
0.019024 -0.239988 
0.013041 -0.240431 
0.019487 -0.227051 
0.001250 -0.249005 
0.005477 -0.253051 
0.006338 -0.248342 
0.003768 -0.260069 
0.004629 -0.256961 
0.001015 -0.257746 
0.012128 -0.249933 
0.008329 -0.254373 
0.009805 -0.252845 
-0.000000 -0.265292 
0.000981 -0.264982 
0.000297 -0.265971 
0.002502 -0.257367 
0.001723 -0.262149 
-0.000000 -0.257651 
0.000769 -0.263322 
0.001945 -0.264033 
0.002876 -0.262410 
0.005788 -0.216607 
0.004969 -0.230258 
-0.000000 -0.216752 
0.009816 -0.248354 
0.008237 -0.240825 
0.012269 -0.239596 
-0.000000 -0.241759 
0.004136 -0.241530 
0.003310 -0.250529 
0.005104 -0.259667 
0.004983 -0.256499 
0.007422 -0.255011 
-0.000297 -0.265971 
-0.000981 -0.264982 
-0.002876 -0.262410 
-0.001945 -0.264033 
-0.000769 -0.263322 
-0.001723 -0.262149 
-0.002502 -0.257367 
-0.006338 -0.248342 
-0.005477 -0.253051 
-0.001250 -0.249005 
-0.009805 -0.252845 
-0.008329 -0.254373 
-0.012128 -0.249933 
-0.001015 -0.257746 
-0.004629 -0.256961 
-0.003768 -0.260069 
-0.004969 -0.230258 
-0.005788 -0.216607 
-0.003310 -0.250529 
-0.004136 -0.241530 
-0.012269 -0.239596 
-0.008237 -0.240825 
-0.009816 -0.248354 
-0.005104 -0.259667 
-0.007422 -0.255011 
-0.004983 -0.256499 
-0.007245 -0.242904 
-0.011444 -0.245889 
-0.021976 -0.235473 
-0.016648 -0.241610 
-0.018940 -0.236108 
-0.014398 -0.246206 
-0.016033 -0.243574 
-0.043743 -0.191859 
-0.038412 -0.205661 
-0.043415 -0.200410 
-0.028126 -0.212206 
-0.033342 -0.209486 
-0.032016 -0.197374 
-0.031093 -0.221914 
-0.032924 -0.217519 
-0.027417 -0.227450 
-0.011536 -0.216163 
-0.006560 -0.200487 
-0.016206 -0.237764 
-0.014749 -0.228633 
-0.019529 -0.199677 
-0.017201 -0.215360 
-0.022741 -0.214093 
-0.023758 -0.231832 
-0.024089 -0.224792 
-0.020033 -0.235220 
-0.054922 -0.171870 
-0.048706 -0.176092 
-0.056061 -0.138470 
-0.052973 -0.158321 
-0.063399 -0.136743 
-0.042256 -0.178685 
-0.035553 -0.180201 
-0.031346 -0.032197 
-0.048030 -0.063951 
-0.044580 -0.045125 
-0.040003 -0.113755 
-0.045934 -0.088625 
-0.036977 -0.086595 
-0.064073 -0.095291 
-0.055251 -0.091744 
-0.057223 -0.116382 
-0.014427 -0.181736 
-0.007225 -0.181845 
-0.028640 -0.181049 
-0.021579 -0.181504 
-0.023845 -0.137618 
-0.023126 -0.160803 
-0.031969 -0.138013 
-0.048241 -0.138758 
-0.040143 -0.138456 
-0.038422 -0.160590 
0.000000 0.000000 
-0.022885 -0.028770 
-0.012935 -0.027670 
-0.017266 -0.027889 
0.000000 0.000000 
-0.029762 -0.057504 
-0.028669 -0.085421 
0.000000 -0.027709 
-0.002953 -0.027704 
0.000000 0.000000 
-0.006791 -0.084254 
-0.005244 -0.056048 
-0.000000 -0.084198 
0.000000 0.000000 
-0.006006 -0.027676 
-0.009278 -0.027647 
-0.007702 -0.160693 
-0.000000 -0.181877 
-0.023299 -0.112135 
-0.015819 -0.137329 
-0.000000 -0.137098 
-0.007884 -0.137157 
-0.007630 -0.111518 
-0.016366 -0.056265 
-0.013729 -0.084425 
-0.020968 -0.084772 
0.000000 0.000000 
0.002953 -0.027704 
0.009278 -0.027647 
0.006006 -0.027676 
0.000000 0.000000 
0.005244 -0.056048 
0.006791 -0.084254 
0.031346 -0.032197 
0.022885 -0.028770 
0.000000 0.000000 
0.028669 -0.085421 
0.029762 -0.057504 
0.036977 -0.086595 
0.000000 0.000000 
0.017266 -0.027889 
0.012935 -0.027670 
0.007702 -0.160693 
0.007225 -0.181845 
0.007630 -0.111518 
0.007884 -0.137157 
0.023845 -0.137618 
0.015819 -0.137329 
0.023299 -0.112135 
0.016366 -0.056265 
0.020968 -0.084772 
0.013729 -0.084425 
0.044580 -0.045125 
0.048030 -0.063951 
0.057223 -0.116382 
0.055251 -0.091744 
0.064073 -0.095291 
0.045934 -0.088625 
0.040003 -0.113755 
0.043743 -0.191859 
0.048706 -0.176092 
0.054922 -0.171870 
0.035553 -0.180201 
0.042256 -0.178685 
0.032016 -0.197374 
0.063399 -0.136743 
0.052973 -0.158321 
0.056061 -0.138470 
0.014427 -0.181736 
0.006560 -0.200487 
0.031969 -0.138013 
0.023126 -0.160803 
0.019529 -0.199677 
0.021579 -0.181504 
0.028640 -0.181049 
0.048241 -0.138758 
0.038422 -0.160590 
0.040143 -0.138456 
0.043415 -0.200410 
0.038412 -0.205661 
0.027417 -0.227450 
0.032924 -0.217519 
0.031093 -0.221914 
0.033342 -0.209486 
0.028126 -0.212206 
0.011444 -0.245889 
0.007245 -0.242904 
0.016033 -0.243574 
0.014398 -0.246206 
0.018940 -0.236108 
0.016648 -0.241610 
0.021976 -0.235473 
0.011536 -0.216163 
0.022741 -0.214093 
0.017201 -0.215360 
0.014749 -0.228633 
0.016206 -0.237764 
0.023758 -0.231832 
0.020033 -0.235220 
0.024089 -0.224792 
0.001361 -0.246353 
0.003800 -0.248895 
0.004074 -0.246252 
0.003292 -0.253633 
0.003540 -0.251360 
0.001168 -0.251483 
0.008276 -0.249781 
0.005904 -0.250794 
0.007674 -0.252022 
0.002325 -0.260719 
0.002572 -0.259247 
0.000969 -0.259433 
0.005857 -0.257528 
0.004202 -0.258614 
0.005240 -0.258965 
0.001059 -0.255859 
0.002812 -0.257577 
0.003051 -0.255706 
0.012730 -0.248516 
0.010974 -0.251487 
0.011375 -0.249838 
0.009112 -0.252561 
0.010215 -0.252388 
0.011176 -0.250601 
0.008259 -0.255362 
0.009243 -0.253973 
0.007538 -0.255984 
0.005053 -0.255107 
0.006468 -0.255895 
0.007072 -0.254060 
-0.000000 -0.266012 
0.000316 -0.265936 
0.000152 -0.266210 
0.000674 -0.264033 
0.000492 -0.265215 
-0.000000 -0.264109 
0.000435 -0.265566 
0.000630 -0.265700 
0.000938 -0.265301 
0.001453 -0.254417 
0.001253 -0.257580 
-0.000000 -0.254485 
0.002579 -0.261770 
0.002109 -0.260008 
0.003157 -0.259638 
-0.000000 -0.260302 
0.001056 -0.260229 
0.000863 -0.262375 
0.000850 -0.262216 
0.001804 -0.263090 
0.002070 -0.261999 
0.001238 -0.264736 
0.001527 -0.264001 
0.000672 -0.264246 
0.003332 -0.262156 
0.002415 -0.263308 
0.002677 -0.262869 
0.001347 -0.263803 
0.002015 -0.263416 
0.001467 -0.264589 
0.003093 -0.208950 
0.002896 -0.216715 
-0.000000 -0.208982 
0.007442 -0.230016 
0.005382 -0.223736 
0.008061 -0.223523 
-0.000000 -0.223904 
0.002694 -0.223862 
0.002487 -0.230400 
0.011402 -0.247428 
0.011037 -0.244244 
0.012819 -0.243361 
0.007410 -0.245552 
0.009233 -0.244971 
0.008212 -0.249119 
0.011300 -0.235032 
0.010263 -0.240280 
0.009068 -0.235535 
-0.000000 -0.246553 
0.001863 -0.246492 
0.001657 -0.250725 
0.002279 -0.236343 
0.002070 -0.241702 
-0.000000 -0.236395 
0.004955 -0.250200 
0.003721 -0.246307 
0.005571 -0.245995 
0.006818 -0.235917 
0.006193 -0.241239 
0.004553 -0.236184 
0.003327 -0.261333 
0.004271 -0.260534 
0.003977 -0.261272 
0.004613 -0.260211 
0.005926 -0.258624 
0.002903 -0.254212 
0.005781 -0.253376 
0.004347 -0.253866 
0.003747 -0.257008 
0.004199 -0.259114 
0.010002 -0.250976 
0.007262 -0.256563 
0.008621 -0.254017 
0.008611 -0.251939 
0.007203 -0.252736 
0.005231 -0.258432 
0.006209 -0.255836 
0.006253 -0.257583 
-0.000152 -0.266210 
-0.000316 -0.265936 
-0.000938 -0.265301 
-0.000630 -0.265700 
-0.000435 -0.265566 
-0.000492 -0.265215 
-0.000674 -0.264033 
-0.002070 -0.261999 
-0.001804 -0.263090 
-0.000850 -0.262216 
-0.002677 -0.262869 
-0.002415 -0.263308 
-0.003332 -0.262156 
-0.000672 -0.264246 
-0.001527 -0.264001 
-0.001238 -0.264736 
-0.001253 -0.257580 
-0.001453 -0.254417 
-0.000863 -0.262375 
-0.001056 -0.260229 
-0.003157 -0.259638 
-0.002109 -0.260008 
-0.002579 -0.261770 
-0.001467 -0.264589 
-0.002015 -0.263416 
-0.001347 -0.263803 
-0.004074 -0.246252 
-0.003800 -0.248895 
-0.001361 -0.246353 
-0.007674 -0.252022 
-0.005904 -0.250794 
-0.008276 -0.249781 
-0.001168 -0.251483 
-0.003540 -0.251360 
-0.003292 -0.253633 
-0.011375 -0.249838 
-0.010974 -0.251487 
-0.012730 -0.248516 
-0.007538 -0.255984 
-0.009243 -0.253973 
-0.008259 -0.255362 
-0.011176 -0.250601 
-0.010215 -0.252388 
-0.009112 -0.252561 
-0.000969 -0.259433 
-0.002572 -0.259247 
-0.002325 -0.260719 
-0.003051 -0.255706 
-0.002812 -0.257577 
-0.001059 -0.255859 
-0.005240 -0.258965 
-0.004202 -0.258614 
-0.005857 -0.257528 
-0.007072 -0.254060 
-0.006468 -0.255895 
-0.005053 -0.255107 
-0.002896 -0.216715 
-0.003093 -0.208950 
-0.002487 -0.230400 
-0.002694 -0.223862 
-0.008061 -0.223523 
-0.005382 -0.223736 
-0.007442 -0.230016 
-0.001657 -0.250725 
-0.001863 -0.246492 
-0.005571 -0.245995 
-0.003721 -0.246307 
-0.004955 -0.250200 
-0.002070 -0.241702 
-0.002279 -0.236343 
-0.012819 -0.243361 
-0.011037 -0.244244 
-0.011402 -0.247428 
-0.009068 -0.235535 
-0.010263 -0.240280 
-0.011300 -0.235032 
-0.008212 -0.249119 
-0.009233 -0.244971 
-0.007410 -0.245552 
-0.004553 -0.236184 
-0.006193 -0.241239 
-0.006818 -0.235917 
-0.003327 -0.261333 
-0.005926 -0.258624 
-0.004613 -0.260211 
-0.003977 -0.261272 
-0.004271 -0.260534 
-0.010002 -0.250976 
-0.007203 -0.252736 
-0.008611 -0.251939 
-0.008621 -0.254017 
-0.007262 -0.256563 
-0.002903 -0.254212 
-0.004199 -0.259114 
-0.003747 -0.257008 
-0.004347 -0.253866 
-0.005781 -0.253376 
-0.006253 -0.257583 
-0.006209 -0.255836 
-0.005231 -0.258432 
-0.004366 -0.243454 
-0.006782 -0.245707 
-0.012232 -0.243257 
-0.009498 -0.244710 
-0.010133 -0.241898 
-0.008882 -0.247341 
-0.010665 -0.248319 
-0.023459 -0.232837 
-0.020605 -0.236137 
-0.021937 -0.233252 
-0.017996 -0.241172 
-0.019296 -0.238775 
-0.020501 -0.237853 
-0.015975 -0.238501 
-0.017783 -0.238973 
-0.014992 -0.241346 
-0.014067 -0.246998 
-0.014511 -0.245049 
-0.012130 -0.248606 
-0.013268 -0.248175 
-0.017536 -0.241891 
-0.015388 -0.245274 
-0.016696 -0.243336 
-0.014031 -0.243979 
-0.015522 -0.244019 
-0.013079 -0.246400 
-0.046565 -0.189647 
-0.043771 -0.196671 
-0.046426 -0.193916 
-0.038418 -0.200964 
-0.041108 -0.199004 
-0.040884 -0.193683 
-0.040358 -0.206461 
-0.040914 -0.203234 
-0.038015 -0.209334 
-0.027235 -0.205994 
-0.030100 -0.205077 
-0.028958 -0.198162 
-0.030958 -0.215845 
-0.030755 -0.210966 
-0.028556 -0.217429 
-0.035024 -0.196392 
-0.032918 -0.203957 
-0.035690 -0.202600 
-0.028017 -0.226154 
-0.029246 -0.224837 
-0.026341 -0.229070 
-0.035094 -0.214968 
-0.032167 -0.220136 
-0.034182 -0.217217 
-0.028166 -0.225008 
-0.030167 -0.222725 
-0.030749 -0.219748 
-0.035892 -0.207731 
-0.033330 -0.213990 
-0.035678 -0.211832 
-0.006182 -0.208860 
-0.003282 -0.200556 
-0.010724 -0.223217 
-0.008670 -0.216425 
-0.009828 -0.200373 
-0.009262 -0.208711 
-0.012326 -0.208495 
-0.014578 -0.242309 
-0.014251 -0.238762 
-0.017134 -0.227918 
-0.015691 -0.233618 
-0.017845 -0.232682 
-0.013509 -0.234397 
-0.012336 -0.229213 
-0.022709 -0.199287 
-0.021375 -0.207343 
-0.024325 -0.206741 
-0.015370 -0.208204 
-0.018388 -0.207825 
-0.016318 -0.199978 
-0.021123 -0.220859 
-0.019989 -0.214793 
-0.018570 -0.221647 
-0.013367 -0.222811 
-0.015984 -0.222292 
-0.014382 -0.215811 
-0.024684 -0.231699 
-0.026153 -0.227011 
-0.025591 -0.229776 
-0.023034 -0.234055 
-0.021379 -0.236156 
-0.025455 -0.213239 
-0.021806 -0.226016 
-0.023639 -0.219909 
-0.026117 -0.218775 
-0.026339 -0.223357 
-0.016313 -0.241077 
-0.019711 -0.238016 
-0.018023 -0.239651 
-0.018134 -0.236589 
-0.019967 -0.231572 
-0.024119 -0.228758 
-0.022058 -0.230271 
-0.021907 -0.233641 
-0.052214 -0.179638 
-0.049269 -0.182164 
-0.054235 -0.165825 
-0.051839 -0.174224 
-0.057452 -0.163688 
-0.046289 -0.184223 
-0.043262 -0.185883 
-0.060846 -0.127585 
-0.059799 -0.137857 
-0.064578 -0.126980 
-0.049451 -0.159273 
-0.054704 -0.148663 
-0.051014 -0.149293 
-0.061759 -0.146118 
-0.058287 -0.147647 
-0.056406 -0.156967 
-0.033845 -0.189086 
-0.030597 -0.189730 
-0.040180 -0.187209 
-0.037041 -0.188260 
-0.040660 -0.170245 
-0.038935 -0.179548 
-0.044163 -0.169592 
-0.050952 -0.167460 
-0.047595 -0.168688 
-0.045514 -0.177554 
-0.022522 -0.018514 
-0.037497 -0.036826 
-0.031855 -0.028914 
-0.042912 -0.061324 
-0.041273 -0.048590 
-0.036086 -0.045838 
-0.052834 -0.059040 
-0.047038 -0.052950 
-0.053302 -0.067513 
-0.035722 -0.113226 
-0.038928 -0.100464 
-0.034627 -0.099834 
-0.047801 -0.102184 
-0.043329 -0.101245 
-0.044331 -0.114369 
-0.038272 -0.073129 
-0.041381 -0.087481 
-0.042818 -0.074381 
-0.065075 -0.106272 
-0.061023 -0.105492 
-0.061305 -0.116809 
-0.057353 -0.080967 
-0.059797 -0.093576 
-0.061940 -0.083835 
-0.052992 -0.115749 
-0.056731 -0.104411 
-0.052293 -0.103262 
-0.047587 -0.076082 
-0.050587 -0.090054 
-0.052489 -0.078295 
-0.006910 -0.191482 
-0.003458 -0.191530 
-0.013788 -0.191287 
-0.010355 -0.191404 
-0.011237 -0.171570 
-0.010830 -0.181802 
-0.014976 -0.171554 
-0.027303 -0.190229 
-0.023968 -0.190613 
-0.026141 -0.171381 
-0.025124 -0.181313 
-0.029827 -0.171240 
-0.020600 -0.190905 
-0.017205 -0.191125 
-0.027850 -0.125393 
-0.027896 -0.137804 
-0.031984 -0.125692 
-0.019270 -0.160777 
-0.023614 -0.149514 
-0.019653 -0.149415 
-0.031553 -0.149720 
-0.027582 -0.149618 
-0.026977 -0.160814 
-0.018011 -0.181640 
-0.022433 -0.171469 
-0.018710 -0.171523 
-0.056944 -0.127720 
-0.048767 -0.127233 
-0.052904 -0.127559 
-0.052201 -0.138730 
-0.047232 -0.149646 
-0.036158 -0.126038 
-0.035518 -0.149803 
-0.036055 -0.138236 
-0.040362 -0.126425 
-0.044574 -0.126835 
-0.032119 -0.180688 
-0.042163 -0.160336 
-0.037097 -0.170706 
-0.033482 -0.171025 
-0.034635 -0.160732 
-0.044213 -0.138645 
-0.039464 -0.149843 
-0.043375 -0.149807 
0.000000 0.000000 
-0.017312 -0.015347 
-0.012137 -0.013842 
-0.014261 -0.014271 
0.000000 0.000000 
-0.026597 -0.029907 
-0.031580 -0.044188 
-0.006801 -0.013593 
-0.007887 -0.013582 
0.000000 0.000000 
-0.021089 -0.042285 
-0.014990 -0.027739 
-0.018244 -0.042081 
0.000000 0.000000 
-0.009096 -0.013596 
-0.010480 -0.013664 
-0.032740 -0.085924 
-0.030438 -0.099337 
-0.033769 -0.058302 
-0.033978 -0.072230 
-0.026097 -0.071142 
-0.029928 -0.071592 
-0.026069 -0.056981 
-0.019851 -0.028189 
-0.024200 -0.042630 
-0.027661 -0.043210 
0.000000 -0.013737 
-0.000771 -0.013737 
0.000000 0.000000 
-0.002087 -0.041840 
-0.001470 -0.027710 
0.000000 -0.041836 
0.000000 0.000000 
-0.001549 -0.013729 
-0.002341 -0.013715 
-0.003638 -0.098002 
-0.003386 -0.084214 
0.000000 -0.097983 
-0.007914 -0.056071 
-0.006111 -0.070220 
-0.009215 -0.070268 
-0.000000 -0.070179 
-0.003046 -0.070192 
-0.002613 -0.056033 
0.000000 0.000000 
-0.004874 -0.013644 
-0.005804 -0.013617 
-0.003153 -0.013695 
-0.003994 -0.013671 
0.000000 0.000000 
-0.010773 -0.041865 
-0.007606 -0.027659 
-0.008513 -0.041850 
-0.004190 -0.041841 
-0.006326 -0.041843 
-0.004460 -0.027691 
-0.003614 -0.181869 
-0.000000 -0.191547 
-0.011556 -0.160717 
-0.007493 -0.171578 
-0.000000 -0.171581 
-0.003747 -0.171581 
-0.003851 -0.160678 
-0.027366 -0.112423 
-0.023761 -0.125144 
-0.015719 -0.124781 
-0.019719 -0.124941 
-0.019301 -0.111908 
-0.019819 -0.137459 
-0.015704 -0.149330 
-0.000000 -0.124506 
-0.003905 -0.124525 
-0.003808 -0.111465 
-0.003917 -0.149179 
-0.003939 -0.137114 
-0.000000 -0.149167 
-0.011478 -0.111606 
-0.007821 -0.124576 
-0.011756 -0.124660 
-0.011766 -0.149261 
-0.011842 -0.137229 
-0.007838 -0.149210 
-0.011045 -0.027647 
-0.013451 -0.056171 
-0.013127 -0.041899 
-0.015606 -0.041964 
-0.019416 -0.056412 
-0.007293 -0.098051 
-0.014713 -0.098255 
-0.010979 -0.098134 
-0.010232 -0.084323 
-0.012379 -0.070340 
-0.026362 -0.098949 
-0.022456 -0.070825 
-0.024751 -0.085048 
-0.022390 -0.098651 
-0.018512 -0.098424 
-0.015624 -0.070448 
-0.017301 -0.084571 
-0.018974 -0.070603 
0.000000 0.000000 
0.000771 -0.013737 
0.002341 -0.013715 
0.001549 -0.013729 
0.000000 0.000000 
0.001470 -0.027710 
0.002087 -0.041840 
0.005804 -0.013617 
0.004874 -0.013644 
0.000000 0.000000 
0.008513 -0.041850 
0.007606 -0.027659 
0.010773 -0.041865 
0.000000 0.000000 
0.003994 -0.013671 
0.003153 -0.013695 
0.003386 -0.084214 
0.003638 -0.098002 
0.002613 -0.056033 
0.003046 -0.070192 
0.009215 -0.070268 
0.006111 -0.070220 
0.007914 -0.056071 
0.004460 -0.027691 
0.006326 -0.041843 
0.004190 -0.041841 
0.022522 -0.018514 
0.017312 -0.015347 
0.000000 0.000000 
0.031580 -0.044188 
0.026597 -0.029907 
0.036086 -0.045838 
0.000000 0.000000 
0.014261 -0.014271 
0.012137 -0.013842 
0.030438 -0.099337 
0.032740 -0.085924 
0.034627 -0.099834 
0.026069 -0.056981 
0.029928 -0.071592 
0.026097 -0.071142 
0.038272 -0.073129 
0.033978 -0.072230 
0.033769 -0.058302 
0.000000 0.000000 
0.007887 -0.013582 
0.006801 -0.013593 
0.010480 -0.013664 
0.009096 -0.013596 
0.000000 0.000000 
0.018244 -0.042081 
0.014990 -0.027739 
0.021089 -0.042285 
0.027661 -0.043210 
0.024200 -0.042630 
0.019851 -0.028189 
0.003614 -0.181869 
0.003458 -0.191530 
0.003851 -0.160678 
0.003747 -0.171581 
0.011237 -0.171570 
0.007493 -0.171578 
0.011556 -0.160717 
0.003808 -0.111465 
0.003905 -0.124525 
0.011756 -0.124660 
0.007821 -0.124576 
0.011478 -0.111606 
0.003939 -0.137114 
0.003917 -0.149179 
0.027850 -0.125393 
0.023761 -0.125144 
0.027366 -0.112423 
0.015704 -0.149330 
0.019819 -0.137459 
0.019653 -0.149415 
0.019301 -0.111908 
0.019719 -0.124941 
0.015719 -0.124781 
0.007838 -0.149210 
0.011842 -0.137229 
0.011766 -0.149261 
0.011045 -0.027647 
0.019416 -0.056412 
0.015606 -0.041964 
0.013127 -0.041899 
0.013451 -0.056171 
0.026362 -0.098949 
0.018512 -0.098424 
0.022390 -0.098651 
0.024751 -0.085048 
0.022456 -0.070825 
0.007293 -0.098051 
0.012379 -0.070340 
0.010232 -0.084323 
0.010979 -0.098134 
0.014713 -0.098255 
0.018974 -0.070603 
0.017301 -0.084571 
0.015624 -0.070448 
0.031855 -0.028914 
0.037497 -0.036826 
0.053302 -0.067513 
0.047038 -0.052950 
0.052834 -0.059040 
0.041273 -0.048590 
0.042912 -0.061324 
0.061305 -0.116809 
0.061023 -0.105492 
0.065075 -0.106272 
0.052293 -0.103262 
0.056731 -0.104411 
0.052992 -0.115749 
0.061940 -0.083835 
0.059797 -0.093576 
0.057353 -0.080967 
0.038928 -0.100464 
0.035722 -0.113226 
0.042818 -0.074381 
0.041381 -0.087481 
0.044331 -0.114369 
0.043329 -0.101245 
0.047801 -0.102184 
0.052489 -0.078295 
0.050587 -0.090054 
0.047587 -0.076082 
0.046565 -0.189647 
0.049269 -0.182164 
0.052214 -0.179638 
0.043262 -0.185883 
0.046289 -0.184223 
0.040884 -0.193683 
0.057452 -0.163688 
0.051839 -0.174224 
0.054235 -0.165825 
0.030597 -0.189730 
0.033845 -0.189086 
0.028958 -0.198162 
0.044163 -0.169592 
0.038935 -0.179548 
0.040660 -0.170245 
0.035024 -0.196392 
0.037041 -0.188260 
0.040180 -0.187209 
0.064578 -0.126980 
0.059799 -0.137857 
0.060846 -0.127585 
0.056406 -0.156967 
0.058287 -0.147647 
0.061759 -0.146118 
0.051014 -0.149293 
0.054704 -0.148663 
0.049451 -0.159273 
0.045514 -0.177554 
0.047595 -0.168688 
0.050952 -0.167460 
0.006910 -0.191482 
0.003282 -0.200556 
0.014976 -0.171554 
0.010830 -0.181802 
0.009828 -0.200373 
0.010355 -0.191404 
0.013788 -0.191287 
0.031984 -0.125692 
0.027896 -0.137804 
0.026977 -0.160814 
0.027582 -0.149618 
0.031553 -0.149720 
0.023614 -0.149514 
0.019270 -0.160777 
0.022709 -0.199287 
0.023968 -0.190613 
0.027303 -0.190229 
0.017205 -0.191125 