# vtk DataFile Version 2.0
Unstructured Grid Example
ASCII
DATASET UNSTRUCTURED_GRID

POINTS 4225 float
0.001652 -0.243644 0.000000 
0.998348 -0.243644 0.000000 
1.000000 1.000000 0.000000 
0.000000 1.000000 0.000000 
0.500000 -0.266092 0.000000 
0.950670 0.313157 0.000000 
0.500000 1.000000 0.000000 
0.049330 0.313157 0.000000 
0.500000 0.299442 0.000000 
0.250959 -0.260819 0.000000 
0.500000 -0.000662 0.000000 
0.262959 0.003779 0.000000 
0.749041 -0.260819 0.000000 
0.737041 0.003779 0.000000 
0.975039 0.020125 0.000000 
0.724160 0.301314 0.000000 
0.934887 0.633222 0.000000 
0.718545 0.637306 0.000000 
0.750000 1.000000 0.000000 
0.500000 0.638654 0.000000 
0.250000 1.000000 0.000000 
0.281455 0.637306 0.000000 
0.065113 0.633222 0.000000 
0.275840 0.301314 0.000000 
0.024961 0.020125 0.000000 
0.126182 -0.253702 0.000000 
0.256750 -0.132290 0.000000 
0.134907 -0.125466 0.000000 
0.500000 -0.137305 0.000000 
0.378434 -0.136104 0.000000 
0.375584 -0.264866 0.000000 
0.384887 0.145441 0.000000 
0.381584 0.000392 0.000000 
0.500000 0.144659 0.000000 
0.624416 -0.264866 0.000000 
0.621566 -0.136104 0.000000 
0.865093 -0.125466 0.000000 
0.743250 -0.132290 0.000000 
0.873818 -0.253702 0.000000 
0.618416 0.000392 0.000000 
0.615113 0.145441 0.000000 
0.986939 -0.115407 0.000000 
0.855984 0.010096 0.000000 
0.837044 0.304921 0.000000 
0.846462 0.153411 0.000000 
0.962739 0.163015 0.000000 
0.730531 0.148056 0.000000 
0.611923 0.299897 0.000000 
0.940285 0.469967 0.000000 
0.829184 0.465179 0.000000 
0.836995 0.815590 0.000000 
0.826390 0.635050 0.000000 
0.941786 0.803265 0.000000 
0.719206 0.464301 0.000000 
0.609598 0.464350 0.000000 
0.875000 1.000000 0.000000 
0.727435 0.818419 0.000000 
0.500000 0.819039 0.000000 
0.614388 0.818930 0.000000 
0.625000 1.000000 0.000000 
0.609663 0.638346 0.000000 
0.500000 0.464430 0.000000 
0.375000 1.000000 0.000000 
0.385612 0.818930 0.000000 
0.163005 0.815590 0.000000 
0.272565 0.818419 0.000000 
0.125000 1.000000 0.000000 
0.390337 0.638346 0.000000 
0.390402 0.464350 0.000000 
0.058214 0.803265 0.000000 
0.173610 0.635050 0.000000 
0.162956 0.304921 0.000000 
0.170816 0.465179 0.000000 
0.059715 0.469967 0.000000 
0.280794 0.464301 0.000000 
0.388077 0.299897 0.000000 
0.037261 0.163015 0.000000 
0.153538 0.153411 0.000000 
0.144016 0.010096 0.000000 
0.013061 -0.115407 0.000000 
0.269469 0.148056 0.000000 
0.063854 -0.248973 0.000000 
0.130520 -0.190476 0.000000 
0.068883 -0.185799 0.000000 
0.253797 -0.197463 0.000000 
0.192166 -0.194368 0.000000 
0.188572 -0.257658 0.000000 
0.199629 -0.062337 0.000000 
0.195845 -0.129278 0.000000 
0.259806 -0.065236 0.000000 
0.500000 -0.202636 0.000000 
0.438486 -0.202340 0.000000 
0.437812 -0.265830 0.000000 
0.440001 -0.069733 0.000000 
0.439224 -0.137010 0.000000 
0.500000 -0.070014 0.000000 
0.313301 -0.263208 0.000000 
0.376958 -0.201404 0.000000 
0.315397 -0.199792 0.000000 
0.443280 0.220992 0.000000 
0.442462 0.144851 0.000000 
0.500000 0.220837 0.000000 
0.322309 0.001763 0.000000 
0.383227 0.071793 0.000000 
0.324756 0.073018 0.000000 
0.500000 0.070859 0.000000 
0.441630 0.071089 0.000000 
0.440806 -0.000403 0.000000 
0.317613 -0.134547 0.000000 
0.379981 -0.068872 0.000000 
0.319922 -0.067392 0.000000 
0.562188 -0.265830 0.000000 
0.561514 -0.202340 0.000000 
0.684603 -0.199792 0.000000 
0.623042 -0.201404 0.000000 
0.686699 -0.263208 0.000000 
0.560776 -0.137010 0.000000 
0.559999 -0.069733 0.000000 
0.931117 -0.185799 0.000000 
0.869480 -0.190476 0.000000 
0.936146 -0.248973 0.000000 
0.740194 -0.065236 0.000000 
0.804155 -0.129278 0.000000 
0.800371 -0.062337 0.000000 
0.811428 -0.257658 0.000000 
0.807834 -0.194368 0.000000 
0.746203 -0.197463 0.000000 
0.557538 0.144851 0.000000 
0.556720 0.220992 0.000000 
0.559194 -0.000403 0.000000 
0.558370 0.071089 0.000000 
0.675244 0.073018 0.000000 
0.616773 0.071793 0.000000 
0.677691 0.001763 0.000000 
0.682387 -0.134547 0.000000 
0.680078 -0.067392 0.000000 
0.620019 -0.068872 0.000000 
0.992708 -0.180414 0.000000 
0.926040 -0.120838 0.000000 
0.915530 0.014597 0.000000 
0.920850 -0.054049 0.000000 
0.981054 -0.048563 0.000000 
0.860601 -0.058627 0.000000 
0.796475 0.006524 0.000000 
0.893785 0.308239 0.000000 
0.899113 0.231936 0.000000 
0.956607 0.237184 0.000000 
0.784395 0.225396 0.000000 
0.841681 0.228112 0.000000 
0.780503 0.302727 0.000000 
0.968916 0.090656 0.000000 
0.904594 0.157569 0.000000 
0.910095 0.085129 0.000000 
0.613475 0.221444 0.000000 
0.555942 0.299607 0.000000 
0.733808 0.074844 0.000000 
0.672766 0.146478 0.000000 
0.667981 0.300428 0.000000 
0.670314 0.222248 0.000000 
0.727276 0.223513 0.000000 
0.851257 0.080757 0.000000 
0.788430 0.150309 0.000000 
0.792482 0.077379 0.000000 
0.945106 0.390718 0.000000 
0.888816 0.386502 0.000000 
0.881484 0.549116 0.000000 
0.884557 0.466768 0.000000 
0.936653 0.550812 0.000000 
0.832765 0.383912 0.000000 
0.776966 0.382399 0.000000 
0.906400 0.905448 0.000000 
0.889621 0.811171 0.000000 
0.955652 0.892607 0.000000 
0.772558 0.636342 0.000000 
0.829163 0.723977 0.000000 
0.775609 0.725997 0.000000 
0.936025 0.717260 0.000000 
0.882347 0.720855 0.000000 
0.880344 0.633706 0.000000 
0.610579 0.380863 0.000000 
0.555275 0.380749 0.000000 
0.721376 0.381552 0.000000 
0.665933 0.381098 0.000000 
0.663683 0.549975 0.000000 
0.664391 0.464294 0.000000 
0.718067 0.549582 0.000000 
0.826801 0.548839 0.000000 
0.772397 0.549142 0.000000 
0.774104 0.464508 0.000000 
0.937500 1.000000 0.000000 
0.852251 0.908794 0.000000 
0.737109 0.909853 0.000000 
0.795308 0.909646 0.000000 
0.812500 1.000000 0.000000 
0.782842 0.817572 0.000000 
0.721400 0.727157 0.000000 
0.500000 0.909827 0.000000 
0.559557 0.909817 0.000000 
0.562500 1.000000 0.000000 
0.555725 0.728313 0.000000 
0.557270 0.818997 0.000000 
0.500000 0.728388 0.000000 
0.687500 1.000000 0.000000 
0.619011 0.909842 0.000000 
0.678250 0.909872 0.000000 
0.554801 0.464403 0.000000 
0.500000 0.380712 0.000000 
0.664241 0.637949 0.000000 
0.609199 0.550262 0.000000 
0.500000 0.550507 0.000000 
0.554625 0.550437 0.000000 
0.554883 0.638567 0.000000 
0.671182 0.818779 0.000000 
0.611303 0.728138 0.000000 
0.666582 0.727795 0.000000 
0.437500 1.000000 0.000000 
0.440443 0.909817 0.000000 
0.321750 0.909872 0.000000 
0.380989 0.909842 0.000000 
0.312500 1.000000 0.000000 
0.442730 0.818997 0.000000 
0.444275 0.728313 0.000000 
0.093600 0.905448 0.000000 
0.147749 0.908794 0.000000 
0.062500 1.000000 0.000000 
0.278600 0.727157 0.000000 
0.217158 0.817572 0.000000 
0.224391 0.725997 0.000000 
0.187500 1.000000 0.000000 
0.204692 0.909646 0.000000 
0.262891 0.909853 0.000000 
0.445199 0.464403 0.000000 
0.444725 0.380749 0.000000 
0.445117 0.638567 0.000000 
0.445375 0.550437 0.000000 
0.336317 0.549975 0.000000 
0.390801 0.550262 0.000000 
0.335759 0.637949 0.000000 
0.328818 0.818779 0.000000 
0.333418 0.727795 0.000000 
0.388697 0.728138 0.000000 
0.044348 0.892607 0.000000 
0.110379 0.811171 0.000000 
0.119656 0.633706 0.000000 
0.117653 0.720855 0.000000 
0.063975 0.717260 0.000000 
0.170837 0.723977 0.000000 
0.227442 0.636342 0.000000 
0.106215 0.308239 0.000000 
0.111184 0.386502 0.000000 
0.054894 0.390718 0.000000 
0.223034 0.382399 0.000000 
0.167235 0.383912 0.000000 
0.219497 0.302727 0.000000 
0.063347 0.550812 0.000000 
0.115443 0.466768 0.000000 
0.118516 0.549116 0.000000 
0.389421 0.380863 0.000000 
0.444058 0.299607 0.000000 
0.281933 0.549582 0.000000 
0.335609 0.464294 0.000000 
0.332019 0.300428 0.000000 
0.334067 0.381098 0.000000 
0.278624 0.381552 0.000000 
0.173199 0.548839 0.000000 
0.225896 0.464508 0.000000 
0.227603 0.549142 0.000000 
0.043393 0.237184 0.000000 
0.100887 0.231936 0.000000 
0.089905 0.085129 0.000000 
0.095406 0.157569 0.000000 
0.031084 0.090656 0.000000 
0.158319 0.228112 0.000000 
0.215605 0.225396 0.000000 
0.073960 -0.120838 0.000000 
0.007292 -0.180414 0.000000 
0.203525 0.006524 0.000000 
0.139399 -0.058627 0.000000 
0.018946 -0.048563 0.000000 
0.079150 -0.054049 0.000000 
0.084470 0.014597 0.000000 
0.386525 0.221444 0.000000 
0.272724 0.223513 0.000000 
0.329686 0.222248 0.000000 
0.327234 0.146478 0.000000 
0.266192 0.074844 0.000000 
0.148743 0.080757 0.000000 
0.207518 0.077379 0.000000 
0.211570 0.150309 0.000000 
0.032737 -0.246356 0.000000 
0.066371 -0.217605 0.000000 
0.035398 -0.214993 0.000000 
0.128351 -0.222311 0.000000 
0.097356 -0.220051 0.000000 
0.095006 -0.251430 0.000000 
0.102054 -0.155969 0.000000 
0.099699 -0.188232 0.000000 
0.132703 -0.158197 0.000000 
0.252362 -0.229365 0.000000 
0.221364 -0.227899 0.000000 
0.219769 -0.259337 0.000000 
0.224631 -0.163676 0.000000 
0.222985 -0.196014 0.000000 
0.255261 -0.165107 0.000000 
0.157374 -0.255780 0.000000 
0.190360 -0.226236 0.000000 
0.159354 -0.224373 0.000000 
0.231476 -0.029662 0.000000 
0.229725 -0.063884 0.000000 
0.261371 -0.030979 0.000000 
0.165379 -0.127474 0.000000 
0.197723 -0.096043 0.000000 
0.167435 -0.094264 0.000000 
0.258266 -0.099003 0.000000 
0.228001 -0.097620 0.000000 
0.226303 -0.130881 0.000000 
0.161344 -0.192522 0.000000 
0.193994 -0.162050 0.000000 
0.163350 -0.160224 0.000000 
0.500000 -0.234596 0.000000 
0.469069 -0.234533 0.000000 
0.468911 -0.266057 0.000000 
0.469425 -0.170136 0.000000 
0.469243 -0.202565 0.000000 
0.500000 -0.170209 0.000000 
0.406704 -0.265434 0.000000 
0.438138 -0.234308 0.000000 
0.407201 -0.233918 0.000000 
0.470202 -0.035535 0.000000 
0.470002 -0.069945 0.000000 
0.500000 -0.035603 0.000000 
0.408832 -0.136636 0.000000 
0.439608 -0.103622 0.000000 
0.409407 -0.103255 0.000000 
0.500000 -0.103911 0.000000 
0.469805 -0.103839 0.000000 
0.469613 -0.137232 0.000000 
0.282137 -0.262108 0.000000 
0.314331 -0.231724 0.000000 
0.283352 -0.230638 0.000000 
0.376255 -0.233359 0.000000 
0.345299 -0.232630 0.000000 
0.344450 -0.264126 0.000000 
0.347093 -0.168282 0.000000 
0.346182 -0.200685 0.000000 
0.377686 -0.168989 0.000000 
0.438849 -0.169912 0.000000 
0.408270 -0.169531 0.000000 
[...]
POINT_DATA 4225

SCALARS u_h float 2
LOOKUP_TABLE default
0.001652 -0.243644 
-0.001652 -0.243644 
0.000000 0.000000 
0.000000 0.000000 
0.000000 -0.266092 
-0.049330 -0.186843 
0.000000 0.000000 
0.049330 -0.186843 
0.000000 -0.200558 
0.000959 -0.260819 
0.000000 -0.250662 
0.012959 -0.246221 
-0.000959 -0.260819 
-0.012959 -0.246221 
-0.024961 -0.229875 
-0.025840 -0.198686 
-0.065113 -0.116778 
-0.031455 -0.112694 
0.000000 0.000000 
0.000000 -0.111346 
0.000000 0.000000 
0.031455 -0.112694 
0.065113 -0.116778 
0.025840 -0.198686 
0.024961 -0.229875 
0.001182 -0.253702 
0.006750 -0.257290 
0.009907 -0.250466 
0.000000 -0.262305 
0.003434 -0.261104 
0.000584 -0.264866 
0.009887 -0.229559 
0.006584 -0.249608 
0.000000 -0.230341 
-0.000584 -0.264866 
-0.003434 -0.261104 
-0.009907 -0.250466 
-0.006750 -0.257290 
-0.001182 -0.253702 
-0.006584 -0.249608 
-0.009887 -0.229559 
-0.013061 -0.240407 
-0.019016 -0.239904 
-0.037956 -0.195079 
-0.028538 -0.221589 
-0.037261 -0.211985 
-0.019469 -0.226944 
-0.013077 -0.200103 
-0.059715 -0.155033 
-0.045816 -0.159821 
-0.038005 -0.059410 
-0.048610 -0.114950 
-0.058214 -0.071735 
-0.030794 -0.160699 
-0.015402 -0.160650 
0.000000 0.000000 
-0.022565 -0.056581 
0.000000 -0.055961 
-0.010612 -0.056070 
0.000000 0.000000 
-0.015337 -0.111654 
0.000000 -0.160570 
0.000000 0.000000 
0.010612 -0.056070 
0.038005 -0.059410 
0.022565 -0.056581 
0.000000 0.000000 
0.015337 -0.111654 
0.015402 -0.160650 
0.058214 -0.071735 
0.048610 -0.114950 
0.037956 -0.195079 
0.045816 -0.159821 
0.059715 -0.155033 
0.030794 -0.160699 
0.013077 -0.200103 
0.037261 -0.211985 
0.028538 -0.221589 
0.019016 -0.239904 
0.013061 -0.240407 
0.019469 -0.226944 
0.001354 -0.248973 
0.005520 -0.252976 
0.006383 -0.248299 
0.003797 -0.259963 
0.004666 -0.256868 
0.001072 -0.257658 
0.012129 -0.249837 
0.008345 -0.254278 
0.009806 -0.252736 
0.000000 -0.265136 
0.000986 -0.264840 
0.000312 -0.265830 
0.002501 -0.257233 
0.001724 -0.262010 
0.000000 -0.257514 
0.000801 -0.263208 
0.001958 -0.263904 
0.002897 -0.262292 
0.005780 -0.216508 
0.004962 -0.230149 
0.000000 -0.216663 
0.009809 -0.248237 
0.008227 -0.240707 
0.012256 -0.239482 
0.000000 -0.241641 
0.004130 -0.241411 
0.003306 -0.250403 
0.005113 -0.259547 
0.004981 -0.256372 
0.007422 -0.254892 
-0.000312 -0.265830 
-0.000986 -0.264840 
-0.002897 -0.262292 
-0.001958 -0.263904 
-0.000801 -0.263208 
-0.001724 -0.262010 
-0.002501 -0.257233 
-0.006383 -0.248299 
-0.005520 -0.252976 
-0.001354 -0.248973 
-0.009806 -0.252736 
-0.008345 -0.254278 
-0.012129 -0.249837 
-0.001072 -0.257658 
-0.004666 -0.256868 
-0.003797 -0.259963 
-0.004962 -0.230149 
-0.005780 -0.216508 
-0.003306 -0.250403 
-0.004130 -0.241411 
-0.012256 -0.239482 
-0.008227 -0.240707 
-0.009809 -0.248237 
-0.005113 -0.259547 
-0.007422 -0.254892 
-0.004981 -0.256372 
-0.007292 -0.242914 
-0.011460 -0.245838 
-0.021970 -0.235403 
-0.016650 -0.241549 
-0.018946 -0.236063 
-0.014399 -0.246127 
-0.016025 -0.243476 
-0.043715 -0.191761 
-0.038387 -0.205564 
-0.043393 -0.200316 
-0.028105 -0.212104 
-0.033319 -0.209388 
-0.031997 -0.197273 
-0.031084 -0.221844 
-0.032906 -0.217431 
-0.027405 -0.227371 
-0.011525 -0.216056 
-0.006558 -0.200393 
-0.016192 -0.237656 
-0.014734 -0.228522 
-0.019519 -0.199572 
-0.017186 -0.215252 
-0.022724 -0.213987 
-0.023743 -0.231743 
-0.024070 -0.224691 
-0.020018 -0.235121 
-0.054894 -0.171782 
-0.048684 -0.175998 
-0.056016 -0.138384 
-0.052943 -0.158232 
-0.063347 -0.136688 
-0.042235 -0.178588 
-0.035534 -0.180101 
-0.031100 -0.032052 
-0.047879 -0.063829 
-0.044348 -0.044893 
-0.039942 -0.113658 
-0.045837 -0.088523 
-0.036891 -0.086503 
-0.063975 -0.095240 
-0.055153 -0.091645 
-0.057156 -0.116294 
-0.014421 -0.181637 
-0.007225 -0.181751 
-0.028624 -0.180948 
-0.021567 -0.181402 
-0.023817 -0.137525 
-0.023109 -0.160706 
-0.031933 -0.137918 
-0.048199 -0.138661 
-0.040103 -0.138358 
-0.038396 -0.160492 
0.000000 0.000000 
-0.022749 -0.028706 
-0.012891 -0.027647 
-0.017192 -0.027854 
0.000000 0.000000 
-0.029658 -0.057428 
-0.028600 -0.085343 
-0.000000 -0.027673 
-0.002943 -0.027683 
0.000000 0.000000 
-0.006775 -0.084187 
-0.005230 -0.056003 
0.000000 -0.084112 
0.000000 0.000000 
-0.005989 -0.027658 
-0.009250 -0.027628 
-0.007699 -0.160597 
0.000000 -0.181788 
-0.023259 -0.112051 
-0.015801 -0.137238 
0.000000 -0.136993 
-0.007875 -0.137063 
-0.007617 -0.111433 
-0.016318 -0.056221 
-0.013697 -0.084362 
-0.020918 -0.084705 
0.000000 0.000000 
0.002943 -0.027683 
0.009250 -0.027628 
0.005989 -0.027658 
0.000000 0.000000 
0.005230 -0.056003 
0.006775 -0.084187 
0.031100 -0.032052 
0.022749 -0.028706 
0.000000 0.000000 
0.028600 -0.085343 
0.029658 -0.057428 
0.036891 -0.086503 
0.000000 0.000000 
0.017192 -0.027854 
0.012891 -0.027647 
0.007699 -0.160597 
0.007225 -0.181751 
0.007617 -0.111433 
0.007875 -0.137063 
0.023817 -0.137525 
0.015801 -0.137238 
0.023259 -0.112051 
0.016318 -0.056221 
0.020918 -0.084705 
0.013697 -0.084362 
0.044348 -0.044893 
0.047879 -0.063829 
0.057156 -0.116294 
0.055153 -0.091645 
0.063975 -0.095240 
0.045837 -0.088523 
0.039942 -0.113658 
0.043715 -0.191761 
0.048684 -0.175998 
0.054894 -0.171782 
0.035534 -0.180101 
0.042235 -0.178588 
0.031997 -0.197273 
0.063347 -0.136688 
0.052943 -0.158232 
0.056016 -0.138384 
0.014421 -0.181637 
0.006558 -0.200393 
0.031933 -0.137918 
0.023109 -0.160706 
0.019519 -0.199572 
0.021567 -0.181402 
0.028624 -0.180948 
0.048199 -0.138661 
0.038396 -0.160492 
0.040103 -0.138358 
0.043393 -0.200316 
0.038387 -0.205564 
0.027405 -0.227371 
0.032906 -0.217431 
0.031084 -0.221844 
0.033319 -0.209388 
0.028105 -0.212104 
0.011460 -0.245838 
0.007292 -0.242914 
0.016025 -0.243476 
0.014399 -0.246127 
0.018946 -0.236063 
0.016650 -0.241549 
0.021970 -0.235403 
0.011525 -0.216056 
0.022724 -0.213987 
0.017186 -0.215252 
0.014734 -0.228522 
0.016192 -0.237656 
0.023743 -0.231743 
0.020018 -0.235121 
0.024070 -0.224691 
0.001487 -0.246356 
0.003871 -0.248855 
0.004148 -0.246243 
0.003351 -0.253561 
0.003606 -0.251301 
0.001256 -0.251430 
0.008304 -0.249719 
0.005949 -0.250732 
0.007703 -0.251947 
0.002362 -0.260615 
0.002614 -0.259149 
0.001019 -0.259337 
0.005881 -0.257426 
0.004235 -0.258514 
0.005261 -0.258857 
0.001124 -0.255780 
0.002860 -0.257486 
0.003104 -0.255623 
0.012726 -0.248412 
0.010975 -0.251384 
0.011371 -0.249729 
0.009129 -0.252474 
0.010223 -0.252293 
0.011185 -0.250514 
0.008266 -0.255253 
0.009251 -0.253870 
0.007553 -0.255881 
0.005094 -0.255022 
0.006494 -0.255800 
0.007100 -0.253974 
0.000000 -0.265846 
0.000319 -0.265783 
0.000161 -0.266057 
0.000675 -0.263886 
0.000493 -0.265065 
0.000000 -0.263959 
0.000454 -0.265434 
0.000638 -0.265558 
0.000951 -0.265168 
0.001452 -0.254285 
0.001252 -0.257445 
0.000000 -0.254353 
0.002582 -0.261636 
0.002108 -0.259872 
0.003157 -0.259505 
0.000000 -0.260161 
0.001055 -0.260089 
0.000863 -0.262232 
0.000887 -0.262108 
0.001831 -0.262974 
0.002102 -0.261888 
0.001255 -0.264609 
0.001549 -0.263880 
0.000700 -0.264126 
0.003343 -0.262032 
0.002432 -0.263185 
0.002686 -0.262739 
0.001349 -0.263662 
0.002020 -0.263281 
0.001475 -0.264454 
0.003086 -0.208865 
0.002891 -0.216622 
0.000000 -0.208910 
0.007431 -0.229906 
0.005374 -0.223632 
0.008050 -0.223416 
0.000000 -0.223805 
0.002689 -0.223761 
0.002483 -0.230293 
0.011394 -0.247315 
0.011026 -0.244128 
0.012808 -0.243248 
0.007401 -0.245432 
0.009223 -0.244853 
0.008204 -0.248999 
0.011287 -0.234918 
0.010252 -0.240164 
0.009057 -0.235421 
0.000000 -0.246429 
0.001860 -0.246368 
0.001655 -0.250598 
0.002275 -0.236230 
0.002067 -0.241583 
0.000000 -0.236282 
0.004950 -0.250074 
0.003716 -0.246184 
0.005565 -0.245873 
0.006808 -0.235803 
0.006185 -0.241121 
0.004546 -0.236071 
0.003352 -0.261220 
0.004278 -0.260410 
0.003992 -0.261153 
0.004631 -0.260097 
0.005937 -0.258509 
0.002900 -0.254081 
0.005777 -0.253251 
0.004343 -0.253738 
0.003745 -0.256877 
0.004200 -0.258986 
0.009997 -0.250862 
0.007268 -0.256448 
0.008621 -0.253903 
0.008606 -0.251821 
0.007199 -0.252614 
0.005234 -0.258307 
0.006208 -0.255713 
0.006257 -0.257464 
-0.000161 -0.266057 
-0.000319 -0.265783 
-0.000951 -0.265168 
-0.000638 -0.265558 
-0.000454 -0.265434 
-0.000493 -0.265065 
-0.000675 -0.263886 
-0.002102 -0.261888 
-0.001831 -0.262974 
-0.000887 -0.262108 
-0.002686 -0.262739 
-0.002432 -0.263185 
-0.003343 -0.262032 
-0.000700 -0.264126 
-0.001549 -0.263880 
-0.001255 -0.264609 
-0.001252 -0.257445 
-0.001452 -0.254285 
-0.000863 -0.262232 
-0.001055 -0.260089 
-0.003157 -0.259505 
-0.002108 -0.259872 
-0.002582 -0.261636 
-0.001475 -0.264454 
-0.002020 -0.263281 
-0.001349 -0.263662 
-0.004148 -0.246243 
-0.003871 -0.248855 
-0.001487 -0.246356 
-0.007703 -0.251947 
-0.005949 -0.250732 
-0.008304 -0.249719 
-0.001256 -0.251430 
-0.003606 -0.251301 
-0.003351 -0.253561 
-0.011371 -0.249729 
-0.010975 -0.251384 
-0.012726 -0.248412 
-0.007553 -0.255881 
-0.009251 -0.253870 
-0.008266 -0.255253 
-0.011185 -0.250514 
-0.010223 -0.252293 
-0.009129 -0.252474 
-0.001019 -0.259337 
-0.002614 -0.259149 
-0.002362 -0.260615 
-0.003104 -0.255623 
-0.002860 -0.257486 
-0.001124 -0.255780 
-0.005261 -0.258857 
-0.004235 -0.258514 
-0.005881 -0.257426 
-0.007100 -0.253974 
-0.006494 -0.255800 
-0.005094 -0.255022 
-0.002891 -0.216622 
-0.003086 -0.208865 
-0.002483 -0.230293 
-0.002689 -0.223761 
-0.008050 -0.223416 
-0.005374 -0.223632 
-0.007431 -0.229906 
-0.001655 -0.250598 
-0.001860 -0.246368 
-0.005565 -0.245873 
-0.003716 -0.246184 
-0.004950 -0.250074 
-0.002067 -0.241583 
-0.002275 -0.236230 
-0.012808 -0.243248 
-0.011026 -0.244128 
-0.011394 -0.247315 
-0.009057 -0.235421 
-0.010252 -0.240164 
-0.011287 -0.234918 
-0.008204 -0.248999 
-0.009223 -0.244853 
-0.007401 -0.245432 
-0.004546 -0.236071 
-0.006185 -0.241121 
-0.006808 -0.235803 
-0.003352 -0.261220 
-0.005937 -0.258509 
-0.004631 -0.260097 
-0.003992 -0.261153 
-0.004278 -0.260410 
-0.009997 -0.250862 
-0.007199 -0.252614 
-0.008606 -0.251821 
-0.008621 -0.253903 
-0.007268 -0.256448 
-0.002900 -0.254081 
-0.004200 -0.258986 
-0.003745 -0.256877 
-0.004343 -0.253738 
-0.005777 -0.253251 
-0.006257 -0.257464 
-0.006208 -0.255713 
-0.005234 -0.258307 
-0.004443 -0.243494 
-0.006827 -0.245689 
-0.012250 -0.243221 
-0.009526 -0.244683 
-0.010164 -0.241889 
-0.008910 -0.247295 
-0.010682 -0.248254 
-0.023454 -0.232773 
-0.020604 -0.236080 
-0.021938 -0.233200 
-0.017993 -0.241099 
-0.019294 -0.238710 
-0.020494 -0.237776 
-0.015987 -0.238466 
-0.017787 -0.238922 
-0.015002 -0.241302 
-0.014063 -0.246901 
-0.014502 -0.244946 
-0.012138 -0.248528 
-0.013269 -0.248087 
-0.017528 -0.241800 
-0.015384 -0.245185 
-0.016692 -0.243254 
-0.014039 -0.243924 
-0.015524 -0.243949 
-0.013087 -0.246333 
-0.046534 -0.189543 
-0.043742 -0.196569 
-0.046399 -0.193808 
-0.038392 -0.200866 
-0.041080 -0.198905 
-0.040859 -0.193586 
-0.040341 -0.206375 
-0.040890 -0.203138 
-0.037996 -0.209244 
-0.027216 -0.205891 
-0.030080 -0.204975 
-0.028942 -0.198059 
-0.030937 -0.215748 
-0.030733 -0.210866 
-0.028535 -0.217330 
-0.035003 -0.196293 
-0.032896 -0.203857 
-0.035666 -0.202501 
-0.028012 -0.226089 
-0.029235 -0.224763 
-0.026333 -0.229001 
-0.035078 -0.214884 
-0.032154 -0.220057 
-0.034171 -0.217142 
-0.028150 -0.224920 
-0.030152 -0.222641 
-0.030730 -0.219657 
-0.035868 -0.207634 
-0.033308 -0.213896 
-0.035657 -0.211739 
-0.006175 -0.208765 
-0.003282 -0.200475 
-0.010712 -0.223108 
-0.008660 -0.216321 
-0.009825 -0.200272 
-0.009254 -0.208609 
-0.012317 -0.208391 
-0.014567 -0.242201 
-0.014237 -0.238650 
-0.017117 -0.227808 
-0.015676 -0.233508 
-0.017828 -0.232574 
-0.013494 -0.234284 
-0.012322 -0.229101 
-0.022697 -0.199183 
-0.021360 -0.207237 
-0.024309 -0.206636 
-0.015359 -0.208098 
-0.018375 -0.207718 
-0.016310 -0.199873 
-0.021105 -0.220752 
-0.019973 -0.214685 
-0.018554 -0.221538 
-0.013353 -0.222701 
-0.015968 -0.222182 
-0.014369 -0.215704 
-0.024675 -0.231624 
-0.026136 -0.226919 
-0.025578 -0.229691 
-0.023023 -0.233975 
-0.021367 -0.236069 
-0.025435 -0.213135 
-0.021787 -0.225912 
-0.023620 -0.219805 
-0.026096 -0.218673 
-0.026319 -0.223259 
-0.016301 -0.240974 
-0.019699 -0.237923 
-0.018011 -0.239553 
-0.018119 -0.236485 
-0.019950 -0.231468 
-0.024102 -0.228661 
-0.022041 -0.230170 
-0.021892 -0.233546 
-0.052187 -0.179533 
-0.049245 -0.182066 
-0.054208 -0.165739 
-0.051815 -0.174132 
-0.057420 -0.163611 
-0.046266 -0.184127 
-0.043240 -0.185787 
-0.060789 -0.127513 
-0.059752 -0.137784 
-0.064518 -0.126929 
-0.049422 -0.159179 
-0.054667 -0.148576 
-0.050979 -0.149200 
-0.061715 -0.146057 
-0.058247 -0.147571 
-0.056373 -0.156887 
-0.033827 -0.188986 
-0.030581 -0.189629 
-0.040159 -0.187112 
-0.037021 -0.188161 
-0.040637 -0.170147 
-0.038914 -0.179450 
-0.044139 -0.169495 
-0.050927 -0.167369 
-0.047571 -0.168594 
-0.045492 -0.177459 
-0.022135 -0.018208 
-0.037238 -0.036627 
-0.031530 -0.028213 
-0.042764 -0.061211 
-0.041080 -0.048456 
-0.035907 -0.045723 
-0.052660 -0.058924 
-0.046847 -0.052795 
-0.053155 -0.067391 
-0.035665 -0.113132 
-0.038854 -0.100369 
-0.034559 -0.099744 
-0.047721 -0.102084 
-0.043251 -0.101146 
-0.044267 -0.114270 
-0.038164 -0.073033 
-0.041289 -0.087383 
-0.042701 -0.074278 
-0.064992 -0.106224 
-0.060942 -0.105414 
-0.061238 -0.116735 
-0.057235 -0.080868 
-0.059699 -0.093490 
-0.061824 -0.083776 
-0.052926 -0.115653 
-0.056650 -0.104319 
-0.052212 -0.103163 
-0.047466 -0.075974 
-0.050489 -0.089951 
-0.052368 -0.078186 
-0.006912 -0.191389 
-0.003462 -0.191446 
-0.013783 -0.191186 
-0.010353 -0.191305 
-0.011233 -0.171473 
-0.010828 -0.181705 
-0.014969 -0.171456 
-0.027288 -0.190127 
-0.023956 -0.190510 
-0.026125 -0.171281 
-0.025110 -0.181211 
-0.029808 -0.171140 
-0.020590 -0.190802 
-0.017197 -0.191022 
-0.027811 -0.125303 
-0.027864 -0.137710 
-0.031940 -0.125599 
-0.019256 -0.160680 
-0.023592 -0.149418 
-0.019635 -0.149321 
-0.031525 -0.149623 
-0.027557 -0.149522 
-0.026957 -0.160716 
-0.018002 -0.181540 
-0.022419 -0.171370 
-0.018699 -0.171424 
-0.056889 -0.127634 
-0.048714 -0.127136 
-0.052850 -0.127465 
-0.052157 -0.138637 
-0.047197 -0.149549 
-0.036111 -0.125943 
-0.035487 -0.149705 
-0.036017 -0.138139 
-0.040312 -0.126328 
-0.044522 -0.126737 
-0.032101 -0.180588 
-0.042136 -0.160238 
-0.037075 -0.170607 
-0.033461 -0.170925 
-0.034611 -0.160633 
-0.044171 -0.138547 
-0.039432 -0.149745 
-0.043341 -0.149709 
0.000000 0.000000 
-0.017110 -0.015243 
-0.012068 -0.013819 
-0.014154 -0.014231 
0.000000 0.000000 
-0.026407 -0.029811 
-0.031428 -0.044096 
-0.006780 -0.013584 
-0.007860 -0.013571 
0.000000 0.000000 
-0.021011 -0.042237 
-0.014933 -0.027711 
-0.018182 -0.042041 
0.000000 0.000000 
-0.009060 -0.013583 
-0.010432 -0.013647 
-0.032662 -0.085838 
-0.030377 -0.099251 
-0.033647 -0.058213 
-0.033881 -0.072143 
-0.026024 -0.071072 
-0.029842 -0.071514 
-0.025982 -0.056916 
-0.019753 -0.028143 
-0.024102 -0.042572 
-0.027538 -0.043137 
0.000000 -0.013718 
-0.000767 -0.013725 
0.000000 0.000000 
-0.002080 -0.041800 
-0.001465 -0.027685 
-0.000000 -0.041784 
0.000000 0.000000 
-0.001543 -0.013720 
-0.002333 -0.013707 
-0.003631 -0.097918 
-0.003379 -0.084139 
0.000000 -0.097889 
-0.007892 -0.056030 
-0.006096 -0.070163 
-0.009191 -0.070215 
0.000000 -0.070103 
-0.003038 -0.070127 
-0.002606 -0.055981 
0.000000 0.000000 
-0.004860 -0.013636 
-0.005787 -0.013608 
-0.003144 -0.013687 
-0.003983 -0.013663 
0.000000 0.000000 
-0.010741 -0.041836 
-0.007584 -0.027642 
-0.008489 -0.041821 
-0.004177 -0.041809 
-0.006307 -0.041814 
-0.004447 -0.027673 
-0.003616 -0.181779 
0.000000 -0.191474 
-0.011549 -0.160621 
-0.007492 -0.171483 
0.000000 -0.171485 
-0.003747 -0.171486 
-0.003849 -0.160580 
-0.027319 -0.112337 
-0.023727 -0.125055 
-0.015697 -0.124694 
-0.019691 -0.124854 
-0.019267 -0.111826 
-0.019796 -0.137368 
-0.015690 -0.149236 
0.000000 -0.124403 
-0.003900 -0.124429 
-0.003802 -0.111374 
-0.003915 -0.149080 
-0.003935 -0.137016 
0.000000 -0.149063 
-0.011458 -0.111525 
-0.007810 -0.124485 
-0.011739 -0.124573 
-0.011756 -0.149167 
-0.011829 -0.137137 
-0.007832 -0.149114 
-0.011010 -0.027626 
-0.013413 -0.056129 
-0.013088 -0.041868 
-0.015557 -0.041929 
-0.019358 -0.056363 
-0.007278 -0.097974 
-0.014683 -0.098183 
-0.010957 -0.098060 
-0.010208 -0.084259 
-0.012347 -0.070288 
-0.026308 -0.098868 
-0.022394 -0.070763 
-0.024691 -0.084975 
-0.022344 -0.098574 
-0.018474 -0.098350 
-0.015583 -0.070394 
-0.017260 -0.084506 
-0.018923 -0.070546 
0.000000 0.000000 
0.000767 -0.013725 
0.002333 -0.013707 
0.001543 -0.013720 
0.000000 0.000000 
0.001465 -0.027685 
0.002080 -0.041800 
0.005787 -0.013608 
0.004860 -0.013636 
0.000000 0.000000 
0.008489 -0.041821 
0.007584 -0.027642 
0.010741 -0.041836 
0.000000 0.000000 
0.003983 -0.013663 
0.003144 -0.013687 
0.003379 -0.084139 
0.003631 -0.097918 
0.002606 -0.055981 
0.003038 -0.070127 
0.009191 -0.070215 
0.006096 -0.070163 
0.007892 -0.056030 
0.004447 -0.027673 
0.006307 -0.041814 
0.004177 -0.041809 
0.022135 -0.018208 
0.017110 -0.015243 
0.000000 0.000000 
0.031428 -0.044096 
0.026407 -0.029811 
0.035907 -0.045723 
0.000000 0.000000 
0.014154 -0.014231 
0.012068 -0.013819 
0.030377 -0.099251 
0.032662 -0.085838 
0.034559 -0.099744 
0.025982 -0.056916 
0.029842 -0.071514 
0.026024 -0.071072 
0.038164 -0.073033 
0.033881 -0.072143 
0.033647 -0.058213 
0.000000 0.000000 
0.007860 -0.013571 
0.006780 -0.013584 
0.010432 -0.013647 
0.009060 -0.013583 
0.000000 0.000000 
0.018182 -0.042041 
0.014933 -0.027711 
0.021011 -0.042237 
0.027538 -0.043137 
0.024102 -0.042572 
0.019753 -0.028143 
0.003616 -0.181779 
0.003462 -0.191446 
0.003849 -0.160580 
0.003747 -0.171486 
0.011233 -0.171473 
0.007492 -0.171483 
0.011549 -0.160621 
0.003802 -0.111374 
0.003900 -0.124429 
0.011739 -0.124573 
0.007810 -0.124485 
0.011458 -0.111525 
0.003935 -0.137016 
0.003915 -0.149080 
0.027811 -0.125303 
0.023727 -0.125055 
0.027319 -0.112337 
0.015690 -0.149236 
0.019796 -0.137368 
0.019635 -0.149321 
0.019267 -0.111826 
0.019691 -0.124854 
0.015697 -0.124694 
0.007832 -0.149114 
0.011829 -0.137137 
0.011756 -0.149167 
0.011010 -0.027626 
0.019358 -0.056363 
0.015557 -0.041929 
0.013088 -0.041868 
0.013413 -0.056129 
0.026308 -0.098868 
0.018474 -0.098350 
0.022344 -0.098574 
0.024691 -0.084975 
0.022394 -0.070763 
0.007278 -0.097974 
0.012347 -0.070288 
0.010208 -0.084259 
0.010957 -0.098060 
0.014683 -0.098183 
0.018923 -0.070546 
0.017260 -0.084506 
0.015583 -0.070394 
0.031530 -0.028213 
0.037238 -0.036627 
0.053155 -0.067391 
0.046847 -0.052795 
0.052660 -0.058924 
0.041080 -0.048456 
0.042764 -0.061211 
0.061238 -0.116735 
0.060942 -0.105414 
0.064992 -0.106224 
0.052212 -0.103163 
0.056650 -0.104319 
0.052926 -0.115653 
0.061824 -0.083776 
0.059699 -0.093490 
0.057235 -0.080868 
0.038854 -0.100369 
0.035665 -0.113132 
0.042701 -0.074278 
0.041289 -0.087383 
0.044267 -0.114270 
0.043251 -0.101146 
0.047721 -0.102084 
0.052368 -0.078186 
0.050489 -0.089951 
0.047466 -0.075974 
0.046534 -0.189543 
0.049245 -0.182066 
0.052187 -0.179533 
0.043240 -0.185787 
0.046266 -0.184127 
0.040859 -0.193586 
0.057420 -0.163611 
0.051815 -0.174132 
0.054208 -0.165739 
0.030581 -0.189629 
0.033827 -0.188986 
0.028942 -0.198059 
0.044139 -0.169495 
0.038914 -0.179450 
0.040637 -0.170147 
0.035003 -0.196293 
0.037021 -0.188161 
0.040159 -0.187112 
0.064518 -0.126929 
0.059752 -0.137784 
0.060789 -0.127513 
0.056373 -0.156887 
0.058247 -0.147571 
0.061715 -0.146057 
0.050979 -0.149200 
0.054667 -0.148576 
0.049422 -0.159179 
0.045492 -0.177459 
0.047571 -0.168594 
0.050927 -0.167369 
0.006912 -0.191389 
0.003282 -0.200475 
0.014969 -0.171456 
0.010828 -0.181705 
0.009825 -0.200272 
0.010353 -0.191305 
0.013783 -0.191186 
0.031940 -0.125599 
0.027864 -0.137710 
0.026957 -0.160716 
0.027557 -0.149522 
0.031525 -0.149623 
0.023592 -0.149418 
0.019256 -0.160680 
0.022697 -0.199183 
0.023956 -0.190510 
0.027288 -0.190127 
0.017197 -0.191022 
0.020590 -0.190802 
0.016310 -0.199873 