# vtk DataFile Version 2.0
Unstructured Grid Example
ASCII
DATASET UNSTRUCTURED_GRID

POINTS 9 float
0.021070 -0.249190 0.000000 
0.978930 -0.249190 0.000000 
1.000000 1.000000 0.000000 
0.000000 1.000000 0.000000 
0.500000 -0.227596 0.000000 
0.959774 0.329718 0.000000 
0.500000 1.000000 0.000000 
0.040226 0.329718 0.000000 
0.500000 0.321039 0.000000 

CELLS 8 32
3  0 4 8 
3  4 1 8 
3  1 5 8 
3  5 2 8 
3  2 6 8 
3  6 3 8 
3  3 7 8 
3  7 0 8 

CELL_TYPES 8
5
5
5
5
5
5
5
5

POINT_DATA 9

SCALARS u_h float 2
LOOKUP_TABLE default
0.021070 -0.249190 
-0.021070 -0.249190 
0.000000 0.000000 
0.000000 0.000000 
-0.000000 -0.227596 
-0.040226 -0.170282 
0.000000 0.000000 
0.040226 -0.170282 
-0.000000 -0.178961 

CELL_DATA 8

SCALARS epsilon float 4
LOOKUP_TABLE default
-0.043025 0.093420 0.000000 0.019642
-0.043025 0.093420 0.000000 -0.019642
-0.082397 0.146339 0.000000 -0.013003
-0.082653 0.285354 0.000000 0.047364
0.000000 0.298319 0.000000 0.000000
0.000000 0.298319 0.000000 0.000000
-0.082653 0.285354 0.000000 -0.047364
-0.082397 0.146339 0.000000 0.013003

SCALARS sigma float 4
LOOKUP_TABLE default
-0.303105 1.776601 0.415845 0.336947
-0.303105 1.776601 0.415845 -0.336947
-1.054132 2.460389 0.394887 -0.136622
0.125666 4.933942 1.510435 0.498633
2.983185 6.232769 2.983185 0.000000
2.983185 6.232769 2.983185 0.000000
0.125666 4.933942 1.510435 -0.498633
-1.054132 2.460389 0.394887 0.136622

