# vtk DataFile Version 2.0
Unstructured Grid Example
ASCII
DATASET UNSTRUCTURED_GRID

POINTS 81 float
0.007460 -0.246822 0.000000 
0.992540 -0.246822 0.000000 
1.000000 1.000000 0.000000 
0.000000 1.000000 0.000000 
0.500000 -0.258857 0.000000 
0.952443 0.316832 0.000000 
0.500000 1.000000 0.000000 
0.047557 0.316832 0.000000 
0.500000 0.301321 0.000000 
0.253802 -0.257323 0.000000 
0.500000 0.004734 0.000000 
0.262545 0.007762 0.000000 
0.746198 -0.257323 0.000000 
0.737455 0.007762 0.000000 
0.974898 0.020852 0.000000 
0.724889 0.305117 0.000000 
0.937680 0.634210 0.000000 
0.720469 0.640541 0.000000 
0.750000 1.000000 0.000000 
0.500000 0.642847 0.000000 
0.250000 1.000000 0.000000 
0.279531 0.640541 0.000000 
0.062320 0.634210 0.000000 
0.275111 0.305117 0.000000 
0.025102 0.020852 0.000000 
0.130665 -0.252591 0.000000 
0.257588 -0.128345 0.000000 
0.136198 -0.123572 0.000000 
0.500000 -0.130863 0.000000 
0.378761 -0.130773 0.000000 
0.376913 -0.259668 0.000000 
0.384151 0.149670 0.000000 
0.381224 0.005323 0.000000 
0.500000 0.148590 0.000000 
0.623087 -0.259668 0.000000 
0.621239 -0.130773 0.000000 
0.863802 -0.123572 0.000000 
0.742412 -0.128345 0.000000 
0.869335 -0.252591 0.000000 
0.618776 0.005323 0.000000 
0.615849 0.149670 0.000000 
0.985179 -0.116560 0.000000 
0.856274 0.012616 0.000000 
0.838211 0.308511 0.000000 
0.847421 0.156583 0.000000 
0.963362 0.165348 0.000000 
0.731476 0.152002 0.000000 
0.612238 0.303569 0.000000 
0.942174 0.471743 0.000000 
0.830393 0.468271 0.000000 
0.841685 0.818955 0.000000 
0.828718 0.637766 0.000000 
0.945501 0.805983 0.000000 
0.719989 0.467783 0.000000 
0.609838 0.467888 0.000000 
0.875000 1.000000 0.000000 
0.729618 0.820418 0.000000 
0.500000 0.821939 0.000000 
0.615227 0.820688 0.000000 
0.625000 1.000000 0.000000 
0.610536 0.641494 0.000000 
0.500000 0.468227 0.000000 
0.375000 1.000000 0.000000 
0.384773 0.820688 0.000000 
0.158315 0.818955 0.000000 
0.270382 0.820418 0.000000 
0.125000 1.000000 0.000000 
0.389464 0.641494 0.000000 
0.390162 0.467888 0.000000 
0.054499 0.805983 0.000000 
0.171282 0.637766 0.000000 
0.161789 0.308511 0.000000 
0.169607 0.468271 0.000000 
0.057826 0.471743 0.000000 
0.280011 0.467783 0.000000 
0.387762 0.303569 0.000000 
0.036638 0.165348 0.000000 
0.152579 0.156583 0.000000 
0.143726 0.012616 0.000000 
0.014821 -0.116560 0.000000 
0.268524 0.152002 0.000000 

CELLS 128 512
3  0 25 27 
3  9 26 25 
3  11 27 26 
3  25 26 27 
3  4 28 30 
3  10 29 28 
3  9 30 29 
3  28 29 30 
3  8 31 33 
3  11 32 31 
3  10 33 32 
3  31 32 33 
3  9 29 26 
3  10 32 29 
3  11 26 32 
3  29 32 26 
3  4 34 28 
3  12 35 34 
3  10 28 35 
3  34 35 28 
3  1 36 38 
3  13 37 36 
3  12 38 37 
3  36 37 38 
3  8 33 40 
3  10 39 33 
3  13 40 39 
3  33 39 40 
3  12 37 35 
3  13 39 37 
3  10 35 39 
3  37 39 35 
3  1 41 36 
3  14 42 41 
3  13 36 42 
3  41 42 36 
3  5 43 45 
3  15 44 43 
3  14 45 44 
3  43 44 45 
3  8 40 47 
3  13 46 40 
3  15 47 46 
3  40 46 47 
3  14 44 42 
3  15 46 44 
3  13 42 46 
3  44 46 42 
3  5 48 43 
3  16 49 48 
3  15 43 49 
3  48 49 43 
3  2 50 52 
3  17 51 50 
3  16 52 51 
3  50 51 52 
3  8 47 54 
3  15 53 47 
3  17 54 53 
3  47 53 54 
3  16 51 49 
3  17 53 51 
3  15 49 53 
3  51 53 49 
3  2 55 50 
3  18 56 55 
3  17 50 56 
3  55 56 50 
3  6 57 59 
3  19 58 57 
3  18 59 58 
3  57 58 59 
3  8 54 61 
3  17 60 54 
3  19 61 60 
3  54 60 61 
3  18 58 56 
3  19 60 58 
3  17 56 60 
3  58 60 56 
3  6 62 57 
3  20 63 62 
3  19 57 63 
3  62 63 57 
3  3 64 66 
3  21 65 64 
3  20 66 65 
3  64 65 66 
3  8 61 68 
3  19 67 61 
3  21 68 67 
3  61 67 68 
3  20 65 63 
3  21 67 65 
3  19 63 67 
3  65 67 63 
3  3 69 64 
3  22 70 69 
3  21 64 70 
3  69 70 64 
3  7 71 73 
3  23 72 71 
3  22 73 72 
3  71 72 73 
3  8 68 75 
3  21 74 68 
3  23 75 74 
3  68 74 75 
3  22 72 70 
3  23 74 72 
3  21 70 74 
3  72 74 70 
3  7 76 71 
3  24 77 76 
3  23 71 77 
3  76 77 71 
3  0 27 79 
3  11 78 27 
3  24 79 78 
3  27 78 79 
3  8 75 31 
3  23 80 75 
3  11 31 80 
3  75 80 31 
3  24 78 77 
3  11 80 78 
3  23 77 80 
3  78 80 77 

CELL_TYPES 128
5
5
5
5
5
5
5
5
5
5
5
5
5
5
5
5
5
5
5
5
5
5
5
5
5
5
5
5
5
5
5
5
5
5
5
5
5
5
5
5
5
5
5
5
5
5
5
5
5
5
5
5
5
5
5
5
5
5
5
5
5
5
5
5
5
5
5
5
5
5
5
5
5
5
5
5
5
5
5
5
5
5
5
5
5
5
5
5
5
5
5
5
5
5
5
5
5
5
5
5
5
5
5
5
5
5
5
5
5
5
5
5
5
5
5
5
5
5
5
5
5
5
5
5
5
5
5
5

POINT_DATA 81

SCALARS u_h float 2
LOOKUP_TABLE default
0.007460 -0.246822 
-0.007460 -0.246822 
0.000000 0.000000 
0.000000 0.000000 
0.000000 -0.258857 
-0.047557 -0.183168 
0.000000 0.000000 
0.047557 -0.183168 
-0.000000 -0.198679 
0.003802 -0.257323 
0.000000 -0.245266 
0.012545 -0.242238 
-0.003802 -0.257323 
-0.012545 -0.242238 
-0.025102 -0.229148 
-0.025111 -0.194883 
-0.062320 -0.115790 
-0.029531 -0.109459 
0.000000 0.000000 
-0.000000 -0.107153 
0.000000 0.000000 
0.029531 -0.109459 
0.062320 -0.115790 
0.025111 -0.194883 
0.025102 -0.229148 
0.005665 -0.252591 
0.007588 -0.253345 
0.011198 -0.248572 
0.000000 -0.255863 
0.003761 -0.255773 
0.001913 -0.259668 
0.009151 -0.225330 
0.006224 -0.244677 
0.000000 -0.226410 
-0.001913 -0.259668 
-0.003761 -0.255773 
-0.011198 -0.248572 
-0.007588 -0.253345 
-0.005665 -0.252591 
-0.006224 -0.244677 
-0.009151 -0.225330 
-0.014821 -0.241560 
-0.018726 -0.237384 
-0.036789 -0.191489 
-0.027579 -0.218417 
-0.036638 -0.209652 
-0.018524 -0.222998 
-0.012762 -0.196431 
-0.057826 -0.153257 
-0.044607 -0.156729 
-0.033315 -0.056045 
-0.046282 -0.112234 
-0.054499 -0.069017 
-0.030011 -0.157217 
-0.015162 -0.157112 
0.000000 0.000000 
-0.020382 -0.054582 
0.000000 -0.053061 
-0.009773 -0.054312 
0.000000 0.000000 
-0.014464 -0.108506 
-0.000000 -0.156773 
0.000000 0.000000 
0.009773 -0.054312 
0.033315 -0.056045 
0.020382 -0.054582 
0.000000 0.000000 
0.014464 -0.108506 
0.015162 -0.157112 
0.054499 -0.069017 
0.046282 -0.112234 
0.036789 -0.191489 
0.044607 -0.156729 
0.057826 -0.153257 
0.030011 -0.157217 
0.012762 -0.196431 
0.036638 -0.209652 
0.027579 -0.218417 
0.018726 -0.237384 
0.014821 -0.241560 
0.018524 -0.222998 

CELL_DATA 128

SCALARS epsilon float 4
LOOKUP_TABLE default
-0.011515 0.034665 0.000000 0.000076
-0.013448 0.033138 0.000000 -0.002981
-0.027167 0.087005 0.000000 0.002758
-0.026642 0.034042 0.000000 0.004285
-0.015422 0.023685 0.000000 0.003168
-0.030542 0.081205 0.000000 -0.000332
-0.014846 0.031119 0.000000 -0.001595
-0.030422 0.030687 0.000000 0.007266
-0.075869 0.198082 0.000000 -0.003513
-0.051197 0.143581 0.000000 0.003682
-0.051031 0.139676 0.000000 -0.002041
-0.075442 0.143232 0.000000 0.008685
-0.030039 0.032096 0.000000 0.006205
-0.050761 0.084953 0.000000 0.008142
-0.050360 0.085855 0.000000 0.011806
-0.030549 0.085383 0.000000 0.001184
-0.015422 0.023685 0.000000 -0.003168
-0.014846 0.031119 0.000000 0.001595
-0.030542 0.081205 0.000000 0.000332
-0.030422 0.030687 0.000000 -0.007266
-0.011515 0.034665 0.000000 -0.000076
-0.027167 0.087005 0.000000 -0.002758
-0.013448 0.033138 0.000000 0.002981
-0.026642 0.034042 0.000000 -0.004285
-0.075869 0.198082 0.000000 0.003513
-0.051031 0.139676 0.000000 0.002041
-0.051197 0.143581 0.000000 -0.003682
-0.075442 0.143232 0.000000 -0.008685
-0.030039 0.032096 0.000000 -0.006205
-0.050360 0.085855 0.000000 -0.011806
-0.050761 0.084953 0.000000 -0.008142
-0.030549 0.085383 0.000000 -0.001184
-0.024464 0.045992 0.000000 -0.003368
-0.044063 0.101520 0.000000 -0.013042
-0.046731 0.088470 0.000000 -0.013672
-0.024608 0.090093 0.000000 -0.005056
-0.081553 0.196975 0.000000 -0.019010
-0.093714 0.195006 0.000000 -0.028279
-0.065432 0.152041 0.000000 -0.018599
-0.068414 0.199290 0.000000 -0.009722
-0.106432 0.205992 0.000000 -0.008308
-0.075949 0.143261 0.000000 -0.017358
-0.101898 0.201108 0.000000 -0.023250
-0.076990 0.205998 0.000000 -0.007533
-0.045974 0.146408 0.000000 -0.008100
-0.072289 0.202633 0.000000 -0.012562
-0.048028 0.144574 0.000000 -0.007919
-0.070449 0.143391 0.000000 -0.021680
-0.082442 0.218068 0.000000 -0.016558
-0.109935 0.258302 0.000000 -0.008489
-0.094833 0.242917 0.000000 -0.022335
-0.108269 0.242989 0.000000 -0.022583
-0.096521 0.451875 0.000000 0.192522
-0.137580 0.360006 0.000000 0.046607
-0.133544 0.311026 0.000000 0.023072
-0.171035 0.369872 0.000000 0.021747
-0.106816 0.268306 0.000000 -0.003330
-0.102653 0.258812 0.000000 -0.015876
-0.125710 0.314655 0.000000 0.001715
-0.125594 0.267901 0.000000 -0.010586
-0.136608 0.296962 0.000000 -0.017417
-0.142697 0.314890 0.000000 -0.005789
-0.122760 0.258496 0.000000 -0.019524
-0.123367 0.297019 0.000000 -0.005645
0.016931 0.357481 0.000000 0.120491
0.006440 0.350129 0.000000 0.073995
-0.106489 0.352263 0.000000 0.032995
-0.085419 0.359690 0.000000 0.130254
0.000000 0.342391 0.000000 -0.000000
-0.081222 0.347681 0.000000 -0.003470
0.001485 0.348765 0.000000 0.035507
-0.078888 0.349331 0.000000 0.035042
-0.128513 0.282593 0.000000 -0.000995
-0.127614 0.319227 0.000000 0.000229
-0.122294 0.324571 0.000000 -0.003805
-0.128490 0.319189 0.000000 0.001971
-0.080484 0.350373 0.000000 0.080102
-0.121542 0.348487 0.000000 0.015567
-0.125555 0.352038 0.000000 0.035129
-0.087965 0.348217 0.000000 0.017882
0.000000 0.342391 0.000000 -0.000000
0.001485 0.348765 0.000000 -0.035507
-0.081222 0.347681 0.000000 0.003470
-0.078888 0.349331 0.000000 -0.035042
0.016931 0.357481 0.000000 -0.120491
-0.106489 0.352263 0.000000 -0.032995
0.006440 0.350129 0.000000 -0.073995
-0.085419 0.359690 0.000000 -0.130254
-0.128513 0.282593 0.000000 0.000995
-0.122294 0.324571 0.000000 0.003805
-0.127614 0.319227 0.000000 -0.000229
-0.128490 0.319189 0.000000 -0.001971
-0.080484 0.350373 0.000000 -0.080102
-0.125555 0.352038 0.000000 -0.035129
-0.121542 0.348487 0.000000 -0.015567
-0.087965 0.348217 0.000000 -0.017882
-0.096521 0.451875 0.000000 -0.192522
-0.133544 0.311026 0.000000 -0.023072
-0.137580 0.360006 0.000000 -0.046607
-0.171035 0.369872 0.000000 -0.021747
-0.082442 0.218068 0.000000 0.016558
-0.094833 0.242917 0.000000 0.022335
-0.109935 0.258302 0.000000 0.008489
-0.108269 0.242989 0.000000 0.022583
-0.106816 0.268306 0.000000 0.003330
-0.125710 0.314655 0.000000 -0.001715
-0.102653 0.258812 0.000000 0.015876
-0.125594 0.267901 0.000000 0.010586
-0.136608 0.296962 0.000000 0.017417
-0.122760 0.258496 0.000000 0.019524
-0.142697 0.314890 0.000000 0.005789
-0.123367 0.297019 0.000000 0.005645
-0.081553 0.196975 0.000000 0.019010
-0.065432 0.152041 0.000000 0.018599
-0.093714 0.195006 0.000000 0.028279
-0.068414 0.199290 0.000000 0.009722
-0.024464 0.045992 0.000000 0.003368
-0.046731 0.088470 0.000000 0.013672
-0.044063 0.101520 0.000000 0.013042
-0.024608 0.090093 0.000000 0.005056
-0.106432 0.205992 0.000000 0.008308
-0.101898 0.201108 0.000000 0.023250
-0.075949 0.143261 0.000000 0.017358
-0.076990 0.205998 0.000000 0.007533
-0.045974 0.146408 0.000000 0.008100
-0.048028 0.144574 0.000000 0.007919
-0.072289 0.202633 0.000000 0.012562
-0.070449 0.143391 0.000000 0.021680

SCALARS sigma float 4
LOOKUP_TABLE default
0.034994 0.765226 0.223515 -0.032392
-0.031729 0.706096 0.187815 -0.070896
0.106744 1.825614 0.550960 -0.023809
-0.394870 0.595951 0.055484 0.045271
-0.180592 0.452635 0.075128 0.052781
-0.045272 1.659113 0.457021 -0.005614
-0.091010 0.643518 0.153443 -0.036064
-0.534274 0.472003 -0.017078 0.115777
-0.350645 3.528672 0.921309 -0.062563
-0.067770 2.760346 0.776554 0.001541
-0.098264 2.682692 0.743801 -0.035329
-0.846268 2.477577 0.460275 0.095798
-0.510650 0.512511 0.000511 0.089013
-0.612461 1.523728 0.254352 0.110281
-0.598038 1.548930 0.265696 0.141689
-0.005349 1.752693 0.496148 -0.013715
-0.180592 0.452635 0.075128 -0.052781
-0.091010 0.643518 0.153443 0.036064
-0.045272 1.659113 0.457021 0.005614
-0.534274 0.472003 -0.017078 -0.115777
0.034994 0.765226 0.223515 0.032392
0.106744 1.825614 0.550960 0.023809
-0.031729 0.706096 0.187815 0.070896
-0.394870 0.595951 0.055484 -0.045271
-0.350645 3.528672 0.921309 0.062563
-0.098264 2.682692 0.743801 0.035329
-0.067770 2.760346 0.776554 -0.001541
-0.846268 2.477577 0.460275 -0.095798
-0.510650 0.512511 0.000511 -0.089013
-0.598038 1.548930 0.265696 -0.141689
-0.612461 1.523728 0.254352 -0.110281
-0.005349 1.752693 0.496148 0.013715
-0.216797 0.907477 0.192554 -0.002670
-0.267988 1.963940 0.481701 -0.062896
-0.469793 1.648126 0.330969 -0.135327
0.207029 1.922539 0.610001 0.026873
-0.581700 3.442197 0.825713 -0.045715
-1.034850 3.254589 0.631438 -0.274279
-0.466962 2.770278 0.660200 -0.073251
-0.103845 3.638772 1.034179 0.083375
-1.344424 3.311783 0.555737 -0.056104
-0.877017 2.470885 0.449484 -0.189207
-1.250773 3.270383 0.571446 -0.252833
-0.319132 3.661666 0.971742 -0.033402
0.112019 2.876575 0.868407 0.055519
-0.201356 3.655517 1.007329 -0.039805
0.034383 2.816761 0.825337 -0.007628
-0.710310 2.536978 0.517988 -0.203076
-0.412482 3.815728 0.991211 0.004291
-1.009997 4.183250 0.914297 -0.011260
-0.623983 4.100812 1.010130 -0.161639
-1.109478 3.938517 0.810843 -0.175605
-0.458260 6.849815 1.939932 1.098492
-1.313151 5.414875 1.190214 0.374930
-1.487062 4.741668 0.933462 0.153409
-2.603441 5.144143 0.713693 -0.102480
-0.801744 4.389981 1.041491 0.018944
-0.746667 4.278931 1.025197 -0.131799
-1.113523 4.903185 1.098289 0.014633
-1.518956 4.148711 0.747901 -0.121163
-1.709433 4.475772 0.786122 -0.275564
-1.794924 4.688133 0.822587 -0.130114
-1.505764 4.023141 0.715078 -0.210868
-1.176448 4.652730 1.003036 -0.046718
3.574809 7.206585 3.574809 0.649918
3.501291 7.088832 3.501291 0.408974
-0.095080 5.717958 1.685713 0.245038
0.061249 5.870318 1.788894 1.052845
3.423910 6.963930 3.423910 -0.000000
0.838663 5.991418 2.099564 -0.062184
3.487650 7.066885 3.487650 0.197135
0.882913 6.030475 2.128714 0.238394
-1.500258 4.355409 0.814447 -0.018935
-1.148908 4.950407 1.101366 -0.021857
-0.893996 5.101354 1.228615 -0.071803
-1.184126 4.938621 1.086659 0.011287
0.618858 5.945545 2.006576 0.635239
-0.668723 5.476215 1.417495 0.107223
-0.843416 5.463032 1.356143 0.301479
0.589000 5.907614 1.983508 0.136977
3.423910 6.963930 3.423910 -0.000000
3.487650 7.066885 3.487650 -0.197135
0.838663 5.991418 2.099564 0.062184
0.882913 6.030475 2.128714 -0.238394
3.574809 7.206585 3.574809 -0.649918
-0.095080 5.717958 1.685713 -0.245038
3.501291 7.088832 3.501291 -0.408974
0.061249 5.870318 1.788894 -1.052845
-1.500258 4.355409 0.814447 0.018935
-0.893996 5.101354 1.228615 0.071803
-1.148908 4.950407 1.101366 0.021857
-1.184126 4.938621 1.086659 -0.011287
0.618858 5.945545 2.006576 -0.635239
-0.843416 5.463032 1.356143 -0.301479
-0.668723 5.476215 1.417495 -0.107223
0.589000 5.907614 1.983508 -0.136977
-0.458260 6.849815 1.939932 -1.098492
-1.487062 4.741668 0.933462 -0.153409
-1.313151 5.414875 1.190214 -0.374930
-2.603441 5.144143 0.713693 0.102480
-0.412482 3.815728 0.991211 -0.004291
-0.623983 4.100812 1.010130 0.161639
-1.009997 4.183250 0.914297 0.011260
-1.109478 3.938517 0.810843 0.175605
-0.801744 4.389981 1.041491 -0.018944
-1.113523 4.903185 1.098289 -0.014633
-0.746667 4.278931 1.025197 0.131799
-1.518956 4.148711 0.747901 0.121163
-1.709433 4.475772 0.786122 0.275564
-1.505764 4.023141 0.715078 0.210868
-1.794924 4.688133 0.822587 0.130114
-1.176448 4.652730 1.003036 0.046718
-0.581700 3.442197 0.825713 0.045715
-0.466962 2.770278 0.660200 0.073251
-1.034850 3.254589 0.631438 0.274279
-0.103845 3.638772 1.034179 -0.083375
-0.216797 0.907477 0.192554 0.002670
-0.469793 1.648126 0.330969 0.135327
-0.267988 1.963940 0.481701 0.062896
0.207029 1.922539 0.610001 -0.026873
-1.344424 3.311783 0.555737 0.056104
-1.250773 3.270383 0.571446 0.252833
-0.877017 2.470885 0.449484 0.189207
-0.319132 3.661666 0.971742 0.033402
0.112019 2.876575 0.868407 -0.055519
0.034383 2.816761 0.825337 0.007628
-0.201356 3.655517 1.007329 0.039805
-0.710310 2.536978 0.517988 0.203076

