# vtk DataFile Version 2.0
Unstructured Grid Example
ASCII
DATASET UNSTRUCTURED_GRID

POINTS 8 float
0.000000 1.948843 0.000000 
0.250000 -3.897685 0.000000 
0.250000 1.866733 0.000000 
0.500000 -9.579995 0.000000 
0.500000 -9.579995 0.000000 
0.750000 1.866733 0.000000 
0.750000 -3.897685 0.000000 
1.000000 1.948843 0.000000 

CELLS 4 12
2  0 1 
2  2 3 
2  4 5 
2  6 7 

CELL_TYPES 4
3
3
3
3

POINT_DATA 8

SCALARS lambda_h float 1
LOOKUP_TABLE default
1.948843 
-3.897685 
1.866733 
-9.579995 
-9.579995 
1.866733 
-3.897685 
1.948843 

