# vtk DataFile Version 2.0
Unstructured Grid Example
ASCII
DATASET UNSTRUCTURED_GRID

POINTS 64 float
0.000000 0.000000 0.000000 
0.031250 0.000000 0.000000 
0.031250 0.000000 0.000000 
0.062500 0.000000 0.000000 
0.062500 0.000000 0.000000 
0.093750 0.000000 0.000000 
0.093750 0.000000 0.000000 
0.125000 0.000000 0.000000 
0.187500 0.000000 0.000000 
0.218750 0.000000 0.000000 
0.218750 0.594317 0.000000 
0.250000 -1.188633 0.000000 
0.125000 0.000000 0.000000 
0.156250 0.000000 0.000000 
0.156250 0.000000 0.000000 
0.187500 0.000000 0.000000 
0.437500 -5.019775 0.000000 
0.468750 -6.270680 0.000000 
0.468750 -5.907670 0.000000 
0.500000 -5.745795 0.000000 
0.375000 -4.410890 0.000000 
0.406250 -5.385325 0.000000 
0.406250 -4.684284 0.000000 
0.437500 -5.812973 0.000000 
0.250000 1.507107 0.000000 
0.281250 -4.797164 0.000000 
0.281250 -1.744900 0.000000 
0.312500 -4.597421 0.000000 
0.312500 -2.992286 0.000000 
0.343750 -4.955169 0.000000 
0.343750 -3.866048 0.000000 
0.375000 -5.170528 0.000000 
0.500000 -5.748314 0.000000 
0.531250 -5.902631 0.000000 
0.531250 -6.281633 0.000000 
0.562500 -4.990310 0.000000 
0.562500 -5.820342 0.000000 
0.593750 -4.621570 0.000000 
0.593750 -5.317823 0.000000 
0.625000 -4.427835 0.000000 
0.687500 -4.606943 0.000000 
0.718750 -1.746673 0.000000 
0.718750 -4.800079 0.000000 
0.750000 1.499869 0.000000 
0.625000 -5.139567 0.000000 
0.656250 -3.894360 0.000000 
0.656250 -4.965338 0.000000 
0.687500 -2.997611 0.000000 
0.937500 0.000000 0.000000 
0.968750 0.000000 0.000000 
0.968750 0.000000 0.000000 
1.000000 0.000000 0.000000 
0.875000 0.000000 0.000000 
0.906250 0.000000 0.000000 
0.906250 0.000000 0.000000 
0.937500 0.000000 0.000000 
0.750000 -1.200227 0.000000 
0.781250 0.600114 0.000000 
0.781250 0.000000 0.000000 
0.812500 0.000000 0.000000 
0.812500 0.000000 0.000000 
0.843750 0.000000 0.000000 
0.843750 0.000000 0.000000 
0.875000 0.000000 0.000000 

CELLS 32 96
2  0 1 
2  2 3 
2  4 5 
2  6 7 
2  8 9 
2  10 11 
2  12 13 
2  14 15 
2  16 17 
2  18 19 
2  20 21 
2  22 23 
2  24 25 
2  26 27 
2  28 29 
2  30 31 
2  32 33 
2  34 35 
2  36 37 
2  38 39 
2  40 41 
2  42 43 
2  44 45 
2  46 47 
2  48 49 
2  50 51 
2  52 53 
2  54 55 
2  56 57 
2  58 59 
2  60 61 
2  62 63 

CELL_TYPES 32
3
3
3
3
3
3
3
3
3
3
3
3
3
3
3
3
3
3
3
3
3
3
3
3
3
3
3
3
3
3
3
3

POINT_DATA 64

SCALARS lambda_h float 1
LOOKUP_TABLE default
0.000000 
0.000000 
0.000000 
0.000000 
0.000000 
0.000000 
0.000000 
0.000000 
0.000000 
0.000000 
0.594317 
-1.188633 
0.000000 
0.000000 
0.000000 
0.000000 
-5.019775 
-6.270680 
-5.907670 
-5.745795 
-4.410890 
-5.385325 
-4.684284 
-5.812973 
1.507107 
-4.797164 
-1.744900 
-4.597421 
-2.992286 
-4.955169 
-3.866048 
-5.170528 
-5.748314 
-5.902631 
-6.281633 
-4.990310 
-5.820342 
-4.621570 
-5.317823 
-4.427835 
-4.606943 
-1.746673 
-4.800079 
1.499869 
-5.139567 
-3.894360 
-4.965338 
-2.997611 
0.000000 
0.000000 
0.000000 
0.000000 
0.000000 
0.000000 
0.000000 
0.000000 
-1.200227 
0.600114 
0.000000 
0.000000 
0.000000 
0.000000 
0.000000 
0.000000 

