# vtk DataFile Version 2.0
Unstructured Grid Example
ASCII
DATASET UNSTRUCTURED_GRID

POINTS 81 float
0.006206 -0.183254 0.000000 
0.993794 -0.183254 0.000000 
1.000000 1.000000 0.000000 
0.000000 1.000000 0.000000 
0.500000 -0.097167 0.000000 
0.970015 0.372865 0.000000 
0.500000 1.000000 0.000000 
0.029985 0.372865 0.000000 
0.500000 0.374241 0.000000 
0.251007 -0.159598 0.000000 
0.500000 0.104805 0.000000 
0.251094 0.090489 0.000000 
0.748993 -0.159598 0.000000 
0.748906 0.090489 0.000000 
0.987847 0.085653 0.000000 
0.737885 0.371519 0.000000 
0.963087 0.673139 0.000000 
0.736979 0.678161 0.000000 
0.750000 1.000000 0.000000 
0.500000 0.679409 0.000000 
0.250000 1.000000 0.000000 
0.263021 0.678161 0.000000 
0.036913 0.673139 0.000000 
0.262115 0.371519 0.000000 
0.012153 0.085653 0.000000 
0.129660 -0.178624 0.000000 
0.247367 -0.038576 0.000000 
0.126548 -0.050418 0.000000 
0.500000 -0.010071 0.000000 
0.370256 -0.018714 0.000000 
0.369621 -0.114410 0.000000 
0.377005 0.232747 0.000000 
0.373591 0.100651 0.000000 
0.500000 0.234418 0.000000 
0.630379 -0.114410 0.000000 
0.629744 -0.018714 0.000000 
0.873452 -0.050418 0.000000 
0.752633 -0.038576 0.000000 
0.870340 -0.178624 0.000000 
0.626409 0.100651 0.000000 
0.622995 0.232747 0.000000 
0.994501 -0.051790 0.000000 
0.868903 0.083842 0.000000 
0.853943 0.369398 0.000000 
0.861425 0.223871 0.000000 
0.978483 0.227321 0.000000 
0.743271 0.227365 0.000000 
0.620009 0.374503 0.000000 
0.963815 0.520420 0.000000 
0.850063 0.520116 0.000000 
0.860863 0.837640 0.000000 
0.851524 0.676321 0.000000 
0.971328 0.831965 0.000000 
0.735452 0.522130 0.000000 
0.618333 0.523867 0.000000 
0.875000 1.000000 0.000000 
0.742326 0.837975 0.000000 
0.500000 0.838257 0.000000 
0.621576 0.838079 0.000000 
0.625000 1.000000 0.000000 
0.619118 0.678989 0.000000 
0.500000 0.524326 0.000000 
0.375000 1.000000 0.000000 
0.378424 0.838079 0.000000 
0.139137 0.837640 0.000000 
0.257674 0.837975 0.000000 
0.125000 1.000000 0.000000 
0.380882 0.678989 0.000000 
0.381667 0.523867 0.000000 
0.028672 0.831965 0.000000 
0.148476 0.676321 0.000000 
0.146057 0.369398 0.000000 
0.149937 0.520116 0.000000 
0.036185 0.520420 0.000000 
0.264548 0.522130 0.000000 
0.379991 0.374503 0.000000 
0.021517 0.227321 0.000000 
0.138575 0.223871 0.000000 
0.131097 0.083842 0.000000 
0.005499 -0.051790 0.000000 
0.256729 0.227365 0.000000 

CELLS 128 512
3  0 25 27 
3  9 26 25 
3  11 27 26 
3  25 26 27 
3  4 28 30 
3  10 29 28 
3  9 30 29 
3  28 29 30 
3  8 31 33 
3  11 32 31 
3  10 33 32 
3  31 32 33 
3  9 29 26 
3  10 32 29 
3  11 26 32 
3  29 32 26 
3  4 34 28 
3  12 35 34 
3  10 28 35 
3  34 35 28 
3  1 36 38 
3  13 37 36 
3  12 38 37 
3  36 37 38 
3  8 33 40 
3  10 39 33 
3  13 40 39 
3  33 39 40 
3  12 37 35 
3  13 39 37 
3  10 35 39 
3  37 39 35 
3  1 41 36 
3  14 42 41 
3  13 36 42 
3  41 42 36 
3  5 43 45 
3  15 44 43 
3  14 45 44 
3  43 44 45 
3  8 40 47 
3  13 46 40 
3  15 47 46 
3  40 46 47 
3  14 44 42 
3  15 46 44 
3  13 42 46 
3  44 46 42 
3  5 48 43 
3  16 49 48 
3  15 43 49 
3  48 49 43 
3  2 50 52 
3  17 51 50 
3  16 52 51 
3  50 51 52 
3  8 47 54 
3  15 53 47 
3  17 54 53 
3  47 53 54 
3  16 51 49 
3  17 53 51 
3  15 49 53 
3  51 53 49 
3  2 55 50 
3  18 56 55 
3  17 50 56 
3  55 56 50 
3  6 57 59 
3  19 58 57 
3  18 59 58 
3  57 58 59 
3  8 54 61 
3  17 60 54 
3  19 61 60 
3  54 60 61 
3  18 58 56 
3  19 60 58 
3  17 56 60 
3  58 60 56 
3  6 62 57 
3  20 63 62 
3  19 57 63 
3  62 63 57 
3  3 64 66 
3  21 65 64 
3  20 66 65 
3  64 65 66 
3  8 61 68 
3  19 67 61 
3  21 68 67 
3  61 67 68 
3  20 65 63 
3  21 67 65 
3  19 63 67 
3  65 67 63 
3  3 69 64 
3  22 70 69 
3  21 64 70 
3  69 70 64 
3  7 71 73 
3  23 72 71 
3  22 73 72 
3  71 72 73 
3  8 68 75 
3  21 74 68 
3  23 75 74 
3  68 74 75 
3  22 72 70 
3  23 74 72 
3  21 70 74 
3  72 74 70 
3  7 76 71 
3  24 77 76 
3  23 71 77 
3  76 77 71 
3  0 27 79 
3  11 78 27 
3  24 79 78 
3  27 78 79 
3  8 75 31 
3  23 80 75 
3  11 31 80 
3  75 80 31 
3  24 78 77 
3  11 80 78 
3  23 77 80 
3  78 80 77 

CELL_TYPES 128
5
5
5
5
5
5
5
5
5
5
5
5
5
5
5
5
5
5
5
5
5
5
5
5
5
5
5
5
5
5
5
5
5
5
5
5
5
5
5
5
5
5
5
5
5
5
5
5
5
5
5
5
5
5
5
5
5
5
5
5
5
5
5
5
5
5
5
5
5
5
5
5
5
5
5
5
5
5
5
5
5
5
5
5
5
5
5
5
5
5
5
5
5
5
5
5
5
5
5
5
5
5
5
5
5
5
5
5
5
5
5
5
5
5
5
5
5
5
5
5
5
5
5
5
5
5
5
5

POINT_DATA 81

SCALARS u_h float 2
LOOKUP_TABLE default
0.006206 -0.183254 
-0.006206 -0.183254 
0.000000 0.000000 
0.000000 0.000000 
0.000000 -0.097167 
-0.029985 -0.127135 
0.000000 0.000000 
0.029985 -0.127135 
0.000000 -0.125759 
0.001007 -0.159598 
0.000000 -0.145195 
0.001094 -0.159511 
-0.001007 -0.159598 
-0.001094 -0.159511 
-0.012153 -0.164347 
-0.012115 -0.128481 
-0.036913 -0.076861 
-0.013021 -0.071839 
0.000000 0.000000 
0.000000 -0.070591 
0.000000 0.000000 
0.013021 -0.071839 
0.036913 -0.076861 
0.012115 -0.128481 
0.012153 -0.164347 
0.004660 -0.178624 
-0.002633 -0.163576 
0.001548 -0.175418 
0.000000 -0.135071 
-0.004744 -0.143714 
-0.005379 -0.114410 
0.002005 -0.142253 
-0.001409 -0.149349 
0.000000 -0.140582 
0.005379 -0.114410 
0.004744 -0.143714 
-0.001548 -0.175418 
0.002633 -0.163576 
-0.004660 -0.178624 
0.001409 -0.149349 
-0.002005 -0.142253 
-0.005499 -0.176790 
-0.006097 -0.166158 
-0.021057 -0.130602 
-0.013575 -0.151129 
-0.021517 -0.147679 
-0.006729 -0.147635 
-0.004991 -0.125497 
-0.036185 -0.104580 
-0.024937 -0.104884 
-0.014137 -0.037360 
-0.023476 -0.073679 
-0.028672 -0.043035 
-0.014548 -0.102870 
-0.006667 -0.101133 
0.000000 0.000000 
-0.007674 -0.037025 
0.000000 -0.036743 
-0.003424 -0.036921 
0.000000 0.000000 
-0.005882 -0.071011 
0.000000 -0.100674 
0.000000 0.000000 
0.003424 -0.036921 
0.014137 -0.037360 
0.007674 -0.037025 
0.000000 0.000000 
0.005882 -0.071011 
0.006667 -0.101133 
0.028672 -0.043035 
0.023476 -0.073679 
0.021057 -0.130602 
0.024937 -0.104884 
0.036185 -0.104580 
0.014548 -0.102870 
0.004991 -0.125497 
0.021517 -0.147679 
0.013575 -0.151129 
0.006097 -0.166158 
0.005499 -0.176790 
0.006729 -0.147635 

CELL_DATA 128

SCALARS epsilon float 4
LOOKUP_TABLE default
-0.011232 0.026903 0.000000 0.005457
-0.024472 -0.014640 0.000000 0.063572
-0.036385 0.033694 0.000000 0.061220
-0.031316 0.032245 0.000000 0.033265
0.042105 -0.322486 0.000000 0.098818
0.037236 -0.081617 0.000000 0.037568
-0.054884 -0.137179 0.000000 0.237766
0.036815 -0.255946 0.000000 0.047313
-0.016167 0.111705 0.000000 0.005975
-0.022018 0.056114 0.000000 0.052339
0.011205 0.036724 0.000000 0.016024
-0.016173 0.054892 0.000000 0.020161
-0.011726 -0.013686 0.000000 0.067250
0.010669 -0.046419 0.000000 0.030564
-0.022183 0.032842 0.000000 0.054544
-0.021156 -0.036157 0.000000 0.096696
0.042105 -0.322486 0.000000 -0.098818
-0.054884 -0.137179 0.000000 -0.237766
0.037236 -0.081617 0.000000 -0.037568
0.036815 -0.255946 0.000000 -0.047313
-0.011232 0.026903 0.000000 -0.005457
-0.036385 0.033694 0.000000 -0.061220
-0.024472 -0.014640 0.000000 -0.063572
-0.031316 0.032245 0.000000 -0.033265
-0.016167 0.111705 0.000000 -0.005975
0.011205 0.036724 0.000000 -0.016024
-0.022018 0.056114 0.000000 -0.052339
-0.016173 0.054892 0.000000 -0.020161
-0.011726 -0.013686 0.000000 -0.067250
-0.022183 0.032842 0.000000 -0.054544
0.010669 -0.046419 0.000000 -0.030564
-0.021156 -0.036157 0.000000 -0.096696
-0.032033 0.050499 0.000000 -0.002302
-0.047597 0.095455 0.000000 -0.021169
-0.042069 0.070815 0.000000 -0.043574
-0.031881 0.071023 0.000000 -0.023805
-0.070279 0.153145 0.000000 -0.023895
-0.073477 0.150205 0.000000 -0.038844
-0.061126 0.126833 0.000000 -0.027302
-0.062534 0.152806 0.000000 -0.019511
-0.040438 0.125237 0.000000 -0.011345
-0.039426 0.089531 0.000000 -0.042881
-0.058768 0.141016 0.000000 -0.032761
-0.039205 0.125040 0.000000 -0.031197
-0.047241 0.113980 0.000000 -0.024621
-0.056584 0.140947 0.000000 -0.034474
-0.042174 0.089542 0.000000 -0.047543
-0.056239 0.111871 0.000000 -0.043722
-0.071694 0.166083 0.000000 -0.014392
-0.093968 0.197991 0.000000 -0.002113
-0.074162 0.184853 0.000000 -0.023223
-0.093527 0.185264 0.000000 -0.015559
-0.096016 0.297760 0.000000 0.104193
-0.084195 0.251444 0.000000 0.033031
-0.110048 0.237319 0.000000 0.025368
-0.117868 0.254090 0.000000 0.022785
-0.040631 0.176448 0.000000 -0.005922
-0.058873 0.184329 0.000000 -0.019889
-0.064821 0.218859 0.000000 0.000718
-0.065114 0.176338 0.000000 -0.012754
-0.112874 0.220237 0.000000 -0.003754
-0.086896 0.218883 0.000000 0.000552
-0.086665 0.184336 0.000000 -0.016936
-0.086324 0.219977 0.000000 -0.000276
0.003791 0.256578 0.000000 0.053554
0.001122 0.254625 0.000000 0.029092
-0.052322 0.241662 0.000000 0.020442
-0.048580 0.256813 0.000000 0.055442
0.000000 0.252971 0.000000 -0.000000
-0.027768 0.235789 0.000000 -0.000560
0.000224 0.254014 0.000000 0.012984
-0.027501 0.254044 0.000000 0.012801
-0.054756 0.181115 0.000000 -0.001526
-0.058692 0.213089 0.000000 0.000546
-0.048157 0.212795 0.000000 -0.001349
-0.054723 0.213062 0.000000 0.001719
-0.033332 0.254664 0.000000 0.029794
-0.047971 0.237293 0.000000 0.008526
-0.057878 0.241809 0.000000 0.019023
-0.034433 0.237250 0.000000 0.009381
0.000000 0.252971 0.000000 -0.000000
0.000224 0.254014 0.000000 -0.012984
-0.027768 0.235789 0.000000 0.000560
-0.027501 0.254044 0.000000 -0.012801
0.003791 0.256578 0.000000 -0.053554
-0.052322 0.241662 0.000000 -0.020442
0.001122 0.254625 0.000000 -0.029092
-0.048580 0.256813 0.000000 -0.055442
-0.054756 0.181115 0.000000 0.001526
-0.048157 0.212795 0.000000 0.001349
-0.058692 0.213089 0.000000 -0.000546
-0.054723 0.213062 0.000000 -0.001719
-0.033332 0.254664 0.000000 -0.029794
-0.057878 0.241809 0.000000 -0.019023
-0.047971 0.237293 0.000000 -0.008526
-0.034433 0.237250 0.000000 -0.009381
-0.096016 0.297760 0.000000 -0.104193
-0.110048 0.237319 0.000000 -0.025368
-0.084195 0.251444 0.000000 -0.033031
-0.117868 0.254090 0.000000 -0.022785
-0.071694 0.166083 0.000000 0.014392
-0.074162 0.184853 0.000000 0.023223
-0.093968 0.197991 0.000000 0.002113
-0.093527 0.185264 0.000000 0.015559
-0.040631 0.176448 0.000000 0.005922
-0.064821 0.218859 0.000000 -0.000718
-0.058873 0.184329 0.000000 0.019889
-0.065114 0.176338 0.000000 0.012754
-0.112874 0.220237 0.000000 0.003754
-0.086665 0.184336 0.000000 0.016936
-0.086896 0.218883 0.000000 -0.000552
-0.086324 0.219977 0.000000 0.000276
-0.070279 0.153145 0.000000 0.023895
-0.061126 0.126833 0.000000 0.027302
-0.073477 0.150205 0.000000 0.038844
-0.062534 0.152806 0.000000 0.019511
-0.032033 0.050499 0.000000 0.002302
-0.042069 0.070815 0.000000 0.043574
-0.047597 0.095455 0.000000 0.021169
-0.031881 0.071023 0.000000 0.023805
-0.040438 0.125237 0.000000 0.011345
-0.058768 0.141016 0.000000 0.032761
-0.039426 0.089531 0.000000 0.042881
-0.039205 0.125040 0.000000 0.031197
-0.047241 0.113980 0.000000 0.024621
-0.042174 0.089542 0.000000 0.047543
-0.056584 0.140947 0.000000 0.034474
-0.056239 0.111871 0.000000 0.043722

SCALARS sigma float 4
LOOKUP_TABLE default
-0.023917 0.611192 0.156703 0.110305
-0.604390 -0.645677 -0.391122 0.914496
-0.504632 0.570868 -0.026906 1.016357
-0.436066 0.539143 0.009292 0.579300
-1.892874 -4.570711 -2.803810 0.151454
0.217622 -1.625257 -0.443810 0.509449
-0.715998 -2.852221 -1.920631 1.598489
-1.577366 -4.423795 -2.191309 0.247815
0.680188 3.082826 0.955380 0.130250
0.047838 1.349091 0.340957 0.938152
0.678772 1.120055 0.479291 0.300001
0.124186 1.364839 0.387195 0.341686
-0.257725 -0.498810 -0.254122 1.009869
-0.167134 -1.051018 -0.357503 0.467842
-0.179299 0.690427 0.106582 0.926018
-0.630390 -1.060227 -0.573128 1.352979
-1.892874 -4.570711 -2.803810 -0.151454
-0.715998 -2.852221 -1.920631 -1.598489
0.217622 -1.625257 -0.443810 -0.509449
-1.577366 -4.423795 -2.191309 -0.247815
-0.023917 0.611192 0.156703 -0.110305
-0.504632 0.570868 -0.026906 -1.016357
-0.604390 -0.645677 -0.391122 -0.914496
-0.436066 0.539143 0.009292 -0.579300
0.680188 3.082826 0.955380 -0.130250
0.678772 1.120055 0.479291 -0.300001
0.047838 1.349091 0.340957 -0.938152
0.124186 1.364839 0.387195 -0.341686
-0.257725 -0.498810 -0.254122 -1.009869
-0.179299 0.690427 0.106582 -0.926018
-0.167134 -1.051018 -0.357503 -0.467842
-0.630390 -1.060227 -0.573128 -1.352979
-0.329187 1.062484 0.184654 -0.047443
-0.291677 2.248095 0.478574 -0.301492
-0.347986 1.571474 0.287456 -0.758285
-0.122964 1.676634 0.391419 -0.393938
-0.309628 3.841225 0.828666 -0.276941
-0.393579 3.719022 0.767271 -0.638078
-0.334294 3.095413 0.657074 -0.347258
-0.122794 3.911522 0.902717 -0.212628
0.176786 3.249108 0.847998 -0.172748
-0.110750 2.167035 0.501048 -0.754910
-0.120839 3.570450 0.822474 -0.573140
0.226922 3.261657 0.858350 -0.605929
-0.107483 2.833374 0.667381 -0.349133
-0.064849 3.593763 0.843632 -0.612934
-0.168838 2.140129 0.473680 -0.843813
-0.325226 2.684827 0.556321 -0.737495
-0.220321 4.242841 0.943895 -0.125513
-0.451413 5.065655 1.040224 -0.021862
-0.095095 4.853637 1.106911 -0.414077
-0.556114 4.638145 0.917377 -0.221200
0.324144 9.039704 2.017446 1.239293
0.258636 7.139497 1.672494 0.420746
-0.478207 6.294862 1.272705 0.250849
-0.512460 6.811277 1.362219 0.106294
0.662878 4.946702 1.358166 -0.085320
0.278310 5.009078 1.254562 -0.396220
0.445125 6.150540 1.540377 -0.049953
0.043963 4.659271 1.112233 -0.244752
-0.682679 5.621878 1.073631 -0.161082
-0.095747 5.886646 1.319872 -0.054929
-0.400102 4.683927 0.976711 -0.310830
-0.071948 5.932438 1.336533 -0.073635
2.665855 8.455406 2.603687 0.878282
2.575854 8.294560 2.557461 0.477114
0.978240 7.144739 1.893402 0.304074
1.213881 7.827005 2.082330 0.846237
2.529709 8.195559 2.529709 -0.000000
1.579061 7.214398 2.080209 -0.015779
2.546044 8.242304 2.542377 0.212945
1.763140 7.903031 2.265434 0.196753
0.345061 4.941518 1.263583 -0.037299
0.546173 6.017243 1.543969 -0.020147
0.814366 6.132513 1.646375 -0.035609
0.647226 6.063848 1.583398 0.010714
1.607766 7.874121 2.213318 0.467192
1.051526 7.026906 1.893216 0.116932
0.834693 7.081669 1.839306 0.261234
1.411877 7.189936 2.028171 0.144420
2.529709 8.195559 2.529709 -0.000000
2.546044 8.242304 2.542377 -0.212945
1.579061 7.214398 2.080209 0.015779
1.763140 7.903031 2.265434 -0.196753
2.665855 8.455406 2.603687 -0.878282
0.978240 7.144739 1.893402 -0.304074
2.575854 8.294560 2.557461 -0.477114
1.213881 7.827005 2.082330 -0.846237
0.345061 4.941518 1.263583 0.037299
0.814366 6.132513 1.646375 0.035609
0.546173 6.017243 1.543969 0.020147
0.647226 6.063848 1.583398 -0.010714
1.607766 7.874121 2.213318 -0.467192
0.834693 7.081669 1.839306 -0.261234
1.051526 7.026906 1.893216 -0.116932
1.411877 7.189936 2.028171 -0.144420
0.324144 9.039704 2.017446 -1.239293
-0.478207 6.294862 1.272705 -0.250849
0.258636 7.139497 1.672494 -0.420746
-0.512460 6.811277 1.362219 -0.106294
-0.220321 4.242841 0.943895 0.125513
-0.095095 4.853637 1.106911 0.414077
-0.451413 5.065655 1.040224 0.021862
-0.556114 4.638145 0.917377 0.221200
0.662878 4.946702 1.358166 0.085320
0.445125 6.150540 1.540377 0.049953
0.278310 5.009078 1.254562 0.396220
0.043963 4.659271 1.112233 0.244752
-0.682679 5.621878 1.073631 0.161082
-0.400102 4.683927 0.976711 0.310830
-0.095747 5.886646 1.319872 0.054929
-0.071948 5.932438 1.336533 0.073635
-0.309628 3.841225 0.828666 0.276941
-0.334294 3.095413 0.657074 0.347258
-0.393579 3.719022 0.767271 0.638078
-0.122794 3.911522 0.902717 0.212628
-0.329187 1.062484 0.184654 0.047443
-0.347986 1.571474 0.287456 0.758285
-0.291677 2.248095 0.478574 0.301492
-0.122964 1.676634 0.391419 0.393938
0.176786 3.249108 0.847998 0.172748
-0.120839 3.570450 0.822474 0.573140
-0.110750 2.167035 0.501048 0.754910
0.226922 3.261657 0.858350 0.605929
-0.107483 2.833374 0.667381 0.349133
-0.168838 2.140129 0.473680 0.843813
-0.064849 3.593763 0.843632 0.612934
-0.325226 2.684827 0.556321 0.737495

