# vtk DataFile Version 2.0
Unstructured Grid Example
ASCII
DATASET UNSTRUCTURED_GRID

POINTS 1089 float
0.004794 -0.183677 0.000000 
0.995187 -0.183683 0.000000 
1.000000 1.000000 0.000000 
0.000000 1.000000 0.000000 
0.500030 -0.099802 0.000000 
0.968986 0.371841 0.000000 
0.500000 1.000000 0.000000 
0.030997 0.371853 0.000000 
0.499995 0.374389 0.000000 
0.252918 -0.160916 0.000000 
0.499993 0.102436 0.000000 
0.250748 0.089495 0.000000 
0.747085 -0.160918 0.000000 
0.749222 0.089477 0.000000 
0.988246 0.085346 0.000000 
0.737607 0.370306 0.000000 
0.960993 0.672446 0.000000 
0.736150 0.677423 0.000000 
0.750000 1.000000 0.000000 
0.499998 0.678694 0.000000 
0.250000 1.000000 0.000000 
0.263845 0.677426 0.000000 
0.038999 0.672453 0.000000 
0.262378 0.370315 0.000000 
0.011728 0.085357 0.000000 
0.130205 -0.180826 0.000000 
0.246176 -0.039172 0.000000 
0.126218 -0.051809 0.000000 
0.499992 -0.013511 0.000000 
0.370423 -0.021070 0.000000 
0.365952 -0.117793 0.000000 
0.377507 0.231089 0.000000 
0.373871 0.098499 0.000000 
0.499993 0.233240 0.000000 
0.634013 -0.117782 0.000000 
0.629528 -0.021134 0.000000 
0.873757 -0.051819 0.000000 
0.753789 -0.039189 0.000000 
0.869778 -0.180833 0.000000 
0.626103 0.098474 0.000000 
0.622475 0.231077 0.000000 
0.994651 -0.052673 0.000000 
0.869265 0.082902 0.000000 
0.853618 0.368236 0.000000 
0.861293 0.222834 0.000000 
0.978462 0.226947 0.000000 
0.742995 0.226138 0.000000 
0.619610 0.373294 0.000000 
0.962268 0.520033 0.000000 
0.849042 0.519168 0.000000 
0.859111 0.836972 0.000000 
0.849988 0.675615 0.000000 
0.968862 0.829979 0.000000 
0.734883 0.521110 0.000000 
0.618252 0.522979 0.000000 
0.875000 1.000000 0.000000 
0.741765 0.837642 0.000000 
0.499999 0.837824 0.000000 
0.621426 0.837764 0.000000 
0.625000 1.000000 0.000000 
0.618907 0.678347 0.000000 
0.499997 0.523715 0.000000 
0.375000 1.000000 0.000000 
0.378573 0.837765 0.000000 
0.140886 0.836974 0.000000 
0.258233 0.837644 0.000000 
0.125000 1.000000 0.000000 
0.381089 0.678349 0.000000 
0.381740 0.522982 0.000000 
0.031134 0.829983 0.000000 
0.150005 0.675620 0.000000 
0.146364 0.368246 0.000000 
0.150946 0.519175 0.000000 
0.037720 0.520044 0.000000 
0.265108 0.521116 0.000000 
0.380378 0.373300 0.000000 
0.021515 0.226960 0.000000 
0.138684 0.222845 0.000000 
0.130707 0.082914 0.000000 
0.005325 -0.052666 0.000000 
0.256983 0.226151 0.000000 
0.067228 -0.183041 0.000000 
0.126939 -0.117256 0.000000 
0.065829 -0.119295 0.000000 
0.246378 -0.100732 0.000000 
0.187200 -0.111640 0.000000 
0.192957 -0.174733 0.000000 
0.187680 0.018453 0.000000 
0.186187 -0.047139 0.000000 
0.248020 0.024166 0.000000 
0.499988 -0.062536 0.000000 
0.433761 -0.065795 0.000000 
0.431538 -0.104489 0.000000 
0.435734 0.040764 0.000000 
0.434800 -0.015499 0.000000 
0.499993 0.042171 0.000000 
0.306790 -0.137195 0.000000 
0.369110 -0.073822 0.000000 
0.306385 -0.085845 0.000000 
0.439403 0.302345 0.000000 
0.438599 0.232690 0.000000 
0.499994 0.302725 0.000000 
0.311828 0.094235 0.000000 
0.375734 0.163429 0.000000 
0.314413 0.160300 0.000000 
0.499993 0.166327 0.000000 
0.437684 0.165573 0.000000 
0.436710 0.101409 0.000000 
0.307387 -0.029470 0.000000 
0.372045 0.036763 0.000000 
0.309386 0.030834 0.000000 
0.568419 -0.104485 0.000000 
0.566192 -0.065897 0.000000 
0.693572 -0.085878 0.000000 
0.630823 -0.073925 0.000000 
0.693230 -0.137202 0.000000 
0.565168 -0.015564 0.000000 
0.564243 0.040732 0.000000 
0.934150 -0.119303 0.000000 
0.873041 -0.117263 0.000000 
0.932754 -0.183048 0.000000 
0.751946 0.024147 0.000000 
0.813785 -0.047150 0.000000 
0.812290 0.018439 0.000000 
0.807031 -0.174740 0.000000 
0.812778 -0.111648 0.000000 
0.753596 -0.100742 0.000000 
0.561387 0.232683 0.000000 
0.560585 0.302341 0.000000 
0.563272 0.101391 0.000000 
0.562299 0.165563 0.000000 
0.685563 0.160282 0.000000 
0.624245 0.163412 0.000000 
0.688143 0.094213 0.000000 
0.692568 -0.029506 0.000000 
0.690577 0.030805 0.000000 
0.627921 0.036724 0.000000 
0.995544 -0.119419 0.000000 
0.934127 -0.053443 0.000000 
0.928862 0.082705 0.000000 
0.932233 0.013991 0.000000 
0.992127 0.015778 0.000000 
0.872255 0.014919 0.000000 
0.809476 0.085378 0.000000 
0.911252 0.368909 0.000000 
0.915405 0.295676 0.000000 
0.973487 0.298947 0.000000 
0.798863 0.295636 0.000000 
0.857243 0.294847 0.000000 
0.795813 0.368920 0.000000 
0.983523 0.155758 0.000000 
0.919964 0.223568 0.000000 
0.924594 0.152577 0.000000 
0.620898 0.301130 0.000000 
0.559923 0.374217 0.000000 
0.746129 0.156824 0.000000 
0.683046 0.228730 0.000000 
0.678874 0.371893 0.000000 
0.680763 0.299332 0.000000 
0.740079 0.297333 0.000000 
0.865437 0.152192 0.000000 
0.802360 0.223938 0.000000 
0.806015 0.153853 0.000000 
0.965084 0.445423 0.000000 
0.907869 0.443303 0.000000 
0.904637 0.595826 0.000000 
0.905556 0.518922 0.000000 
0.960781 0.595686 0.000000 
0.850802 0.443009 0.000000 
0.793539 0.443742 0.000000 
0.925402 0.917791 0.000000 
0.915103 0.835170 0.000000 
0.978883 0.911992 0.000000 
0.793585 0.676685 0.000000 
0.853396 0.755792 0.000000 
0.796554 0.756706 0.000000 
0.963418 0.750441 0.000000 
0.908744 0.753854 0.000000 
0.905515 0.674100 0.000000 
0.618693 0.447318 0.000000 
0.559440 0.448027 0.000000 
0.735819 0.444942 0.000000 
0.677529 0.446225 0.000000 
0.676953 0.599454 0.000000 
0.676859 0.522141 0.000000 
0.734958 0.598664 0.000000 
0.848657 0.596711 0.000000 
0.792194 0.597728 0.000000 
0.792250 0.520039 0.000000 
0.937500 1.000000 0.000000 
0.866764 0.918566 0.000000 
0.745746 0.918630 0.000000 
0.806576 0.918654 0.000000 
0.812500 1.000000 0.000000 
0.801024 0.837482 0.000000 
0.738465 0.757166 0.000000 
0.500000 0.918577 0.000000 
0.561609 0.918573 0.000000 
0.562500 1.000000 0.000000 
0.560071 0.757765 0.000000 
0.560776 0.837801 0.000000 
0.499999 0.757822 0.000000 
0.687500 1.000000 0.000000 
0.623152 0.918580 0.000000 
0.684560 0.918598 0.000000 
0.559226 0.523519 0.000000 
0.499996 0.448251 0.000000 
0.677847 0.677960 0.000000 
0.618322 0.600060 0.000000 
0.499997 0.600596 0.000000 
0.559265 0.600447 0.000000 
0.559554 0.678593 0.000000 
0.681813 0.837715 0.000000 
0.619969 0.757641 0.000000 
0.679508 0.757447 0.000000 
0.437500 1.000000 0.000000 
0.438390 0.918573 0.000000 
0.315439 0.918599 0.000000 
0.376847 0.918580 0.000000 
0.312500 1.000000 0.000000 
0.439223 0.837801 0.000000 
0.439927 0.757766 0.000000 
0.074597 0.917792 0.000000 
0.133235 0.918567 0.000000 
0.062500 1.000000 0.000000 
0.261531 0.757168 0.000000 
0.198974 0.837483 0.000000 
0.203442 0.756708 0.000000 
0.187500 1.000000 0.000000 
0.193423 0.918655 0.000000 
0.254253 0.918630 0.000000 
0.440767 0.523521 0.000000 
0.440551 0.448030 0.000000 
0.440443 0.678594 0.000000 
0.440730 0.600448 0.000000 
0.323041 0.599457 0.000000 
0.381672 0.600062 0.000000 
0.322148 0.677962 0.000000 
0.318186 0.837716 0.000000 
0.320490 0.757449 0.000000 
0.380028 0.757642 0.000000 
0.021114 0.911994 0.000000 
0.084894 0.835173 0.000000 
0.094478 0.674106 0.000000 
0.091251 0.753858 0.000000 
0.036576 0.750446 0.000000 
0.146600 0.755795 0.000000 
0.206409 0.676689 0.000000 
0.088730 0.368920 0.000000 
0.092116 0.443313 0.000000 
0.034901 0.445434 0.000000 
0.206448 0.443750 0.000000 
0.149184 0.443017 0.000000 
0.204171 0.368928 0.000000 
0.039209 0.595695 0.000000 
0.094432 0.518930 0.000000 
0.095354 0.595833 0.000000 
0.381297 0.447322 0.000000 
0.440067 0.374220 0.000000 
0.265035 0.598668 0.000000 
0.323132 0.522146 0.000000 
0.321113 0.371901 0.000000 
0.322460 0.446231 0.000000 
0.264169 0.444949 0.000000 
0.151334 0.596717 0.000000 
0.207739 0.520045 0.000000 
0.207799 0.597733 0.000000 
0.026493 0.298960 0.000000 
0.084574 0.295687 0.000000 
0.075380 0.152588 0.000000 
0.080013 0.223579 0.000000 
0.016452 0.155771 0.000000 
0.142737 0.294858 0.000000 
0.201118 0.295647 0.000000 
0.065848 -0.053434 0.000000 
0.004435 -0.119413 0.000000 
0.190495 0.085392 0.000000 
0.127717 0.014930 0.000000 
0.007847 0.015786 0.000000 
0.067741 0.014001 0.000000 
0.071111 0.082716 0.000000 
0.379088 0.301139 0.000000 
0.259902 0.297343 0.000000 
0.319220 0.299342 0.000000 
0.316934 0.228743 0.000000 
0.253845 0.156839 0.000000 
0.134537 0.152204 0.000000 
0.193959 0.153867 0.000000 
0.197617 0.223950 0.000000 
0.035942 -0.183381 0.000000 
0.066451 -0.151472 0.000000 
0.035460 -0.151754 0.000000 
0.128291 -0.149353 0.000000 
0.097417 -0.150757 0.000000 
0.098672 -0.182278 0.000000 
0.095996 -0.085994 0.000000 
0.096458 -0.118621 0.000000 
0.126258 -0.084710 0.000000 
0.248243 -0.131009 0.000000 
0.219114 -0.138319 0.000000 
0.223620 -0.169272 0.000000 
0.216070 -0.075368 0.000000 
0.216896 -0.106953 0.000000 
0.245890 -0.070148 0.000000 
0.161700 -0.178419 0.000000 
0.189304 -0.143460 0.000000 
0.158969 -0.147013 0.000000 
0.219056 0.053980 0.000000 
0.217762 0.021089 0.000000 
0.249313 0.056577 0.000000 
0.156244 -0.049889 0.000000 
0.186712 -0.014495 0.000000 
0.156733 -0.016902 0.000000 
0.246941 -0.007745 0.000000 
0.216744 -0.011405 0.000000 
0.216119 -0.043539 0.000000 
0.157206 -0.114998 0.000000 
0.186271 -0.079515 0.000000 
0.156350 -0.082594 0.000000 
0.500064 -0.083014 0.000000 
0.466447 -0.084013 0.000000 
0.465603 -0.100984 0.000000 
0.467059 -0.039721 0.000000 
0.466734 -0.063404 0.000000 
0.499989 -0.039079 0.000000 
0.398160 -0.110180 0.000000 
0.433104 -0.087307 0.000000 
0.400361 -0.092076 0.000000 
0.468072 0.071500 0.000000 
0.467825 0.041817 0.000000 
0.499993 0.071803 0.000000 
0.402478 -0.017881 0.000000 
0.435263 0.012012 0.000000 
0.403113 0.010001 0.000000 
0.499993 0.013671 0.000000 
0.467581 0.013255 0.000000 
0.467332 -0.014013 0.000000 
0.279631 -0.148438 0.000000 
0.306539 -0.112094 0.000000 
0.276941 -0.121325 0.000000 
0.368288 -0.097630 0.000000 
0.336984 -0.104206 0.000000 
0.335450 -0.126922 0.000000 
0.337988 -0.052815 0.000000 
0.337470 -0.079302 0.000000 
0.369741 -0.048181 0.000000 
0.434321 -0.041553 0.000000 
0.401868 -0.044410 0.000000 
0.401217 -0.069328 0.000000 
[...]
POINT_DATA 1089

SCALARS u_h float 2
LOOKUP_TABLE default
0.004794 -0.183677 
-0.004813 -0.183683 
0.000000 0.000000 
0.000000 0.000000 
0.000030 -0.099802 
-0.031014 -0.128159 
0.000000 0.000000 
0.030997 -0.128147 
-0.000005 -0.125611 
0.002918 -0.160916 
-0.000007 -0.147564 
0.000748 -0.160505 
-0.002915 -0.160918 
-0.000778 -0.160523 
-0.011754 -0.164654 
-0.012393 -0.129694 
-0.039007 -0.077554 
-0.013850 -0.072577 
0.000000 0.000000 
-0.000002 -0.071306 
0.000000 0.000000 
0.013845 -0.072574 
0.038999 -0.077547 
0.012378 -0.129685 
0.011728 -0.164643 
0.005205 -0.180826 
-0.003824 -0.164172 
0.001218 -0.176809 
-0.000008 -0.138511 
-0.004577 -0.146070 
-0.009048 -0.117793 
0.002507 -0.143911 
-0.001129 -0.151501 
-0.000007 -0.141760 
0.009013 -0.117782 
0.004528 -0.146134 
-0.001243 -0.176819 
0.003789 -0.164189 
-0.005222 -0.180833 
0.001103 -0.151526 
-0.002525 -0.143923 
-0.005349 -0.177673 
-0.005735 -0.167098 
-0.021382 -0.131764 
-0.013707 -0.152166 
-0.021538 -0.148053 
-0.007005 -0.148862 
-0.005390 -0.126706 
-0.037732 -0.104967 
-0.025958 -0.105832 
-0.015889 -0.038028 
-0.025012 -0.074385 
-0.031138 -0.045021 
-0.015117 -0.103890 
-0.006748 -0.102021 
0.000000 0.000000 
-0.008235 -0.037358 
-0.000001 -0.037176 
-0.003574 -0.037236 
0.000000 0.000000 
-0.006093 -0.071653 
-0.000003 -0.101285 
0.000000 0.000000 
0.003573 -0.037235 
0.015886 -0.038026 
0.008233 -0.037356 
0.000000 0.000000 
0.006089 -0.071651 
0.006740 -0.102018 
0.031134 -0.045017 
0.025005 -0.074380 
0.021364 -0.131754 
0.025946 -0.105825 
0.037720 -0.104956 
0.015108 -0.103884 
0.005378 -0.126700 
0.021515 -0.148040 
0.013684 -0.152155 
0.005707 -0.167086 
0.005325 -0.177666 
0.006983 -0.148849 
0.004728 -0.183041 
0.001939 -0.179756 
0.003329 -0.181795 
-0.003622 -0.163232 
-0.000300 -0.174140 
0.005457 -0.174733 
0.000180 -0.169047 
-0.001313 -0.172139 
-0.001980 -0.163334 
-0.000012 -0.125036 
-0.003739 -0.128295 
-0.005962 -0.104489 
-0.001766 -0.146736 
-0.002700 -0.140499 
-0.000007 -0.145329 
-0.005710 -0.137195 
-0.005890 -0.136322 
-0.006115 -0.148345 
0.001903 -0.135155 
0.001099 -0.142310 
-0.000006 -0.134775 
-0.000672 -0.155765 
0.000734 -0.149071 
0.001913 -0.152200 
-0.000007 -0.146173 
0.000184 -0.146927 
-0.000790 -0.148591 
-0.005113 -0.154470 
-0.002955 -0.150737 
-0.003114 -0.156666 
0.005919 -0.104485 
0.003692 -0.128397 
0.006072 -0.148378 
0.005823 -0.136425 
0.005730 -0.137202 
0.002668 -0.140564 
0.001743 -0.146768 
-0.003350 -0.181803 
-0.001959 -0.179763 
-0.004746 -0.183048 
0.001946 -0.163353 
0.001285 -0.172150 
-0.000210 -0.169061 
-0.005469 -0.174740 
0.000278 -0.174148 
0.003596 -0.163242 
-0.001113 -0.142317 
-0.001915 -0.135159 
0.000772 -0.148609 
-0.000201 -0.146937 
-0.001937 -0.152218 
-0.000755 -0.149088 
0.000643 -0.155787 
0.005068 -0.154506 
0.003077 -0.156695 
0.002921 -0.150776 
-0.004456 -0.181919 
-0.003373 -0.178443 
-0.008638 -0.167295 
-0.005267 -0.173509 
-0.007873 -0.171722 
-0.002745 -0.172581 
-0.003024 -0.164622 
-0.026248 -0.131091 
-0.022095 -0.141824 
-0.026513 -0.138553 
-0.013637 -0.141864 
-0.017757 -0.142653 
-0.016687 -0.131080 
-0.016477 -0.156742 
-0.017536 -0.151432 
-0.012906 -0.159923 
-0.004102 -0.136370 
-0.002577 -0.125783 
-0.003871 -0.155676 
-0.004454 -0.146270 
-0.008626 -0.128107 
-0.006737 -0.138168 
-0.009921 -0.140167 
-0.009563 -0.160308 
-0.010140 -0.151062 
-0.006485 -0.158647 
-0.034916 -0.117077 
-0.029631 -0.119197 
-0.032863 -0.091674 
-0.031944 -0.106078 
-0.039219 -0.091814 
-0.024198 -0.119491 
-0.018961 -0.118758 
-0.012098 -0.019709 
-0.022397 -0.039830 
-0.021117 -0.025508 
-0.018915 -0.073315 
-0.021604 -0.056708 
-0.015946 -0.055794 
-0.036582 -0.062059 
-0.028756 -0.058646 
-0.031985 -0.075900 
-0.006307 -0.115182 
-0.003060 -0.114473 
-0.014181 -0.117558 
-0.009971 -0.116275 
-0.010547 -0.088046 
-0.010641 -0.102859 
-0.015042 -0.088836 
-0.026343 -0.090789 
-0.020306 -0.089772 
-0.020250 -0.104961 
0.000000 0.000000 
-0.008236 -0.018934 
-0.004254 -0.018870 
-0.005924 -0.018846 
0.000000 0.000000 
-0.011476 -0.037518 
-0.011535 -0.055334 
-0.000000 -0.018923 
-0.000891 -0.018927 
0.000000 0.000000 
-0.002429 -0.054735 
-0.001724 -0.037199 
-0.000001 -0.054678 
0.000000 0.000000 
-0.001848 -0.018920 
-0.002940 -0.018902 
-0.003274 -0.101481 
-0.000004 -0.114249 
-0.009653 -0.072040 
-0.006678 -0.087440 
-0.000003 -0.086904 
-0.003235 -0.087053 
-0.002946 -0.071407 
-0.005687 -0.037285 
-0.005031 -0.054859 
-0.007992 -0.055053 
0.000000 0.000000 
0.000890 -0.018927 
0.002939 -0.018901 
0.001847 -0.018920 
0.000000 0.000000 
0.001723 -0.037199 
0.002427 -0.054734 
0.012097 -0.019708 
0.008235 -0.018933 
0.000000 0.000000 
0.011531 -0.055332 
0.011474 -0.037517 
0.015942 -0.055792 
0.000000 0.000000 
0.005923 -0.018845 
0.004253 -0.018870 
0.003267 -0.101479 
0.003051 -0.114470 
0.002943 -0.071406 
0.003230 -0.087052 
0.010541 -0.088043 
0.006672 -0.087438 
0.009648 -0.072038 
0.005686 -0.037284 
0.007990 -0.055051 
0.005028 -0.054858 
0.021114 -0.025506 
0.022394 -0.039827 
0.031978 -0.075894 
0.028751 -0.058642 
0.036576 -0.062054 
0.021600 -0.056705 
0.018909 -0.073311 
0.026230 -0.131080 
0.029616 -0.119187 
0.034901 -0.117066 
0.018948 -0.118750 
0.024184 -0.119483 
0.016671 -0.131072 
0.039209 -0.091805 
0.031932 -0.106070 
0.032854 -0.091667 
0.006297 -0.115178 
0.002567 -0.125780 
0.015035 -0.088832 
0.010632 -0.102854 
0.008613 -0.128099 
0.009960 -0.116269 
0.014169 -0.117551 
0.026334 -0.090783 
0.020239 -0.104955 
0.020299 -0.089767 
0.026493 -0.138540 
0.022074 -0.141813 
0.012880 -0.159912 
0.017513 -0.151421 
0.016452 -0.156729 
0.017737 -0.142642 
0.013618 -0.141853 
0.003348 -0.178434 
0.004435 -0.181913 
0.002995 -0.164608 
0.002717 -0.172570 
0.007847 -0.171714 
0.005241 -0.173499 
0.008611 -0.167284 
0.004088 -0.136361 
0.009902 -0.140157 
0.006720 -0.138158 
0.004434 -0.146257 
0.003845 -0.155661 
0.009537 -0.160296 
0.006459 -0.158633 
0.010117 -0.151050 
0.004692 -0.183381 
0.003951 -0.182722 
0.004210 -0.183004 
0.003291 -0.180603 
0.003667 -0.182007 
0.004922 -0.182278 
0.002246 -0.179744 
0.002708 -0.181121 
0.001258 -0.178460 
-0.001757 -0.162259 
0.000364 -0.169569 
0.004870 -0.169272 
-0.002680 -0.169118 
-0.001854 -0.169453 
-0.004110 -0.163898 
0.005450 -0.178419 
0.001804 -0.174710 
0.002719 -0.178263 
0.000306 -0.164770 
-0.000988 -0.166411 
-0.000687 -0.162173 
-0.000006 -0.174889 
-0.000788 -0.170745 
0.000483 -0.173152 
-0.003059 -0.163995 
-0.002006 -0.167655 
-0.002631 -0.168539 
0.000956 -0.177498 
-0.001229 -0.173265 
0.000100 -0.176344 
0.000064 -0.114264 
-0.002303 -0.115263 
-0.003147 -0.100984 
-0.001691 -0.133471 
-0.002016 -0.125904 
-0.000011 -0.132829 
-0.008090 -0.110180 
-0.004396 -0.118557 
-0.005889 -0.123326 
-0.000678 -0.147250 
-0.000925 -0.145683 
-0.000007 -0.146947 
-0.003772 -0.142881 
-0.002237 -0.144238 
-0.003137 -0.146249 
-0.000007 -0.142579 
-0.001169 -0.142995 
-0.001418 -0.139013 
-0.001619 -0.148438 
-0.005961 -0.143344 
-0.004309 -0.152575 
-0.006712 -0.128880 
-0.006766 -0.135456 
-0.008300 -0.126922 
-0.005762 -0.146565 
-0.006280 -0.141802 
-0.005259 -0.141931 
-0.003179 -0.135303 
-0.004382 -0.138160 
-0.005033 -0.131828 
0.001096 -0.130479 
0.000925 -0.134855 
-0.000005 -0.130441 
0.001750 -0.142993 
0.001517 -0.139028 
0.002373 -0.139619 
-0.000006 -0.138564 
0.000734 -0.138672 
0.000525 -0.141893 
-0.000082 -0.158142 
0.000616 -0.154296 
0.001339 -0.156322 
-0.000194 -0.150652 
0.000110 -0.152371 
-0.001016 -0.153511 
0.002334 -0.148085 
0.001233 -0.150548 
0.001639 -0.146809 
-0.000007 -0.147279 
-0.000180 -0.147500 
-0.000428 -0.147823 
0.000300 -0.144473 
0.000064 -0.146361 
-0.000007 -0.144314 
-0.001040 -0.149836 
-0.000299 -0.148159 
-0.000318 -0.149226 
0.001087 -0.145750 
0.000395 -0.147844 
0.000652 -0.144959 
-0.005243 -0.155714 
-0.005050 -0.149977 
-0.005791 -0.151980 
-0.005244 -0.157918 
-0.004703 -0.159319 
-0.001282 -0.148148 
-0.002056 -0.151555 
-0.001759 -0.149604 
-0.002463 -0.148444 
-0.003803 -0.148951 
-0.001445 -0.159378 
-0.003820 -0.159999 
-0.002709 -0.160006 
-0.001926 -0.156570 
-0.002124 -0.153915 
-0.004176 -0.152244 
-0.003187 -0.153520 
-0.004195 -0.155993 
0.003203 -0.100989 
0.002348 -0.115038 
0.005824 -0.123452 
0.004349 -0.118543 
0.008026 -0.110167 
0.001989 -0.125966 
0.001664 -0.133534 
0.004292 -0.152585 
0.005937 -0.143369 
0.001632 -0.148444 
0.005200 -0.142013 
0.006224 -0.141863 
0.005707 -0.146622 
0.008307 -0.126923 
0.006731 -0.135514 
0.006663 -0.128992 
0.000908 -0.145702 
0.000661 -0.147264 
0.001396 -0.139056 
0.001151 -0.143023 
0.003102 -0.146302 
0.002211 -0.144283 
0.003729 -0.142953 
0.004967 -0.131963 
0.004327 -0.138261 
0.003138 -0.135394 
-0.004230 -0.183011 
-0.003970 -0.182729 
-0.004711 -0.183388 
-0.001281 -0.178468 
-0.002729 -0.181128 
-0.002269 -0.179753 
-0.004940 -0.182286 
-0.003686 -0.182015 
-0.003310 -0.180610 
0.000655 -0.162191 
0.000956 -0.166427 
-0.000337 -0.164786 
0.002600 -0.168553 
0.001974 -0.167670 
0.003024 -0.164014 
-0.000512 -0.173163 
0.000759 -0.170758 
-0.000021 -0.174899 
-0.004877 -0.169279 
-0.000379 -0.169575 
0.001744 -0.162264 
-0.002736 -0.178270 
-0.001820 -0.174717 
-0.005465 -0.178426 
0.004077 -0.163912 
0.001832 -0.169461 
0.002652 -0.169129 
-0.000125 -0.176353 
0.001203 -0.173274 
-0.000977 -0.177506 
-0.000937 -0.134857 
-0.001107 -0.130481 
-0.000538 -0.141897 
-0.000747 -0.138675 
-0.002388 -0.139627 
-0.001531 -0.139034 
-0.001765 -0.143003 
0.000412 -0.147833 
0.000164 -0.147508 
0.000298 -0.149244 
0.000282 -0.148172 
0.001018 -0.149859 
-0.000079 -0.146367 
-0.000315 -0.144478 
-0.001367 -0.156340 
-0.000643 -0.154315 
0.000052 -0.158163 
-0.001657 -0.146823 
-0.001255 -0.150566 
-0.002354 -0.148100 
0.000988 -0.153535 
-0.000135 -0.152392 
0.000171 -0.150673 
-0.000668 -0.144968 
-0.000413 -0.147859 
-0.001104 -0.145762 
0.005210 -0.155731 
0.004664 -0.159344 
0.005205 -0.157940 
0.005744 -0.152016 
0.005001 -0.150026 
0.001412 -0.159401 
0.002092 -0.153944 
0.001893 -0.156596 
0.002673 -0.160030 
0.003782 -0.160023 
0.001261 -0.148172 
0.003763 -0.149001 
0.002434 -0.148483 
0.001734 -0.149633 
0.002027 -0.151586 
0.004154 -0.156026 
0.003151 -0.153555 
0.004134 -0.152286 
-0.004528 -0.183154 
-0.003895 -0.181994 
-0.004341 -0.178316 
-0.003903 -0.180400 
-0.004703 -0.180057 
-0.003123 -0.180348 
-0.002356 -0.177972 
-0.010154 -0.166370 
-0.008198 -0.169807 
-0.009675 -0.168305 
-0.005444 -0.170601 
-0.006804 -0.170552 
-0.007169 -0.167515 
-0.006414 -0.174866 
-0.006533 -0.172967 
-0.005228 -0.175818 
-0.001501 -0.167025 
-0.001818 -0.162722 
-0.001763 -0.174853 
-0.001465 -0.171133 
-0.004344 -0.166110 
-0.002772 -0.168789 
-0.004098 -0.169999 
-0.004102 -0.176149 
-0.004014 -0.173377 
-0.002959 -0.175838 
-0.028660 -0.129983 
-0.026547 -0.135388 
-0.028853 -0.133473 
-0.021929 -0.137225 
-0.024238 -0.136599 
-0.023810 -0.131645 
-0.024060 -0.143409 
-0.024297 -0.140548 
-0.021940 -0.145461 
-0.013171 -0.135971 
-0.015235 -0.136668 
-0.014479 -0.130441 
-0.015766 -0.147581 
-0.015658 -0.142413 
-0.013806 -0.147291 
-0.018997 -0.131547 
-0.017400 -0.137165 
-0.019640 -0.137380 
-0.014043 -0.160796 
-0.014657 -0.158734 
-0.012330 -0.162676 
-0.019516 -0.150128 
-0.017071 -0.154552 
-0.018994 -0.152495 
-0.013388 -0.156402 
-0.015205 -0.155817 
-0.015598 -0.152077 
-0.019910 -0.142490 
-0.017786 -0.147440 
-0.019848 -0.146768 
-0.002265 -0.130730 
-0.001274 -0.125576 
-0.003343 -0.140426 
-0.002963 -0.135672 
-0.003941 -0.126170 
-0.003484 -0.131175 
-0.004788 -0.131786 
-0.002301 -0.158350 
-0.002810 -0.153955 
-0.005650 -0.147573 
-0.004247 -0.151026 
-0.005450 -0.152510 
-0.003214 -0.149526 
-0.003415 -0.145031 
-0.010441 -0.128899 
-0.009414 -0.134260 
-0.011226 -0.135146 
-0.006202 -0.132531 
-0.007740 -0.133370 
-0.006946 -0.127363 
-0.008504 -0.144743 
-0.008258 -0.139171 
-0.006996 -0.143615 
-0.004420 -0.141393 
-0.005635 -0.142476 
-0.005354 -0.137216 
-0.010695 -0.163750 
-0.011624 -0.156408 
-0.011208 -0.160416 
-0.009114 -0.164120 
-0.007580 -0.163870 
-0.011718 -0.141089 
-0.008507 -0.150054 
-0.010153 -0.145786 
-0.011927 -0.146663 
-0.011881 -0.151796 
-0.003425 -0.160220 
-0.006102 -0.163080 
-0.004705 -0.161833 
-0.005105 -0.157276 
-0.006812 -0.153886 
-0.009924 -0.155929 
-0.008312 -0.155057 
-0.007981 -0.159689 
-0.033096 -0.122750 
-0.030606 -0.124339 
-0.033753 -0.112231 
-0.032313 -0.118424 
-0.036471 -0.111150 
-0.028054 -0.125294 
-0.025474 -0.125744 
-0.036091 -0.084500 
-0.036112 -0.091899 
-0.039353 -0.084828 
-0.028943 -0.106070 
-0.032600 -0.099042 
-0.029457 -0.098843 
-0.038663 -0.098523 
-0.035695 -0.098979 
-0.034894 -0.105753 
-0.017931 -0.125108 
-0.015593 -0.124509 
-0.022902 -0.125801 
-0.020377 -0.125561 
-0.022437 -0.112505 
-0.021536 -0.119213 
-0.025229 -0.112835 
-0.030940 -0.112794 
-0.028080 -0.112960 
-0.026911 -0.119516 
-0.007734 -0.010333 
-0.015728 -0.021375 
-0.013119 -0.013969 
-0.018811 -0.038658 
-0.017756 -0.029877 
-0.014611 -0.028913 
-0.026860 -0.035687 
-0.021931 -0.031912 
-0.026636 -0.041857 
-0.016261 -0.072914 
-0.017629 -0.064671 
-0.015100 -0.064333 
-0.023588 -0.065695 
-0.020452 -0.065111 
-0.021832 -0.073798 
-0.016261 -0.047008 
-0.018594 -0.056166 
-0.019034 -0.047465 
-0.038111 -0.069974 
-0.034475 -0.068666 
-0.035570 -0.076763 
-0.030153 -0.051259 
-0.032711 -0.060178 
-0.034307 -0.053767 
-0.028422 -0.075088 
-0.030707 -0.067465 
-0.027029 -0.066469 
-0.022280 -0.048220 
-0.025004 -0.057506 
-0.026026 -0.049433 
-0.002854 -0.120354 
-0.001429 -0.120169 
-0.005905 -0.121162 
-0.004337 -0.120692 
-0.004855 -0.108433 
-0.004643 -0.114770 
-0.006590 -0.108793 
-0.013382 -0.123826 
-0.011309 -0.123108 
-0.012506 -0.110318 
-0.012003 -0.116908 
-0.014767 -0.110907 
-0.009376 -0.122400 
-0.007579 -0.121741 
-0.012302 -0.080490 
-0.012705 -0.088420 
-0.014589 -0.080844 
-0.008630 -0.102408 
-0.010693 -0.095615 
-0.008670 -0.095226 
-0.015214 -0.096526 
-0.012869 -0.096051 
-0.012799 -0.103358 
-0.008077 -0.115691 
-0.010397 -0.109754 
-0.008430 -0.109239 
-0.032679 -0.083965 
-0.025915 -0.082754 
-0.029250 -0.083357 
-0.029576 -0.091274 
-0.026343 -0.098483 
-0.017084 -0.081243 
-0.017740 -0.097025 
-0.017573 -0.089288 
-0.019803 -0.081691 
-0.022751 -0.082195 
-0.016504 -0.118189 
-0.023045 -0.105442 
-0.019745 -0.112039 
-0.017182 -0.111492 
-0.017602 -0.104433 
-0.023238 -0.090277 
-0.020447 -0.097534 
-0.023324 -0.098030 
0.000000 0.000000 
-0.005924 -0.009692 
-0.004082 -0.009437 
-0.004853 -0.009496 
0.000000 0.000000 
-0.009852 -0.019144 
-0.012240 -0.028486 
-0.002134 -0.009480 
-0.002521 -0.009461 
0.000000 0.000000 
-0.007465 -0.028179 
-0.005032 -0.018854 
-0.006305 -0.028167 
0.000000 0.000000 
-0.002960 -0.009442 
-0.003471 -0.009429 
-0.013610 -0.055531 
-0.012828 -0.064063 
-0.013490 -0.037696 
-0.013881 -0.046728 
-0.009992 -0.046422 
-0.011812 -0.046547 
-0.009746 -0.037418 
-0.006969 -0.018861 
-0.008795 -0.028212 
-0.010355 -0.028295 
-0.000000 -0.009542 
-0.000222 -0.009543 
0.000000 0.000000 
-0.000653 -0.028143 
-0.000441 -0.018926 
-0.000000 -0.028137 
0.000000 0.000000 
-0.000448 -0.009542 
-0.000683 -0.009538 
-0.001346 -0.063136 
-0.001204 -0.054698 
-0.000001 -0.063110 
-0.002625 -0.037216 
-0.002097 -0.046066 
-0.003192 -0.046099 
-0.000001 -0.046027 
-0.001039 -0.046042 
-0.000854 -0.037186 
0.000000 0.000000 
-0.001478 -0.009512 
-0.001789 -0.009498 
-0.000929 -0.009533 
-0.001193 -0.009524 
0.000000 0.000000 
-0.003512 -0.028161 
-0.002372 -0.018913 
-0.002736 -0.028158 
-0.001319 -0.028149 
-0.002009 -0.028154 
-0.001357 -0.018925 
-0.001527 -0.114300 
-0.000005 -0.120139 
-0.004972 -0.101709 
-0.003199 -0.108171 
-0.000004 -0.107956 
-0.001592 -0.108012 
-0.001628 -0.101339 
-0.011657 -0.072288 
-0.010200 -0.080179 
-0.006448 -0.079684 
-0.008257 -0.079910 
-0.007807 -0.071829 
-0.008546 -0.087718 
-0.006778 -0.094895 
-0.000002 -0.079245 
-0.001549 -0.079284 
-0.001461 -0.071339 
-0.001632 -0.094309 
-0.001606 -0.086949 
-0.000003 -0.094259 
-0.004481 -0.071512 
-0.003121 -0.079370 
-0.004745 -0.079504 
-0.004992 -0.094628 
-0.004916 -0.087218 
-0.003286 -0.094432 
-0.003562 -0.018887 
-0.004589 -0.037259 
-0.004354 -0.028162 
-0.005278 -0.028164 
-0.006894 -0.037317 
-0.002714 -0.063188 
-0.005617 -0.063370 
-0.004130 -0.063266 
-0.003697 -0.054788 
-0.004345 -0.046141 
-0.010777 -0.063842 
-0.008371 -0.046329 
-0.009675 -0.055179 
-0.008913 -0.063656 
-0.007203 -0.063500 
-0.005576 -0.046193 
-0.006454 -0.054947 
-0.006910 -0.046255 
0.000000 0.000000 
0.000221 -0.009543 
0.000682 -0.009538 
0.000448 -0.009542 
0.000000 0.000000 
0.000441 -0.018926 
0.000653 -0.028143 
0.001789 -0.009497 
0.001477 -0.009512 
0.000000 0.000000 
0.002735 -0.028157 
0.002372 -0.018912 
0.003511 -0.028160 
0.000000 0.000000 
0.001193 -0.009524 
0.000929 -0.009532 
0.001202 -0.054697 
0.001343 -0.063136 
0.000853 -0.037185 
0.001037 -0.046042 
0.003190 -0.046098 
0.002095 -0.046065 
0.002624 -0.037215 
0.001357 -0.018925 
0.002008 -0.028153 
0.001318 -0.028148 
0.007734 -0.010333 
0.005924 -0.009691 
0.000000 0.000000 
0.012238 -0.028484 
0.009851 -0.019143 
0.014610 -0.028911 
0.000000 0.000000 
0.004853 -0.009495 
0.004081 -0.009436 
0.012824 -0.064061 
0.013606 -0.055529 
0.015095 -0.064330 
0.009744 -0.037417 
0.011810 -0.046545 
0.009990 -0.046421 
0.016258 -0.047006 
0.013878 -0.046726 
0.013488 -0.037694 
0.000000 0.000000 
0.002520 -0.009460 
0.002134 -0.009480 
0.003470 -0.009429 
0.002960 -0.009441 
0.000000 0.000000 
0.006304 -0.028166 
0.005031 -0.018854 
0.007463 -0.028178 
0.010354 -0.028294 
0.008794 -0.028211 
0.006969 -0.018861 
0.001518 -0.114299 
0.001420 -0.120168 
0.001621 -0.101338 
0.001585 -0.108011 
0.004847 -0.108430 
0.003191 -0.108169 
0.004964 -0.101707 
0.001458 -0.071338 
0.001544 -0.079283 
0.004741 -0.079502 
0.003116 -0.079369 
0.004478 -0.071511 
0.001601 -0.086948 
0.001626 -0.094308 
0.012296 -0.080487 
0.010194 -0.080176 
0.011652 -0.072285 
0.006771 -0.094892 
0.008540 -0.087715 
0.008663 -0.095223 
0.007803 -0.071827 
0.008252 -0.079908 
0.006444 -0.079682 
0.003280 -0.094431 
0.004911 -0.087216 
0.004986 -0.094626 
0.003562 -0.018887 
0.006892 -0.037315 
0.005276 -0.028163 
0.004353 -0.028162 
0.004587 -0.037258 
0.010773 -0.063839 
0.007199 -0.063498 
0.008909 -0.063654 
0.009672 -0.055177 
0.008369 -0.046328 
0.002711 -0.063187 
0.004343 -0.046140 
0.003695 -0.054787 
0.004127 -0.063265 
0.005614 -0.063368 
0.006907 -0.046253 
0.006451 -0.054945 
0.005574 -0.046192 
0.013118 -0.013968 
0.015727 -0.021373 
0.026632 -0.041854 
0.021929 -0.031909 
0.026857 -0.035684 
0.017754 -0.029875 
0.018808 -0.038655 
0.035563 -0.076757 
0.034469 -0.068660 
0.038104 -0.069967 
0.027023 -0.066465 
0.030701 -0.067460 
0.028415 -0.075083 
0.034302 -0.053762 
0.032705 -0.060173 
0.030149 -0.051255 
0.017625 -0.064668 
0.016255 -0.072911 
0.019031 -0.047462 
0.018590 -0.056163 
0.021826 -0.073794 
0.020447 -0.065107 
0.023583 -0.065691 
0.026022 -0.049430 
0.024999 -0.057502 
0.022276 -0.048217 
0.028643 -0.129972 
0.030590 -0.124328 
0.033080 -0.122738 
0.025458 -0.125734 
0.028038 -0.125284 
0.023793 -0.131635 
0.036457 -0.111139 
0.032298 -0.118413 
0.033740 -0.112221 
0.015579 -0.124501 
0.017917 -0.125099 
0.014464 -0.130432 
0.025217 -0.112827 
0.021522 -0.119205 
0.022425 -0.112498 
0.018980 -0.131538 
0.020362 -0.125553 
0.022887 -0.125792 
0.039344 -0.084820 
0.036102 -0.091891 
0.036082 -0.084493 
0.034882 -0.105743 
0.035684 -0.098970 
0.038652 -0.098514 
0.029447 -0.098836 
0.032590 -0.099034 
0.028932 -0.106063 
0.026896 -0.119507 
0.028068 -0.112952 
0.030927 -0.112785 
0.002845 -0.120351 
0.001264 -0.125574 
0.006581 -0.108789 
0.004634 -0.114767 
0.003929 -0.126166 
0.004327 -0.120688 
0.005894 -0.121157 
0.014583 -0.080841 
0.012699 -0.088417 
0.012790 -0.103353 
0.012861 -0.096047 
0.015206 -0.096521 
0.010686 -0.095611 
0.008622 -0.102404 
0.010426 -0.128891 
0.011296 -0.123101 
0.013369 -0.123818 
0.007567 -0.121735 