# vtk DataFile Version 2.0
Unstructured Grid Example
ASCII
DATASET UNSTRUCTURED_GRID

POINTS 25 float
0.003825 -0.178966 0.000000 
0.996175 -0.178966 0.000000 
1.000000 1.000000 0.000000 
0.000000 1.000000 0.000000 
0.500000 -0.089348 0.000000 
0.971447 0.375972 0.000000 
0.500000 1.000000 0.000000 
0.028553 0.375972 0.000000 
0.500000 0.375319 0.000000 
0.247186 -0.153653 0.000000 
0.500000 0.109162 0.000000 
0.251486 0.093619 0.000000 
0.752814 -0.153653 0.000000 
0.748514 0.093619 0.000000 
0.988003 0.088251 0.000000 
0.737946 0.373997 0.000000 
0.966226 0.675020 0.000000 
0.737991 0.679727 0.000000 
0.750000 1.000000 0.000000 
0.500000 0.680796 0.000000 
0.250000 1.000000 0.000000 
0.262009 0.679727 0.000000 
0.033774 0.675020 0.000000 
0.262054 0.373997 0.000000 
0.011997 0.088251 0.000000 

CELLS 32 128
3  0 9 11 
3  4 10 9 
3  8 11 10 
3  9 10 11 
3  4 12 10 
3  1 13 12 
3  8 10 13 
3  12 13 10 
3  1 14 13 
3  5 15 14 
3  8 13 15 
3  14 15 13 
3  5 16 15 
3  2 17 16 
3  8 15 17 
3  16 17 15 
3  2 18 17 
3  6 19 18 
3  8 17 19 
3  18 19 17 
3  6 20 19 
3  3 21 20 
3  8 19 21 
3  20 21 19 
3  3 22 21 
3  7 23 22 
3  8 21 23 
3  22 23 21 
3  7 24 23 
3  0 11 24 
3  8 23 11 
3  24 11 23 

CELL_TYPES 32
5
5
5
5
5
5
5
5
5
5
5
5
5
5
5
5
5
5
5
5
5
5
5
5
5
5
5
5
5
5
5
5

POINT_DATA 25

SCALARS u_h float 2
LOOKUP_TABLE default
0.003825 -0.178966 
-0.003825 -0.178966 
0.000000 0.000000 
0.000000 0.000000 
-0.000000 -0.089348 
-0.028553 -0.124028 
0.000000 0.000000 
0.028553 -0.124028 
-0.000000 -0.124681 
-0.002814 -0.153653 
-0.000000 -0.140838 
0.001486 -0.156381 
0.002814 -0.153653 
-0.001486 -0.156381 
-0.011997 -0.161749 
-0.012054 -0.126003 
-0.033774 -0.074980 
-0.012009 -0.070273 
0.000000 0.000000 
-0.000000 -0.069204 
0.000000 0.000000 
0.012009 -0.070273 
0.033774 -0.074980 
0.012054 -0.126003 
0.011997 -0.161749 

CELL_DATA 32

SCALARS epsilon float 4
LOOKUP_TABLE default
-0.028559 -0.007232 0.000000 0.059974
0.011193 -0.174437 0.000000 0.161951
-0.005963 0.064271 0.000000 0.029199
-0.006898 -0.010056 0.000000 0.040079
0.011193 -0.174437 0.000000 -0.161951
-0.028559 -0.007232 0.000000 -0.059974
-0.005963 0.064271 0.000000 -0.029199
-0.006898 -0.010056 0.000000 -0.040079
-0.043101 0.066041 0.000000 -0.027017
-0.065782 0.140202 0.000000 -0.031423
-0.048801 0.114021 0.000000 -0.024298
-0.042995 0.113581 0.000000 -0.031362
-0.067840 0.177635 0.000000 -0.007593
-0.082240 0.259489 0.000000 0.062814
-0.049375 0.198912 0.000000 -0.002065
-0.090811 0.199046 0.000000 -0.007533
0.000703 0.243486 0.000000 0.022862
0.000000 0.240303 0.000000 0.000000
-0.049187 0.198107 0.000000 -0.001745
-0.048243 0.243653 0.000000 0.022350
0.000000 0.240303 0.000000 0.000000
0.000703 0.243486 0.000000 -0.022862
-0.049187 0.198107 0.000000 0.001745
-0.048243 0.243653 0.000000 -0.022350
-0.082240 0.259489 0.000000 -0.062814
-0.067840 0.177635 0.000000 0.007593
-0.049375 0.198912 0.000000 0.002065
-0.090811 0.199046 0.000000 0.007533
-0.065782 0.140202 0.000000 0.031423
-0.043101 0.066041 0.000000 0.027017
-0.048801 0.114021 0.000000 0.024298
-0.042995 0.113581 0.000000 0.031362

SCALARS sigma float 4
LOOKUP_TABLE default
-0.698572 -0.452779 -0.357908 0.904704
-0.614184 -3.327730 -1.632437 1.246229
0.510523 1.736516 0.583085 0.572171
-0.239048 -0.318874 -0.169533 0.631471
-0.614184 -3.327730 -1.632437 -1.246229
-0.698572 -0.452779 -0.357908 -0.904704
0.510523 1.736516 0.583085 -0.572171
-0.239048 -0.318874 -0.169533 -0.631471
-0.446852 1.410353 0.229404 -0.450855
-0.314946 3.475531 0.744195 -0.456832
-0.138609 2.810742 0.652209 -0.390706
0.011001 2.865202 0.705861 -0.542688
-0.014486 4.671876 1.097946 -0.087388
0.368024 7.545857 1.772489 0.838894
0.651035 5.624757 1.495368 -0.053755
-0.366057 5.139046 1.082352 -0.185061
2.453422 7.861076 2.441893 0.374933
2.403026 7.719372 2.403026 0.000000
0.648201 5.598650 1.489202 -0.044587
1.103141 7.270731 1.954093 0.327247
2.403026 7.719372 2.403026 0.000000
2.453422 7.861076 2.441893 -0.374933
0.648201 5.598650 1.489202 0.044587
1.103141 7.270731 1.954093 -0.327247
0.368024 7.545857 1.772489 -0.838894
-0.014486 4.671876 1.097946 0.087388
0.651035 5.624757 1.495368 0.053755
-0.366057 5.139046 1.082352 0.185061
-0.314946 3.475531 0.744195 0.456832
-0.446852 1.410353 0.229404 0.450855
-0.138609 2.810742 0.652209 0.390706
0.011001 2.865202 0.705861 0.542688

