# vtk DataFile Version 2.0
Unstructured Grid Example
ASCII
DATASET UNSTRUCTURED_GRID

POINTS 9 float
0.025581 -0.189707 0.000000 
0.974419 -0.189707 0.000000 
1.000000 1.000000 0.000000 
0.000000 1.000000 0.000000 
0.500000 -0.062488 0.000000 
0.967240 0.375381 0.000000 
0.500000 1.000000 0.000000 
0.032760 0.375381 0.000000 
0.500000 0.388395 0.000000 

CELLS 8 32
3  0 4 8 
3  4 1 8 
3  1 5 8 
3  5 2 8 
3  2 6 8 
3  6 3 8 
3  3 7 8 
3  7 0 8 

CELL_TYPES 8
5
5
5
5
5
5
5
5

POINT_DATA 9

SCALARS u_h float 2
LOOKUP_TABLE default
0.025581 -0.189707 
-0.025581 -0.189707 
0.000000 0.000000 
0.000000 0.000000 
0.000000 -0.062488 
-0.032760 -0.124619 
0.000000 0.000000 
0.032760 -0.124619 
0.000000 -0.111605 

CELL_DATA 8

SCALARS epsilon float 4
LOOKUP_TABLE default
-0.052466 -0.058787 0.000000 0.140668
-0.052466 -0.058787 0.000000 -0.140668
-0.067915 0.121770 0.000000 -0.019039
-0.064632 0.221064 0.000000 0.023276
0.000000 0.199128 0.000000 -0.000000
0.000000 0.199128 0.000000 -0.000000
-0.064632 0.221064 0.000000 -0.023276
-0.067915 0.121770 0.000000 0.019039

SCALARS sigma float 4
LOOKUP_TABLE default
-1.180579 -1.850426 -1.112536 1.565035
-1.180579 -1.850426 -1.112536 -1.565035
-0.526997 2.831096 0.538556 -0.352745
0.461289 6.252661 1.564326 0.240005
1.991279 6.216262 1.991279 -0.000000
1.991279 6.216262 1.991279 -0.000000
0.461289 6.252661 1.564326 -0.240005
-0.526997 2.831096 0.538556 0.352745

