# vtk DataFile Version 2.0
Unstructured Grid Example
ASCII
DATASET UNSTRUCTURED_GRID

POINTS 4 float
0.000000 7.022216 0.000000 
0.500000 -14.044431 0.000000 
0.500000 -14.044431 0.000000 
1.000000 7.022216 0.000000 

CELLS 2 6
2  0 1 
2  2 3 

CELL_TYPES 2
3
3

POINT_DATA 4

SCALARS lambda_h float 1
LOOKUP_TABLE default
7.022216 
-14.044431 
-14.044431 
7.022216 

