# vtk DataFile Version 2.0
Unstructured Grid Example
ASCII
DATASET UNSTRUCTURED_GRID

POINTS 1089 float
0.010925 -0.262107 0.000000 
0.989075 -0.262107 0.000000 
1.000000 1.000000 0.000000 
0.000000 1.000000 0.000000 
0.500000 -0.100000 0.000000 
0.962099 0.312471 0.000000 
0.500000 1.000000 0.000000 
0.037901 0.312471 0.000000 
0.500000 0.315850 0.000000 
0.263006 -0.245473 0.000000 
0.500000 0.045623 0.000000 
0.250001 0.018729 0.000000 
0.736994 -0.245473 0.000000 
0.749999 0.018729 0.000000 
0.985923 0.011090 0.000000 
0.734433 0.308920 0.000000 
0.944820 0.633007 0.000000 
0.727304 0.638897 0.000000 
0.750000 1.000000 0.000000 
0.500000 0.641669 0.000000 
0.250000 1.000000 0.000000 
0.272696 0.638897 0.000000 
0.055180 0.633007 0.000000 
0.265567 0.308920 0.000000 
0.014077 0.011090 0.000000 
0.136242 -0.258553 0.000000 
0.249166 -0.115754 0.000000 
0.130247 -0.128634 0.000000 
0.500000 -0.058388 0.000000 
0.367836 -0.086330 0.000000 
0.384151 -0.208292 0.000000 
0.376771 0.168164 0.000000 
0.371313 0.035437 0.000000 
0.500000 0.172621 0.000000 
0.615849 -0.208292 0.000000 
0.632164 -0.086330 0.000000 
0.869753 -0.128634 0.000000 
0.750834 -0.115754 0.000000 
0.863758 -0.258553 0.000000 
0.628687 0.035437 0.000000 
0.623229 0.168164 0.000000 
0.990318 -0.130622 0.000000 
0.868164 0.009422 0.000000 
0.848596 0.306230 0.000000 
0.859690 0.154205 0.000000 
0.975349 0.159337 0.000000 
0.742864 0.159309 0.000000 
0.618238 0.313874 0.000000 
0.950317 0.469907 0.000000 
0.839376 0.466393 0.000000 
0.847282 0.815239 0.000000 
0.836731 0.635774 0.000000 
0.953020 0.803793 0.000000 
0.728166 0.468812 0.000000 
0.614912 0.471984 0.000000 
0.875000 1.000000 0.000000 
0.734800 0.817339 0.000000 
0.500000 0.818138 0.000000 
0.618234 0.817914 0.000000 
0.625000 1.000000 0.000000 
0.614636 0.640891 0.000000 
0.500000 0.473345 0.000000 
0.375000 1.000000 0.000000 
0.381766 0.817914 0.000000 
0.152718 0.815239 0.000000 
0.265200 0.817339 0.000000 
0.125000 1.000000 0.000000 
0.385364 0.640891 0.000000 
0.385088 0.471984 0.000000 
0.046980 0.803793 0.000000 
0.163269 0.635774 0.000000 
0.151404 0.306230 0.000000 
0.160624 0.466393 0.000000 
0.049683 0.469907 0.000000 
0.271834 0.468812 0.000000 
0.381762 0.313874 0.000000 
0.024651 0.159337 0.000000 
0.140310 0.154205 0.000000 
0.131836 0.009422 0.000000 
0.009682 -0.130622 0.000000 
0.257136 0.159309 0.000000 
0.073286 -0.260812 0.000000 
0.132650 -0.194834 0.000000 
0.071288 -0.196983 0.000000 
0.253764 -0.181525 0.000000 
0.193615 -0.190096 0.000000 
0.199643 -0.253862 0.000000 
0.189214 -0.056281 0.000000 
0.189997 -0.123977 0.000000 
0.248339 -0.049049 0.000000 
0.500000 -0.094729 0.000000 
0.430288 -0.116983 0.000000 
0.433251 -0.166749 0.000000 
0.432933 -0.015066 0.000000 
0.431126 -0.068100 0.000000 
0.500000 -0.010060 0.000000 
0.325398 -0.231553 0.000000 
0.370387 -0.146002 0.000000 
0.312636 -0.167539 0.000000 
0.439457 0.241690 0.000000 
0.438049 0.171439 0.000000 
0.500000 0.242450 0.000000 
0.309921 0.026675 0.000000 
0.374024 0.100204 0.000000 
0.312986 0.094008 0.000000 
0.500000 0.106825 0.000000 
0.436487 0.105016 0.000000 
0.434777 0.042727 0.000000 
0.308048 -0.103224 0.000000 
0.368963 -0.026461 0.000000 
0.307890 -0.038792 0.000000 
0.566749 -0.166749 0.000000 
0.569712 -0.116983 0.000000 
0.687364 -0.167539 0.000000 
0.629613 -0.146002 0.000000 
0.674602 -0.231553 0.000000 
0.568874 -0.068100 0.000000 
0.567067 -0.015066 0.000000 
0.928712 -0.196983 0.000000 
0.867350 -0.194834 0.000000 
0.926714 -0.260812 0.000000 
0.751661 -0.049049 0.000000 
0.810003 -0.123977 0.000000 
0.810786 -0.056281 0.000000 
0.800357 -0.253862 0.000000 
0.806385 -0.190096 0.000000 
0.746236 -0.181525 0.000000 
0.561951 0.171439 0.000000 
0.560543 0.241690 0.000000 
0.565223 0.042727 0.000000 
0.563513 0.105016 0.000000 
0.687014 0.094008 0.000000 
0.625976 0.100204 0.000000 
0.690079 0.026675 0.000000 
0.691952 -0.103224 0.000000 
0.692110 -0.038792 0.000000 
0.631037 -0.026461 0.000000 
0.990115 -0.197835 0.000000 
0.929979 -0.130562 0.000000 
0.927118 0.008781 0.000000 
0.929527 -0.061862 0.000000 
0.989010 -0.060795 0.000000 
0.870036 -0.060460 0.000000 
0.809190 0.012808 0.000000 
0.905333 0.307711 0.000000 
0.911564 0.230618 0.000000 
0.968789 0.235298 0.000000 
0.796603 0.230290 0.000000 
0.854201 0.229260 0.000000 
0.791697 0.306922 0.000000 
0.981231 0.084563 0.000000 
0.917625 0.155099 0.000000 
0.922992 0.081141 0.000000 
0.620606 0.239400 0.000000 
0.559289 0.315530 0.000000 
0.746836 0.088036 0.000000 
0.683521 0.163745 0.000000 
0.676639 0.311467 0.000000 
0.679967 0.236187 0.000000 
0.738590 0.232870 0.000000 
0.864532 0.080958 0.000000 
0.801498 0.155856 0.000000 
0.805881 0.083438 0.000000 
0.955732 0.390517 0.000000 
0.899527 0.386431 0.000000 
0.891466 0.549364 0.000000 
0.894702 0.466924 0.000000 
0.946429 0.550689 0.000000 
0.843485 0.385232 0.000000 
0.787335 0.385884 0.000000 
0.915748 0.905535 0.000000 
0.900744 0.811591 0.000000 
0.967130 0.894921 0.000000 
0.782427 0.637473 0.000000 
0.839847 0.724271 0.000000 
0.785486 0.726141 0.000000 
0.946504 0.717150 0.000000 
0.893156 0.721225 0.000000 
0.890595 0.634004 0.000000 
0.616265 0.391453 0.000000 
0.558239 0.392711 0.000000 
0.730836 0.387557 0.000000 
0.673828 0.389593 0.000000 
0.670898 0.554069 0.000000 
0.671819 0.470508 0.000000 
0.726847 0.552640 0.000000 
0.836880 0.549855 0.000000 
0.782129 0.551134 0.000000 
0.783965 0.467269 0.000000 
0.937500 1.000000 0.000000 
0.859561 0.907761 0.000000 
0.741748 0.908419 0.000000 
0.801167 0.908282 0.000000 
0.812500 1.000000 0.000000 
0.791778 0.816693 0.000000 
0.729902 0.727291 0.000000 
0.500000 0.908528 0.000000 
0.560734 0.908503 0.000000 
0.562500 1.000000 0.000000 
0.558095 0.728922 0.000000 
0.559217 0.818058 0.000000 
0.500000 0.729073 0.000000 
0.687500 1.000000 0.000000 
0.621351 0.908483 0.000000 
0.681737 0.908461 0.000000 
0.557566 0.472976 0.000000 
0.500000 0.393122 0.000000 
0.671327 0.640036 0.000000 
0.614323 0.555233 0.000000 
0.500000 0.556303 0.000000 
0.557282 0.556001 0.000000 
0.557446 0.641441 0.000000 
0.676843 0.817691 0.000000 
0.615944 0.728588 0.000000 
0.673299 0.728059 0.000000 
0.437500 1.000000 0.000000 
0.439266 0.908503 0.000000 
0.318263 0.908461 0.000000 
0.378649 0.908483 0.000000 
0.312500 1.000000 0.000000 
0.440783 0.818058 0.000000 
0.441905 0.728922 0.000000 
0.084252 0.905535 0.000000 
0.140439 0.907761 0.000000 
0.062500 1.000000 0.000000 
0.270098 0.727291 0.000000 
0.208222 0.816693 0.000000 
0.214514 0.726141 0.000000 
0.187500 1.000000 0.000000 
0.198833 0.908282 0.000000 
0.258252 0.908419 0.000000 
0.442434 0.472976 0.000000 
0.441761 0.392711 0.000000 
0.442554 0.641441 0.000000 
0.442718 0.556001 0.000000 
0.329102 0.554069 0.000000 
0.385677 0.555233 0.000000 
0.328673 0.640036 0.000000 
0.323157 0.817691 0.000000 
0.326701 0.728059 0.000000 
0.384056 0.728588 0.000000 
0.032870 0.894921 0.000000 
0.099256 0.811591 0.000000 
0.109405 0.634004 0.000000 
0.106844 0.721225 0.000000 
0.053496 0.717150 0.000000 
0.160153 0.724271 0.000000 
0.217573 0.637473 0.000000 
0.094667 0.307711 0.000000 
0.100473 0.386431 0.000000 
0.044268 0.390517 0.000000 
0.212665 0.385884 0.000000 
0.156515 0.385232 0.000000 
0.208303 0.306922 0.000000 
0.053571 0.550689 0.000000 
0.105298 0.466924 0.000000 
0.108534 0.549364 0.000000 
0.383735 0.391453 0.000000 
0.440711 0.315530 0.000000 
0.273153 0.552640 0.000000 
0.328181 0.470508 0.000000 
0.323361 0.311467 0.000000 
0.326172 0.389593 0.000000 
0.269164 0.387557 0.000000 
0.163120 0.549855 0.000000 
0.216035 0.467269 0.000000 
0.217871 0.551134 0.000000 
0.031211 0.235298 0.000000 
0.088436 0.230618 0.000000 
0.077008 0.081141 0.000000 
0.082375 0.155099 0.000000 
0.018769 0.084563 0.000000 
0.145799 0.229260 0.000000 
0.203397 0.230290 0.000000 
0.070021 -0.130562 0.000000 
0.009885 -0.197835 0.000000 
0.190810 0.012808 0.000000 
0.129964 -0.060460 0.000000 
0.010990 -0.060795 0.000000 
0.070473 -0.061862 0.000000 
0.072882 0.008781 0.000000 
0.379394 0.239400 0.000000 
0.261410 0.232870 0.000000 
0.320033 0.236187 0.000000 
0.316479 0.163745 0.000000 
0.253164 0.088036 0.000000 
0.135468 0.080958 0.000000 
0.194119 0.083438 0.000000 
0.198502 0.155856 0.000000 
0.042051 -0.261449 0.000000 
0.072296 -0.229229 0.000000 
0.041284 -0.229815 0.000000 
0.134406 -0.227042 0.000000 
0.103343 -0.228369 0.000000 
0.104687 -0.259909 0.000000 
0.100890 -0.163311 0.000000 
0.101997 -0.196156 0.000000 
0.131214 -0.162008 0.000000 
0.257826 -0.213846 0.000000 
0.227245 -0.218665 0.000000 
0.231371 -0.250221 0.000000 
0.221284 -0.153561 0.000000 
0.223822 -0.186376 0.000000 
0.250910 -0.148778 0.000000 
0.167911 -0.256587 0.000000 
0.196421 -0.222348 0.000000 
0.165451 -0.225086 0.000000 
0.219309 -0.018960 0.000000 
0.218770 -0.053057 0.000000 
0.248929 -0.015321 0.000000 
0.160194 -0.126699 0.000000 
0.189270 -0.090303 0.000000 
0.159600 -0.092920 0.000000 
0.248366 -0.082513 0.000000 
0.218845 -0.086853 0.000000 
0.219649 -0.120362 0.000000 
0.163205 -0.192864 0.000000 
0.191445 -0.157266 0.000000 
0.161411 -0.160036 0.000000 
0.500000 -0.104206 0.000000 
0.462482 -0.121836 0.000000 
0.459325 -0.140675 0.000000 
0.464207 -0.083419 0.000000 
0.463464 -0.103467 0.000000 
0.500000 -0.078591 0.000000 
0.409890 -0.190110 0.000000 
0.431095 -0.140972 0.000000 
0.402657 -0.160185 0.000000 
0.466734 0.016031 0.000000 
0.466178 -0.011398 0.000000 
0.500000 0.017009 0.000000 
0.398843 -0.076942 0.000000 
0.431998 -0.042178 0.000000 
0.399543 -0.048982 0.000000 
0.500000 -0.035325 0.000000 
0.465571 -0.037244 0.000000 
0.464911 -0.061315 0.000000 
0.294419 -0.239368 0.000000 
0.317728 -0.199717 0.000000 
0.288039 -0.207642 0.000000 
0.374941 -0.176674 0.000000 
0.346726 -0.189604 0.000000 
0.355554 -0.221487 0.000000 
0.338839 -0.126439 0.000000 
0.341568 -0.157851 0.000000 
0.368377 -0.116025 0.000000 
0.430460 -0.092936 0.000000 
0.398698 -0.104474 0.000000 
[...]
POINT_DATA 1089

SCALARS u_h float 2
LOOKUP_TABLE default
0.010925 -0.262107 
-0.010925 -0.262107 
0.000000 0.000000 
0.000000 0.000000 
0.000000 -0.100000 
-0.037901 -0.187529 
0.000000 0.000000 
0.037901 -0.187529 
0.000000 -0.184150 
0.013006 -0.245473 
0.000000 -0.204377 
0.000001 -0.231271 
-0.013006 -0.245473 
-0.000001 -0.231271 
-0.014077 -0.238910 
-0.015567 -0.191080 
-0.055180 -0.116993 
-0.022696 -0.111103 
0.000000 0.000000 
0.000000 -0.108331 
0.000000 0.000000 
0.022696 -0.111103 
0.055180 -0.116993 
0.015567 -0.191080 
0.014077 -0.238910 
0.011242 -0.258553 
-0.000834 -0.240754 
0.005247 -0.253634 
0.000000 -0.183388 
-0.007164 -0.211330 
0.009151 -0.208292 
0.001771 -0.206836 
-0.003687 -0.214563 
0.000000 -0.202379 
-0.009151 -0.208292 
0.007164 -0.211330 
-0.005247 -0.253634 
0.000834 -0.240754 
-0.011242 -0.258553 
0.003687 -0.214563 
-0.001771 -0.206836 
-0.009682 -0.255622 
-0.006836 -0.240578 
-0.026404 -0.193770 
-0.015310 -0.220795 
-0.024651 -0.215663 
-0.007136 -0.215691 
-0.006762 -0.186126 
-0.049683 -0.155093 
-0.035624 -0.158607 
-0.027718 -0.059761 
-0.038269 -0.114226 
-0.046980 -0.071207 
-0.021834 -0.156188 
-0.010088 -0.153016 
0.000000 0.000000 
-0.015200 -0.057661 
0.000000 -0.056862 
-0.006766 -0.057086 
0.000000 0.000000 
-0.010364 -0.109109 
0.000000 -0.151655 
0.000000 0.000000 
0.006766 -0.057086 
0.027718 -0.059761 
0.015200 -0.057661 
0.000000 0.000000 
0.010364 -0.109109 
0.010088 -0.153016 
0.046980 -0.071207 
0.038269 -0.114226 
0.026404 -0.193770 
0.035624 -0.158607 
0.049683 -0.155093 
0.021834 -0.156188 
0.006762 -0.186126 
0.024651 -0.215663 
0.015310 -0.220795 
0.006836 -0.240578 
0.009682 -0.255622 
0.007136 -0.215691 
0.010786 -0.260812 
0.007650 -0.257334 
0.008788 -0.259483 
0.003764 -0.244025 
0.006115 -0.252596 
0.012143 -0.253862 
0.001714 -0.243781 
0.002497 -0.248977 
-0.001661 -0.236549 
0.000000 -0.157229 
-0.007212 -0.179483 
-0.004249 -0.166749 
-0.004567 -0.202566 
-0.006374 -0.193100 
0.000000 -0.197560 
0.012898 -0.231553 
-0.004613 -0.208502 
0.000136 -0.230039 
0.001957 -0.195810 
0.000549 -0.203561 
0.000000 -0.195050 
-0.002579 -0.223325 
-0.000976 -0.212296 
0.000486 -0.218492 
0.000000 -0.205675 
-0.001013 -0.207484 
-0.002723 -0.207273 
-0.004452 -0.228224 
-0.006037 -0.213961 
-0.004610 -0.226292 
0.004249 -0.166749 
0.007212 -0.179483 
-0.000136 -0.230039 
0.004613 -0.208502 
-0.012898 -0.231553 
0.006374 -0.193100 
0.004567 -0.202566 
-0.008788 -0.259483 
-0.007650 -0.257334 
-0.010786 -0.260812 
0.001661 -0.236549 
-0.002497 -0.248977 
-0.001714 -0.243781 
-0.012143 -0.253862 
-0.006115 -0.252596 
-0.003764 -0.244025 
-0.000549 -0.203561 
-0.001957 -0.195810 
0.002723 -0.207273 
0.001013 -0.207484 
-0.000486 -0.218492 
0.000976 -0.212296 
0.002579 -0.223325 
0.004452 -0.228224 
0.004610 -0.226292 
0.006037 -0.213961 
-0.009885 -0.260335 
-0.007521 -0.255562 
-0.010382 -0.241219 
-0.007973 -0.249362 
-0.010990 -0.248295 
-0.004964 -0.247960 
-0.003310 -0.237192 
-0.032167 -0.192289 
-0.025936 -0.206882 
-0.031211 -0.202202 
-0.015897 -0.207210 
-0.020799 -0.208240 
-0.020803 -0.193078 
-0.018769 -0.227937 
-0.019875 -0.219901 
-0.014508 -0.231359 
-0.004394 -0.198100 
-0.003211 -0.184470 
-0.003164 -0.224464 
-0.003979 -0.211255 
-0.010861 -0.188533 
-0.007533 -0.201313 
-0.011410 -0.204630 
-0.010468 -0.231542 
-0.011002 -0.219144 
-0.006619 -0.229062 
-0.044268 -0.171983 
-0.037973 -0.176069 
-0.046034 -0.138136 
-0.042798 -0.158076 
-0.053571 -0.136811 
-0.031515 -0.177268 
-0.025165 -0.176616 
-0.021752 -0.031965 
-0.036756 -0.063409 
-0.032870 -0.042579 
-0.030073 -0.112527 
-0.035153 -0.088229 
-0.027014 -0.086359 
-0.053496 -0.095350 
-0.044344 -0.091275 
-0.046905 -0.115996 
-0.008735 -0.171047 
-0.004261 -0.169789 
-0.019164 -0.174943 
-0.013672 -0.172907 
-0.016602 -0.133431 
-0.015681 -0.154492 
-0.023153 -0.134860 
-0.038120 -0.137645 
-0.030371 -0.136366 
-0.028535 -0.157731 
0.000000 0.000000 
-0.015439 -0.029739 
-0.008252 -0.029081 
-0.011333 -0.029218 
0.000000 0.000000 
-0.020722 -0.058307 
-0.020098 -0.085209 
0.000000 -0.028972 
-0.001766 -0.028997 
0.000000 0.000000 
-0.004405 -0.083578 
-0.003283 -0.056942 
0.000000 -0.083427 
0.000000 0.000000 
-0.003649 -0.029017 
-0.005763 -0.029039 
-0.004934 -0.152024 
0.000000 -0.169378 
-0.016173 -0.109964 
-0.010677 -0.132267 
0.000000 -0.131197 
-0.005218 -0.131499 
-0.005054 -0.108559 
-0.010657 -0.057309 
-0.009056 -0.083912 
-0.014201 -0.084441 
0.000000 0.000000 
0.001766 -0.028997 
0.005763 -0.029039 
0.003649 -0.029017 
0.000000 0.000000 
0.003283 -0.056942 
0.004405 -0.083578 
0.021752 -0.031965 
0.015439 -0.029739 
0.000000 0.000000 
0.020098 -0.085209 
0.020722 -0.058307 
0.027014 -0.086359 
0.000000 0.000000 
0.011333 -0.029218 
0.008252 -0.029081 
0.004934 -0.152024 
0.004261 -0.169789 
0.005054 -0.108559 
0.005218 -0.131499 
0.016602 -0.133431 
0.010677 -0.132267 
0.016173 -0.109964 
0.010657 -0.057309 
0.014201 -0.084441 
0.009056 -0.083912 
0.032870 -0.042579 
0.036756 -0.063409 
0.046905 -0.115996 
0.044344 -0.091275 
0.053496 -0.095350 
0.035153 -0.088229 
0.030073 -0.112527 
0.032167 -0.192289 
0.037973 -0.176069 
0.044268 -0.171983 
0.025165 -0.176616 
0.031515 -0.177268 
0.020803 -0.193078 
0.053571 -0.136811 
0.042798 -0.158076 
0.046034 -0.138136 
0.008735 -0.171047 
0.003211 -0.184470 
0.023153 -0.134860 
0.015681 -0.154492 
0.010861 -0.188533 
0.013672 -0.172907 
0.019164 -0.174943 
0.038120 -0.137645 
0.028535 -0.157731 
0.030371 -0.136366 
0.031211 -0.202202 
0.025936 -0.206882 
0.014508 -0.231359 
0.019875 -0.219901 
0.018769 -0.227937 
0.020799 -0.208240 
0.015897 -0.207210 
0.007521 -0.255562 
0.009885 -0.260335 
0.003310 -0.237192 
0.004964 -0.247960 
0.010990 -0.248295 
0.007973 -0.249362 
0.010382 -0.241219 
0.004394 -0.198100 
0.011410 -0.204630 
0.007533 -0.201313 
0.003979 -0.211255 
0.003164 -0.224464 
0.010468 -0.231542 
0.006619 -0.229062 
0.011002 -0.219144 
0.010801 -0.261449 
0.009796 -0.260479 
0.010034 -0.261065 
0.009406 -0.258292 
0.009593 -0.259619 
0.010937 -0.259909 
0.007140 -0.257061 
0.008247 -0.258656 
0.006214 -0.255758 
0.007826 -0.245096 
0.008495 -0.249915 
0.012621 -0.250221 
0.002534 -0.247311 
0.005072 -0.248876 
0.000910 -0.242528 
0.011661 -0.256587 
0.008921 -0.253598 
0.009201 -0.256336 
0.000559 -0.237710 
0.000020 -0.240557 
-0.001071 -0.234071 
0.003944 -0.251699 
0.001770 -0.246553 
0.003350 -0.249170 
-0.001634 -0.238763 
0.000095 -0.243103 
0.000899 -0.245362 
0.006955 -0.255364 
0.003945 -0.251016 
0.005161 -0.253786 
0.000000 -0.135456 
-0.006268 -0.153086 
-0.009425 -0.140675 
-0.004543 -0.177169 
-0.005286 -0.165967 
0.000000 -0.172341 
0.003640 -0.190110 
-0.006405 -0.172222 
-0.003593 -0.191435 
-0.002016 -0.202719 
-0.002572 -0.198898 
0.000000 -0.201741 
-0.007407 -0.201942 
-0.005502 -0.198428 
-0.006707 -0.205232 
0.000000 -0.191575 
-0.003179 -0.193494 
-0.003839 -0.186315 
0.013169 -0.239368 
0.005228 -0.230967 
0.006789 -0.238892 
-0.000059 -0.207924 
0.002976 -0.220854 
0.011804 -0.221487 
-0.004911 -0.220189 
-0.002182 -0.220351 
-0.006623 -0.209775 
-0.007040 -0.186686 
-0.007552 -0.198224 
-0.006615 -0.194495 
0.001256 -0.190103 
0.000937 -0.195218 
0.000000 -0.190015 
0.001047 -0.204987 
0.001273 -0.200148 
0.002096 -0.201328 
0.000000 -0.199190 
0.000594 -0.199419 
0.000225 -0.202670 
-0.001424 -0.227497 
-0.001130 -0.221182 
0.000024 -0.224784 
-0.002350 -0.213817 
-0.001943 -0.217453 
-0.003365 -0.218930 
0.001156 -0.212515 
-0.000420 -0.215331 
0.000405 -0.209974 
0.000000 -0.205646 
-0.001029 -0.206220 
-0.001504 -0.205117 
-0.000168 -0.204924 
-0.000585 -0.206129 
0.000000 -0.204561 
-0.003477 -0.210550 
-0.001850 -0.207917 
-0.002316 -0.210541 
-0.000043 -0.207751 
-0.001167 -0.209606 
-0.000213 -0.206019 
0.002130 -0.237832 
-0.006051 -0.220255 
-0.002913 -0.229105 
-0.000924 -0.236511 
-0.002653 -0.235062 
-0.003632 -0.205504 
-0.004941 -0.214585 
-0.004629 -0.209641 
-0.005732 -0.207845 
-0.006849 -0.212814 
-0.002553 -0.229800 
-0.003343 -0.233500 
-0.003244 -0.231772 
-0.003778 -0.224997 
-0.004619 -0.219834 
-0.006159 -0.220346 
-0.005602 -0.220262 
-0.004912 -0.227326 
0.009425 -0.140675 
0.006268 -0.153086 
0.003593 -0.191435 
0.006405 -0.172222 
-0.003640 -0.190110 
0.005286 -0.165967 
0.004543 -0.177169 
-0.006789 -0.238892 
-0.005228 -0.230967 
-0.013169 -0.239368 
0.006623 -0.209775 
0.002182 -0.220351 
0.004911 -0.220189 
-0.011804 -0.221487 
-0.002976 -0.220854 
0.000059 -0.207924 
0.002572 -0.198898 
0.002016 -0.202719 
0.003839 -0.186315 
0.003179 -0.193494 
0.006707 -0.205232 
0.005502 -0.198428 
0.007407 -0.201942 
0.006615 -0.194495 
0.007552 -0.198224 
0.007040 -0.186686 
-0.010034 -0.261065 
-0.009796 -0.260479 
-0.010801 -0.261449 
-0.006214 -0.255758 
-0.008247 -0.258656 
-0.007140 -0.257061 
-0.010937 -0.259909 
-0.009593 -0.259619 
-0.009406 -0.258292 
0.001071 -0.234071 
-0.000020 -0.240557 
-0.000559 -0.237710 
-0.000899 -0.245362 
-0.000095 -0.243103 
0.001634 -0.238763 
-0.003350 -0.249170 
-0.001770 -0.246553 
-0.003944 -0.251699 
-0.012621 -0.250221 
-0.008495 -0.249915 
-0.007826 -0.245096 
-0.009201 -0.256336 
-0.008921 -0.253598 
-0.011661 -0.256587 
-0.000910 -0.242528 
-0.005072 -0.248876 
-0.002534 -0.247311 
-0.005161 -0.253786 
-0.003945 -0.251016 
-0.006955 -0.255364 
-0.000937 -0.195218 
-0.001256 -0.190103 
-0.000225 -0.202670 
-0.000594 -0.199419 
-0.002096 -0.201328 
-0.001273 -0.200148 
-0.001047 -0.204987 
0.001504 -0.205117 
0.001029 -0.206220 
0.002316 -0.210541 
0.001850 -0.207917 
0.003477 -0.210550 
0.000585 -0.206129 
0.000168 -0.204924 
-0.000024 -0.224784 
0.001130 -0.221182 
0.001424 -0.227497 
-0.000405 -0.209974 
0.000420 -0.215331 
-0.001156 -0.212515 
0.003365 -0.218930 
0.001943 -0.217453 
0.002350 -0.213817 
0.000213 -0.206019 
0.001167 -0.209606 
0.000043 -0.207751 
-0.002130 -0.237832 
0.002653 -0.235062 
0.000924 -0.236511 
0.002913 -0.229105 
0.006051 -0.220255 
0.002553 -0.229800 
0.004619 -0.219834 
0.003778 -0.224997 
0.003244 -0.231772 
0.003343 -0.233500 
0.003632 -0.205504 
0.006849 -0.212814 
0.005732 -0.207845 
0.004629 -0.209641 
0.004941 -0.214585 
0.004912 -0.227326 
0.005602 -0.220262 
0.006159 -0.220346 
-0.010331 -0.261591 
-0.009314 -0.259985 
-0.008582 -0.255770 
-0.008789 -0.258207 
-0.009633 -0.258336 
-0.007980 -0.257831 
-0.006427 -0.254886 
-0.012190 -0.240453 
-0.010590 -0.245017 
-0.012314 -0.243827 
-0.007305 -0.245337 
-0.008940 -0.245517 
-0.008607 -0.241251 
-0.010118 -0.252251 
-0.009449 -0.249122 
-0.008785 -0.252724 
-0.002256 -0.240666 
-0.001603 -0.234528 
-0.004824 -0.251021 
-0.003371 -0.246238 
-0.005066 -0.239218 
-0.003963 -0.242921 
-0.005650 -0.244475 
-0.007502 -0.252724 
-0.006492 -0.248988 
-0.006198 -0.252181 
-0.035049 -0.190410 
-0.031812 -0.197884 
-0.034578 -0.195023 
-0.026324 -0.200863 
-0.029060 -0.199784 
-0.029278 -0.193361 
-0.027879 -0.209080 
-0.028558 -0.205019 
-0.025344 -0.211810 
-0.015892 -0.199430 
-0.018379 -0.200428 
-0.018128 -0.192193 
-0.018008 -0.214750 
-0.018309 -0.207970 
-0.015672 -0.214355 
-0.023570 -0.193638 
-0.020962 -0.201070 
-0.023618 -0.201252 
-0.016245 -0.233600 
-0.016601 -0.230096 
-0.014211 -0.235470 
-0.022234 -0.218256 
-0.019297 -0.224354 
-0.021593 -0.221952 
-0.014897 -0.226474 
-0.017070 -0.225826 
-0.017567 -0.220713 
-0.023347 -0.207915 
-0.020406 -0.214529 
-0.022853 -0.213587 
-0.002602 -0.190574 
-0.001581 -0.184090 
-0.003106 -0.202877 
-0.003098 -0.196793 
-0.004928 -0.185170 
-0.004046 -0.191399 
-0.005619 -0.192512 
-0.001443 -0.228089 
-0.001699 -0.221590 
-0.005452 -0.213538 
-0.003528 -0.217856 
-0.005083 -0.220346 
-0.002206 -0.215198 
-0.002747 -0.208974 
-0.013140 -0.189830 
-0.011305 -0.196760 
-0.013527 -0.198175 
-0.007347 -0.193835 
-0.009242 -0.195281 
-0.008736 -0.187272 
-0.009263 -0.210461 
-0.009384 -0.203012 
-0.007419 -0.208598 
-0.004327 -0.204686 
-0.005767 -0.206634 
-0.005869 -0.199640 
-0.012258 -0.236494 
-0.012773 -0.226388 
-0.012468 -0.231816 
-0.010348 -0.236742 
-0.008465 -0.236268 
-0.013589 -0.206063 
-0.008998 -0.217595 
-0.011272 -0.212111 
-0.013418 -0.213442 
-0.013115 -0.220242 
-0.003054 -0.230969 
-0.006607 -0.235118 
-0.004792 -0.233334 
-0.004821 -0.226988 
-0.006827 -0.222543 
-0.010706 -0.225651 
-0.008713 -0.224342 
-0.008512 -0.230602 
-0.041176 -0.179925 
-0.038195 -0.182618 
-0.043883 -0.165915 
-0.041158 -0.174458 
-0.047127 -0.163706 
-0.035160 -0.184392 
-0.032102 -0.185400 
-0.050865 -0.127496 
-0.049886 -0.137788 
-0.054716 -0.127107 
-0.039223 -0.158575 
-0.044658 -0.148363 
-0.040900 -0.148588 
-0.051860 -0.146132 
-0.048330 -0.147602 
-0.046299 -0.156970 
-0.023076 -0.185145 
-0.020209 -0.184340 
-0.029050 -0.185781 
-0.026031 -0.185659 
-0.030339 -0.167999 
-0.028310 -0.177117 
-0.033731 -0.168216 
-0.040543 -0.167304 
-0.037146 -0.168025 
-0.034748 -0.176960 
-0.014267 -0.017384 
-0.026745 -0.035493 
-0.020975 -0.024624 
-0.031967 -0.061178 
-0.030349 -0.048113 
-0.025856 -0.045988 
-0.041142 -0.057697 
-0.035626 -0.051841 
-0.041911 -0.066720 
-0.026274 -0.111779 
-0.028926 -0.099715 
-0.025176 -0.099003 
-0.037184 -0.101553 
-0.032935 -0.100558 
-0.034082 -0.113346 
-0.027965 -0.073248 
-0.030926 -0.087174 
-0.032037 -0.074275 
-0.054829 -0.106428 
-0.050599 -0.105296 
-0.051150 -0.116684 
-0.046241 -0.080449 
-0.049037 -0.093255 
-0.050971 -0.083663 
-0.042573 -0.115134 
-0.046137 -0.103989 
-0.041618 -0.102707 
-0.036509 -0.075740 
-0.039658 -0.089585 
-0.041309 -0.077776 
-0.003787 -0.177533 
-0.001897 -0.177199 
-0.007817 -0.178966 
-0.005749 -0.178138 
-0.007027 -0.161747 
-0.006451 -0.170321 
-0.009498 -0.162388 
-0.017455 -0.183338 
-0.014831 -0.182222 
-0.017648 -0.164968 
-0.016348 -0.173934 
-0.020641 -0.165892 
-0.012348 -0.181073 
-0.010012 -0.179965 
-0.019779 -0.122595 
-0.019793 -0.134122 
-0.023172 -0.123271 
-0.012819 -0.153708 
-0.016295 -0.144280 
-0.013324 -0.143577 
-0.022689 -0.145840 
-0.019414 -0.145045 
-0.018685 -0.155334 
-0.011136 -0.171925 
-0.014795 -0.164042 
-0.012081 -0.163166 
-0.046823 -0.127361 
-0.038540 -0.126252 
-0.042684 -0.126899 
-0.042088 -0.138039 
-0.037115 -0.148423 
-0.026756 -0.123995 
-0.026116 -0.146627 
-0.026682 -0.135619 
-0.030529 -0.124752 
-0.034469 -0.125516 
-0.022108 -0.175863 
-0.032047 -0.158292 
-0.027007 -0.167481 
-0.023766 -0.166753 
-0.025122 -0.157007 
-0.034196 -0.137061 
-0.029681 -0.147361 
-0.033360 -0.147983 
0.000000 0.000000 
-0.011222 -0.015625 
-0.007892 -0.014739 
-0.009305 -0.014998 
0.000000 0.000000 
-0.018179 -0.030445 
-0.022151 -0.044836 
-0.004226 -0.014582 
-0.004966 -0.014578 
0.000000 0.000000 
-0.014028 -0.043605 
-0.009699 -0.029128 
-0.011946 -0.043461 
0.000000 0.000000 
-0.005800 -0.014588 
-0.006757 -0.014630 
-0.023412 -0.085721 
-0.021682 -0.098398 
-0.023997 -0.058874 
-0.024285 -0.072525 
-0.017932 -0.071605 
-0.020956 -0.072000 
-0.017812 -0.057928 
-0.013214 -0.029393 
-0.016368 -0.043828 
-0.019040 -0.044197 
0.000000 -0.014611 
-0.000447 -0.014617 
0.000000 0.000000 
-0.001272 -0.043088 
-0.000875 -0.028986 
0.000000 -0.043065 
0.000000 0.000000 
-0.000903 -0.014619 
-0.001375 -0.014618 
-0.002380 -0.096173 
-0.002187 -0.083480 
0.000000 -0.096110 
-0.004987 -0.057005 
-0.003900 -0.070444 
-0.005921 -0.070545 
0.000000 -0.070330 
-0.001935 -0.070373 
-0.001628 -0.056895 
0.000000 0.000000 
-0.002952 -0.014600 
-0.003560 -0.014590 
-0.001868 -0.014615 
-0.002391 -0.014608 
0.000000 0.000000 
-0.006772 -0.043232 
-0.004669 -0.029027 
-0.005296 -0.043185 
-0.002566 -0.043114 
-0.003901 -0.043146 
-0.002686 -0.029008 
-0.002126 -0.169474 
0.000000 -0.177139 
-0.007468 -0.152448 
-0.004642 -0.161272 
0.000000 -0.160876 
-0.002312 -0.160980 
-0.002455 -0.151758 
-0.019334 -0.110498 
-0.016571 -0.121979 
-0.010641 -0.120967 
-0.013532 -0.121433 
-0.013191 -0.109500 
-0.013569 -0.132806 
-0.010487 -0.142964 
0.000000 -0.120042 
-0.002582 -0.120125 
-0.002511 -0.108404 
-0.002550 -0.141846 
-0.002594 -0.131287 
0.000000 -0.141749 
-0.007661 -0.108794 
-0.005196 -0.120308 
-0.007872 -0.120590 
-0.007764 -0.142461 
-0.007903 -0.131828 
-0.005128 -0.142085 
-0.006949 -0.029055 
-0.008647 -0.057186 
-0.008354 -0.043289 
-0.010068 -0.043363 
-0.012829 -0.057463 
-0.004791 -0.096299 
-0.009836 -0.096740 
-0.007266 -0.096488 
-0.006684 -0.083722 
-0.008028 -0.070677 
-0.018427 -0.097879 
-0.015167 -0.071295 
-0.017038 -0.084790 
-0.015386 -0.097433 
-0.012533 -0.097055 
-0.010250 -0.070843 
-0.011551 -0.084151 
-0.012618 -0.071047 
0.000000 0.000000 
0.000447 -0.014617 
0.001375 -0.014618 
0.000903 -0.014619 
0.000000 0.000000 
0.000875 -0.028986 
0.001272 -0.043088 
0.003560 -0.014590 
0.002952 -0.014600 
0.000000 0.000000 
0.005296 -0.043185 
0.004669 -0.029027 
0.006772 -0.043232 
0.000000 0.000000 
0.002391 -0.014608 
0.001868 -0.014615 
0.002187 -0.083480 
0.002380 -0.096173 
0.001628 -0.056895 
0.001935 -0.070373 
0.005921 -0.070545 
0.003900 -0.070444 
0.004987 -0.057005 
0.002686 -0.029008 
0.003901 -0.043146 
0.002566 -0.043114 
0.014267 -0.017384 
0.011222 -0.015625 
0.000000 0.000000 
0.022151 -0.044836 
0.018179 -0.030445 
0.025856 -0.045988 
0.000000 0.000000 
0.009305 -0.014998 
0.007892 -0.014739 
0.021682 -0.098398 
0.023412 -0.085721 
0.025176 -0.099003 
0.017812 -0.057928 
0.020956 -0.072000 
0.017932 -0.071605 
0.027965 -0.073248 
0.024285 -0.072525 
0.023997 -0.058874 
0.000000 0.000000 
0.004966 -0.014578 
0.004226 -0.014582 
0.006757 -0.014630 
0.005800 -0.014588 
0.000000 0.000000 
0.011946 -0.043461 
0.009699 -0.029128 
0.014028 -0.043605 
0.019040 -0.044197 
0.016368 -0.043828 
0.013214 -0.029393 
0.002126 -0.169474 
0.001897 -0.177199 
0.002455 -0.151758 
0.002312 -0.160980 
0.007027 -0.161747 
0.004642 -0.161272 
0.007468 -0.152448 
0.002511 -0.108404 
0.002582 -0.120125 
0.007872 -0.120590 
0.005196 -0.120308 
0.007661 -0.108794 
0.002594 -0.131287 
0.002550 -0.141846 
0.019779 -0.122595 
0.016571 -0.121979 
0.019334 -0.110498 
0.010487 -0.142964 
0.013569 -0.132806 
0.013324 -0.143577 
0.013191 -0.109500 
0.013532 -0.121433 
0.010641 -0.120967 
0.005128 -0.142085 
0.007903 -0.131828 
0.007764 -0.142461 
0.006949 -0.029055 
0.012829 -0.057463 
0.010068 -0.043363 
0.008354 -0.043289 
0.008647 -0.057186 
0.018427 -0.097879 
0.012533 -0.097055 
0.015386 -0.097433 
0.017038 -0.084790 
0.015167 -0.071295 
0.004791 -0.096299 
0.008028 -0.070677 
0.006684 -0.083722 
0.007266 -0.096488 
0.009836 -0.096740 
0.012618 -0.071047 
0.011551 -0.084151 
0.010250 -0.070843 
0.020975 -0.024624 
0.026745 -0.035493 
0.041911 -0.066720 
0.035626 -0.051841 
0.041142 -0.057697 
0.030349 -0.048113 
0.031967 -0.061178 
0.051150 -0.116684 
0.050599 -0.105296 
0.054829 -0.106428 
0.041618 -0.102707 
0.046137 -0.103989 
0.042573 -0.115134 
0.050971 -0.083663 
0.049037 -0.093255 
0.046241 -0.080449 
0.028926 -0.099715 
0.026274 -0.111779 
0.032037 -0.074275 
0.030926 -0.087174 
0.034082 -0.113346 
0.032935 -0.100558 
0.037184 -0.101553 
0.041309 -0.077776 
0.039658 -0.089585 
0.036509 -0.075740 
0.035049 -0.190410 
0.038195 -0.182618 
0.041176 -0.179925 
0.032102 -0.185400 
0.035160 -0.184392 
0.029278 -0.193361 
0.047127 -0.163706 
0.041158 -0.174458 
0.043883 -0.165915 
0.020209 -0.184340 
0.023076 -0.185145 
0.018128 -0.192193 
0.033731 -0.168216 
0.028310 -0.177117 
0.030339 -0.167999 
0.023570 -0.193638 
0.026031 -0.185659 
0.029050 -0.185781 
0.054716 -0.127107 
0.049886 -0.137788 
0.050865 -0.127496 
0.046299 -0.156970 
0.048330 -0.147602 
0.051860 -0.146132 
0.040900 -0.148588 
0.044658 -0.148363 
0.039223 -0.158575 
0.034748 -0.176960 
0.037146 -0.168025 
0.040543 -0.167304 
0.003787 -0.177533 
0.001581 -0.184090 
0.009498 -0.162388 
0.006451 -0.170321 
0.004928 -0.185170 
0.005749 -0.178138 
0.007817 -0.178966 
0.023172 -0.123271 
0.019793 -0.134122 
0.018685 -0.155334 
0.019414 -0.145045 
0.022689 -0.145840 
0.016295 -0.144280 
0.012819 -0.153708 
0.013140 -0.189830 
0.014831 -0.182222 
0.017455 -0.183338 
0.010012 -0.179965 
0.012348 -0.181073 
0.008736 -0.187272 