# vtk DataFile Version 2.0
Unstructured Grid Example
ASCII
DATASET UNSTRUCTURED_GRID

POINTS 81 float
0.015696 -0.257135 0.000000 
0.984304 -0.257135 0.000000 
1.000000 1.000000 0.000000 
0.000000 1.000000 0.000000 
0.500000 -0.100000 0.000000 
0.963933 0.317752 0.000000 
0.500000 1.000000 0.000000 
0.036067 0.317752 0.000000 
0.500000 0.324448 0.000000 
0.262192 -0.232653 0.000000 
0.500000 0.066539 0.000000 
0.250953 0.027219 0.000000 
0.737808 -0.232653 0.000000 
0.749047 0.027219 0.000000 
0.985862 0.017143 0.000000 
0.735340 0.315987 0.000000 
0.949461 0.635616 0.000000 
0.729852 0.643018 0.000000 
0.750000 1.000000 0.000000 
0.500000 0.646916 0.000000 
0.250000 1.000000 0.000000 
0.270148 0.643018 0.000000 
0.050539 0.635616 0.000000 
0.264660 0.315987 0.000000 
0.014138 0.017143 0.000000 
0.139284 -0.249528 0.000000 
0.250779 -0.105346 0.000000 
0.130738 -0.119877 0.000000 
0.500000 -0.031778 0.000000 
0.371418 -0.076685 0.000000 
0.381108 -0.195905 0.000000 
0.376036 0.178249 0.000000 
0.372229 0.046053 0.000000 
0.500000 0.187018 0.000000 
0.618892 -0.195905 0.000000 
0.628582 -0.076685 0.000000 
0.869262 -0.119877 0.000000 
0.749221 -0.105346 0.000000 
0.860716 -0.249528 0.000000 
0.627771 0.046053 0.000000 
0.623964 0.178249 0.000000 
0.989776 -0.124225 0.000000 
0.867956 0.016939 0.000000 
0.849712 0.312447 0.000000 
0.860199 0.160963 0.000000 
0.975844 0.164748 0.000000 
0.743283 0.167070 0.000000 
0.619148 0.322405 0.000000 
0.953802 0.473123 0.000000 
0.841983 0.471382 0.000000 
0.851328 0.817849 0.000000 
0.840453 0.639462 0.000000 
0.957781 0.807770 0.000000 
0.730059 0.474610 0.000000 
0.615816 0.478549 0.000000 
0.875000 1.000000 0.000000 
0.736723 0.819363 0.000000 
0.500000 0.820836 0.000000 
0.619042 0.820074 0.000000 
0.625000 1.000000 0.000000 
0.615801 0.645370 0.000000 
0.500000 0.480601 0.000000 
0.375000 1.000000 0.000000 
0.380958 0.820074 0.000000 
0.148672 0.817849 0.000000 
0.263277 0.819363 0.000000 
0.125000 1.000000 0.000000 
0.384199 0.645370 0.000000 
0.384184 0.478549 0.000000 
0.042219 0.807770 0.000000 
0.159547 0.639462 0.000000 
0.150288 0.312447 0.000000 
0.158017 0.471382 0.000000 
0.046198 0.473123 0.000000 
0.269941 0.474610 0.000000 
0.380852 0.322405 0.000000 
0.024156 0.164748 0.000000 
0.139801 0.160963 0.000000 
0.132044 0.016939 0.000000 
0.010224 -0.124225 0.000000 
0.256717 0.167070 0.000000 

CELLS 128 512
3  0 25 27 
3  9 26 25 
3  11 27 26 
3  25 26 27 
3  4 28 30 
3  10 29 28 
3  9 30 29 
3  28 29 30 
3  8 31 33 
3  11 32 31 
3  10 33 32 
3  31 32 33 
3  9 29 26 
3  10 32 29 
3  11 26 32 
3  29 32 26 
3  4 34 28 
3  12 35 34 
3  10 28 35 
3  34 35 28 
3  1 36 38 
3  13 37 36 
3  12 38 37 
3  36 37 38 
3  8 33 40 
3  10 39 33 
3  13 40 39 
3  33 39 40 
3  12 37 35 
3  13 39 37 
3  10 35 39 
3  37 39 35 
3  1 41 36 
3  14 42 41 
3  13 36 42 
3  41 42 36 
3  5 43 45 
3  15 44 43 
3  14 45 44 
3  43 44 45 
3  8 40 47 
3  13 46 40 
3  15 47 46 
3  40 46 47 
3  14 44 42 
3  15 46 44 
3  13 42 46 
3  44 46 42 
3  5 48 43 
3  16 49 48 
3  15 43 49 
3  48 49 43 
3  2 50 52 
3  17 51 50 
3  16 52 51 
3  50 51 52 
3  8 47 54 
3  15 53 47 
3  17 54 53 
3  47 53 54 
3  16 51 49 
3  17 53 51 
3  15 49 53 
3  51 53 49 
3  2 55 50 
3  18 56 55 
3  17 50 56 
3  55 56 50 
3  6 57 59 
3  19 58 57 
3  18 59 58 
3  57 58 59 
3  8 54 61 
3  17 60 54 
3  19 61 60 
3  54 60 61 
3  18 58 56 
3  19 60 58 
3  17 56 60 
3  58 60 56 
3  6 62 57 
3  20 63 62 
3  19 57 63 
3  62 63 57 
3  3 64 66 
3  21 65 64 
3  20 66 65 
3  64 65 66 
3  8 61 68 
3  19 67 61 
3  21 68 67 
3  61 67 68 
3  20 65 63 
3  21 67 65 
3  19 63 67 
3  65 67 63 
3  3 69 64 
3  22 70 69 
3  21 64 70 
3  69 70 64 
3  7 71 73 
3  23 72 71 
3  22 73 72 
3  71 72 73 
3  8 68 75 
3  21 74 68 
3  23 75 74 
3  68 74 75 
3  22 72 70 
3  23 74 72 
3  21 70 74 
3  72 74 70 
3  7 76 71 
3  24 77 76 
3  23 71 77 
3  76 77 71 
3  0 27 79 
3  11 78 27 
3  24 79 78 
3  27 78 79 
3  8 75 31 
3  23 80 75 
3  11 31 80 
3  75 80 31 
3  24 78 77 
3  11 80 78 
3  23 77 80 
3  78 80 77 

CELL_TYPES 128
5
5
5
5
5
5
5
5
5
5
5
5
5
5
5
5
5
5
5
5
5
5
5
5
5
5
5
5
5
5
5
5
5
5
5
5
5
5
5
5
5
5
5
5
5
5
5
5
5
5
5
5
5
5
5
5
5
5
5
5
5
5
5
5
5
5
5
5
5
5
5
5
5
5
5
5
5
5
5
5
5
5
5
5
5
5
5
5
5
5
5
5
5
5
5
5
5
5
5
5
5
5
5
5
5
5
5
5
5
5
5
5
5
5
5
5
5
5
5
5
5
5
5
5
5
5
5
5

POINT_DATA 81

SCALARS u_h float 2
LOOKUP_TABLE default
0.015696 -0.257135 
-0.015696 -0.257135 
0.000000 0.000000 
0.000000 0.000000 
0.000000 -0.100000 
-0.036067 -0.182248 
0.000000 0.000000 
0.036067 -0.182248 
0.000000 -0.175552 
0.012192 -0.232653 
0.000000 -0.183461 
0.000953 -0.222781 
-0.012192 -0.232653 
-0.000953 -0.222781 
-0.014138 -0.232857 
-0.014660 -0.184013 
-0.050539 -0.114384 
-0.020148 -0.106982 
0.000000 0.000000 
0.000000 -0.103084 
0.000000 0.000000 
0.020148 -0.106982 
0.050539 -0.114384 
0.014660 -0.184013 
0.014138 -0.232857 
0.014284 -0.249528 
0.000779 -0.230346 
0.005738 -0.244877 
0.000000 -0.156778 
-0.003582 -0.201685 
0.006108 -0.195905 
0.001036 -0.196751 
-0.002771 -0.203947 
0.000000 -0.187982 
-0.006108 -0.195905 
0.003582 -0.201685 
-0.005738 -0.244877 
-0.000779 -0.230346 
-0.014284 -0.249528 
0.002771 -0.203947 
-0.001036 -0.196751 
-0.010224 -0.249225 
-0.007044 -0.233061 
-0.025288 -0.187553 
-0.014801 -0.214037 
-0.024156 -0.210252 
-0.006717 -0.207930 
-0.005852 -0.177595 
-0.046198 -0.151877 
-0.033017 -0.153618 
-0.023672 -0.057151 
-0.034547 -0.110538 
-0.042219 -0.067230 
-0.019941 -0.150390 
-0.009184 -0.146451 
0.000000 0.000000 
-0.013277 -0.055637 
0.000000 -0.054164 
-0.005958 -0.054926 
0.000000 0.000000 
-0.009199 -0.104630 
0.000000 -0.144399 
0.000000 0.000000 
0.005958 -0.054926 
0.023672 -0.057151 
0.013277 -0.055637 
0.000000 0.000000 
0.009199 -0.104630 
0.009184 -0.146451 
0.042219 -0.067230 
0.034547 -0.110538 
0.025288 -0.187553 
0.033017 -0.153618 
0.046198 -0.151877 
0.019941 -0.150390 
0.005852 -0.177595 
0.024156 -0.210252 
0.014801 -0.214037 
0.007044 -0.233061 
0.010224 -0.249225 
0.006717 -0.207930 

CELL_DATA 128

SCALARS epsilon float 4
LOOKUP_TABLE default
-0.005112 0.042308 0.000000 -0.005187
-0.000591 0.039383 0.000000 0.019891
-0.040608 0.065051 0.000000 0.055433
-0.030195 0.051157 0.000000 0.020450
-0.050058 0.606309 0.000000 0.701030
0.028247 -0.135990 0.000000 0.228204
-0.021602 0.027420 0.000000 0.113295
0.059143 0.044048 0.000000 0.150105
-0.008326 0.096605 0.000000 0.031903
-0.034267 0.062321 0.000000 0.086806
0.021924 -0.022983 0.000000 0.084977
-0.009942 0.056126 0.000000 0.048480
-0.010306 0.065430 0.000000 0.065313
0.020886 -0.005959 0.000000 0.086589
-0.030435 0.069217 0.000000 0.071682
-0.037046 0.009534 0.000000 0.119950
-0.050058 0.606309 0.000000 -0.701030
-0.021602 0.027420 0.000000 -0.113295
0.028247 -0.135990 0.000000 -0.228204
0.059143 0.044048 0.000000 -0.150105
-0.005112 0.042308 0.000000 0.005187
-0.040608 0.065051 0.000000 -0.055433
-0.000591 0.039383 0.000000 -0.019891
-0.030195 0.051157 0.000000 -0.020450
-0.008326 0.096605 0.000000 -0.031903
0.021924 -0.022983 0.000000 -0.084977
-0.034267 0.062321 0.000000 -0.086806
-0.009942 0.056126 0.000000 -0.048480
-0.010306 0.065430 0.000000 -0.065313
-0.030435 0.069217 0.000000 -0.071682
0.020886 -0.005959 0.000000 -0.086589
-0.037046 0.009534 0.000000 -0.119950
-0.034146 0.063337 0.000000 0.006283
-0.057885 0.122538 0.000000 -0.015656
-0.050686 0.092400 0.000000 -0.042918
-0.036832 0.090297 0.000000 -0.021246
-0.082741 0.203979 0.000000 -0.033144
-0.087854 0.188365 0.000000 -0.056050
-0.072740 0.167416 0.000000 -0.029529
-0.072588 0.192674 0.000000 -0.031508
-0.047864 0.141264 0.000000 -0.026921
-0.049397 0.111533 0.000000 -0.063764
-0.074212 0.171715 0.000000 -0.054740
-0.048987 0.141956 0.000000 -0.058511
-0.056641 0.140902 0.000000 -0.031616
-0.067893 0.171757 0.000000 -0.053515
-0.052527 0.111303 0.000000 -0.060625
-0.067888 0.139074 0.000000 -0.053709
-0.084394 0.218183 0.000000 -0.025683
-0.110082 0.257818 0.000000 -0.013087
-0.088679 0.235165 0.000000 -0.043303
-0.108715 0.237103 0.000000 -0.027572
-0.107101 0.430682 0.000000 0.146548
-0.117424 0.346090 0.000000 0.034921
-0.132742 0.313320 0.000000 0.024336
-0.150932 0.351465 0.000000 0.018926
-0.048022 0.219086 0.000000 -0.019953
-0.074121 0.233622 0.000000 -0.041827
-0.089771 0.291260 0.000000 -0.012437
-0.090187 0.219018 0.000000 -0.026505
-0.136200 0.289202 0.000000 -0.017756
-0.121752 0.291220 0.000000 -0.011251
-0.110254 0.233771 0.000000 -0.032574
-0.110206 0.289142 0.000000 -0.015862
0.008444 0.362979 0.000000 0.085365
0.002701 0.355439 0.000000 0.048068
-0.085177 0.334066 0.000000 0.023175
-0.074878 0.364565 0.000000 0.088909
0.000000 0.348011 0.000000 -0.000000
-0.048801 0.320848 0.000000 -0.002186
0.000548 0.351865 0.000000 0.021613
-0.047985 0.352068 0.000000 0.020579
-0.076152 0.219502 0.000000 -0.006530
-0.091403 0.282240 0.000000 -0.007048
-0.076279 0.279322 0.000000 -0.004618
-0.076154 0.282209 0.000000 -0.006172
-0.056765 0.355850 0.000000 0.049086
-0.075833 0.325246 0.000000 0.008459
-0.089694 0.334393 0.000000 0.020952
-0.059946 0.325085 0.000000 0.010624
0.000000 0.348011 0.000000 -0.000000
0.000548 0.351865 0.000000 -0.021613
-0.048801 0.320848 0.000000 0.002186
-0.047985 0.352068 0.000000 -0.020579
0.008444 0.362979 0.000000 -0.085365
-0.085177 0.334066 0.000000 -0.023175
0.002701 0.355439 0.000000 -0.048068
-0.074878 0.364565 0.000000 -0.088909
-0.076152 0.219502 0.000000 0.006530
-0.076279 0.279322 0.000000 0.004618
-0.091403 0.282240 0.000000 0.007048
-0.076154 0.282209 0.000000 0.006172
-0.056765 0.355850 0.000000 -0.049086
-0.089694 0.334393 0.000000 -0.020952
-0.075833 0.325246 0.000000 -0.008459
-0.059946 0.325085 0.000000 -0.010624
-0.107101 0.430682 0.000000 -0.146548
-0.132742 0.313320 0.000000 -0.024336
-0.117424 0.346090 0.000000 -0.034921
-0.150932 0.351465 0.000000 -0.018926
-0.084394 0.218183 0.000000 0.025683
-0.088679 0.235165 0.000000 0.043303
-0.110082 0.257818 0.000000 0.013087
-0.108715 0.237103 0.000000 0.027572
-0.048022 0.219086 0.000000 0.019953
-0.089771 0.291260 0.000000 0.012437
-0.074121 0.233622 0.000000 0.041827
-0.090187 0.219018 0.000000 0.026505
-0.136200 0.289202 0.000000 0.017756
-0.110254 0.233771 0.000000 0.032574
-0.121752 0.291220 0.000000 0.011251
-0.110206 0.289142 0.000000 0.015862
-0.082741 0.203979 0.000000 0.033144
-0.072740 0.167416 0.000000 0.029529
-0.087854 0.188365 0.000000 0.056050
-0.072588 0.192674 0.000000 0.031508
-0.034146 0.063337 0.000000 -0.006283
-0.050686 0.092400 0.000000 0.042918
-0.057885 0.122538 0.000000 0.015656
-0.036832 0.090297 0.000000 0.021246
-0.047864 0.141264 0.000000 0.026921
-0.074212 0.171715 0.000000 0.054740
-0.049397 0.111533 0.000000 0.063764
-0.048987 0.141956 0.000000 0.058511
-0.056641 0.140902 0.000000 0.031616
-0.052527 0.111303 0.000000 0.060625
-0.067893 0.171757 0.000000 0.053515
-0.067888 0.139074 0.000000 0.053709

SCALARS sigma float 4
LOOKUP_TABLE default
0.203833 0.976509 0.324270 -0.059854
0.177692 0.747105 0.254065 0.353507
-0.525614 1.087874 0.154467 0.947291
-0.437725 0.817984 0.104467 0.391057
-9.678808 -22.484970 -8.836203 12.119578
-1.978555 -6.886474 -2.435447 3.641102
-0.898392 -0.855584 -0.481862 1.908282
1.248584 0.031196 0.351588 2.289721
0.683720 2.304136 0.820839 0.527615
-0.431038 0.971473 0.148471 1.454093
0.197368 -0.773694 -0.158331 1.364042
0.249929 1.281832 0.420814 0.788274
0.001957 0.873582 0.240533 1.127165
0.350111 -0.308518 0.011427 1.393422
-0.247395 1.192306 0.259591 1.212081
-1.197780 -0.906625 -0.578133 2.043380
-9.678808 -22.484970 -8.836203 -12.119578
-0.898392 -0.855584 -0.481862 -1.908282
-1.978555 -6.886474 -2.435447 -3.641102
1.248584 0.031196 0.351588 -2.289721
0.203833 0.976509 0.324270 0.059854
-0.525614 1.087874 0.154467 -0.947291
0.177692 0.747105 0.254065 -0.353507
-0.437725 0.817984 0.104467 -0.391057
0.683720 2.304136 0.820839 -0.527615
0.197368 -0.773694 -0.158331 -1.364042
-0.431038 0.971473 0.148471 -1.454093
0.249929 1.281832 0.420814 -0.788274
0.001957 0.873582 0.240533 -1.127165
-0.247395 1.192306 0.259591 -1.212081
0.350111 -0.308518 0.011427 -1.393422
-1.197780 -0.906625 -0.578133 -2.043380
-0.333179 1.251057 0.252165 0.071826
-0.428965 2.456651 0.557056 -0.228128
-0.519150 1.739195 0.335177 -0.730571
-0.131804 1.895863 0.484632 -0.351616
-0.527721 4.005328 0.955387 -0.386078
-0.784406 3.616183 0.777961 -0.831610
-0.522225 3.307471 0.765178 -0.373432
-0.304148 3.880345 0.982472 -0.391216
0.011431 2.997940 0.826750 -0.409499
-0.336886 2.195189 0.510523 -1.044832
-0.503966 3.384778 0.791432 -0.853226
-0.042082 2.927348 0.792656 -0.956128
-0.264316 2.888456 0.720917 -0.455873
-0.321543 3.456934 0.861371 -0.829445
-0.421664 2.169154 0.480080 -0.992485
-0.608609 2.700840 0.574789 -0.846331
-0.425229 4.314005 1.068345 -0.277935
-0.789383 4.925603 1.136324 -0.146544
-0.373307 4.659740 1.177591 -0.636401
-0.948784 4.482028 0.970671 -0.345058
-0.338366 8.079677 2.126734 1.577079
-0.372174 6.657230 1.726664 0.379581
-1.069930 5.816257 1.303936 0.243924
-1.388827 6.332083 1.358037 0.042762
0.684866 4.762842 1.496623 -0.296230
0.051454 4.779641 1.327224 -0.651830
0.090078 5.861764 1.635121 -0.220889
-0.518551 4.300300 1.038942 -0.418088
-1.321906 5.289584 1.090021 -0.300921
-0.860912 5.501588 1.274911 -0.207051
-1.000388 4.396918 0.933113 -0.491751
-0.530726 5.590261 1.389982 -0.259367
3.137570 8.283184 3.137570 1.065639
3.080056 8.131347 3.080056 0.602687
0.535512 6.794902 2.013850 0.271604
0.804098 7.425887 2.260985 1.086097
3.023141 7.981092 3.023141 -0.000000
1.491366 6.925222 2.312249 -0.037744
3.052703 8.059137 3.052703 0.271554
1.738633 7.564714 2.555865 0.248609
-0.098401 4.473871 1.202052 -0.116312
-0.027748 5.658263 1.546845 -0.127553
0.387113 5.763858 1.689827 -0.082273
0.413506 5.825409 1.713988 -0.109658
1.453891 7.522323 2.465993 0.605604
0.756794 6.723865 2.055126 0.085814
0.405908 6.750438 1.966029 0.230126
1.207279 6.892312 2.225162 0.126064
3.023141 7.981092 3.023141 -0.000000
3.052703 8.059137 3.052703 -0.271554
1.491366 6.925222 2.312249 0.037744
1.738633 7.564714 2.555865 -0.248609
3.137570 8.283184 3.137570 -1.065639
0.535512 6.794902 2.013850 -0.271604
3.080056 8.131347 3.080056 -0.602687
0.804098 7.425887 2.260985 -1.086097
-0.098401 4.473871 1.202052 0.116312
0.387113 5.763858 1.689827 0.082273
-0.027748 5.658263 1.546845 0.127553
0.413506 5.825409 1.713988 0.109658
1.453891 7.522323 2.465993 -0.605604
0.405908 6.750438 1.966029 -0.230126
0.756794 6.723865 2.055126 -0.085814
1.207279 6.892312 2.225162 -0.126064
-0.338366 8.079677 2.126734 -1.577079
-1.069930 5.816257 1.303936 -0.243924
-0.372174 6.657230 1.726664 -0.379581
-1.388827 6.332083 1.358037 -0.042762
-0.425229 4.314005 1.068345 0.277935
-0.373307 4.659740 1.177591 0.636401
-0.789383 4.925603 1.136324 0.146544
-0.948784 4.482028 0.970671 0.345058
0.684866 4.762842 1.496623 0.296230
0.090078 5.861764 1.635121 0.220889
0.051454 4.779641 1.327224 0.651830
-0.518551 4.300300 1.038942 0.418088
-1.321906 5.289584 1.090021 0.300921
-1.000388 4.396918 0.933113 0.491751
-0.860912 5.501588 1.274911 0.207051
-0.530726 5.590261 1.389982 0.259367
-0.527721 4.005328 0.955387 0.386078
-0.522225 3.307471 0.765178 0.373432
-0.784406 3.616183 0.777961 0.831610
-0.304148 3.880345 0.982472 0.391216
-0.333179 1.251057 0.252165 -0.071826
-0.519150 1.739195 0.335177 0.730571
-0.428965 2.456651 0.557056 0.228128
-0.131804 1.895863 0.484632 0.351616
0.011431 2.997940 0.826750 0.409499
-0.503966 3.384778 0.791432 0.853226
-0.336886 2.195189 0.510523 1.044832
-0.042082 2.927348 0.792656 0.956128
-0.264316 2.888456 0.720917 0.455873
-0.421664 2.169154 0.480080 0.992485
-0.321543 3.456934 0.861371 0.829445
-0.608609 2.700840 0.574789 0.846331

