# vtk DataFile Version 2.0
Unstructured Grid Example
ASCII
DATASET UNSTRUCTURED_GRID

POINTS 9 float
0.018685 -0.214402 0.000000 
0.981315 -0.214402 0.000000 
1.000000 1.000000 0.000000 
0.000000 1.000000 0.000000 
0.500000 -0.196612 0.000000 
0.966803 0.355778 0.000000 
0.500000 1.000000 0.000000 
0.033197 0.355778 0.000000 
0.500000 0.347557 0.000000 

CELLS 8 32
3  0 4 8 
3  4 1 8 
3  1 5 8 
3  5 2 8 
3  2 6 8 
3  6 3 8 
3  3 7 8 
3  7 0 8 

CELL_TYPES 8
5
5
5
5
5
5
5
5

POINT_DATA 9

SCALARS u_h float 2
LOOKUP_TABLE default
0.018685 -0.214402 
-0.018685 -0.214402 
0.000000 0.000000 
0.000000 0.000000 
-0.000000 -0.196612 
-0.033197 -0.144222 
0.000000 0.000000 
0.033197 -0.144222 
-0.000000 -0.152443 

CELL_DATA 8

SCALARS epsilon float 4
LOOKUP_TABLE default
-0.038067 0.085038 0.000000 0.016322
-0.038067 0.085038 0.000000 -0.016322
-0.067770 0.131220 0.000000 -0.008134
-0.067964 0.248160 0.000000 0.040135
0.000000 0.260946 0.000000 0.000000
0.000000 0.260946 0.000000 0.000000
-0.067964 0.248160 0.000000 -0.040135
-0.067770 0.131220 0.000000 0.008134

SCALARS sigma float 4
LOOKUP_TABLE default
-0.213176 1.754626 0.423475 0.278484
-0.213176 1.754626 0.423475 -0.278484
-0.630018 2.553439 0.528412 -0.096868
0.328507 5.170675 1.510764 0.565198
2.336499 6.168358 2.336499 0.000000
2.336499 6.168358 2.336499 0.000000
0.328507 5.170675 1.510764 -0.565198
-0.630018 2.553439 0.528412 0.096868

