# vtk DataFile Version 2.0
Unstructured Grid Example
ASCII
DATASET UNSTRUCTURED_GRID

POINTS 1089 float
0.003882 -0.202727 0.000000 
0.996118 -0.202727 0.000000 
1.000000 1.000000 0.000000 
0.000000 1.000000 0.000000 
0.500000 -0.217930 0.000000 
0.958906 0.348453 0.000000 
0.500000 1.000000 0.000000 
0.041094 0.348453 0.000000 
0.500000 0.340970 0.000000 
0.252938 -0.214902 0.000000 
0.500000 0.046997 0.000000 
0.262051 0.049435 0.000000 
0.747062 -0.214902 0.000000 
0.737949 0.049435 0.000000 
0.977430 0.061131 0.000000 
0.728645 0.341631 0.000000 
0.951380 0.655566 0.000000 
0.728345 0.661492 0.000000 
0.750000 1.000000 0.000000 
0.500000 0.662362 0.000000 
0.250000 1.000000 0.000000 
0.271655 0.661492 0.000000 
0.048620 0.655566 0.000000 
0.271355 0.341631 0.000000 
0.022570 0.061131 0.000000 
0.128533 -0.210077 0.000000 
0.257128 -0.086163 0.000000 
0.135143 -0.081584 0.000000 
0.500000 -0.089045 0.000000 
0.378682 -0.088422 0.000000 
0.376712 -0.217373 0.000000 
0.383631 0.190729 0.000000 
0.381138 0.047532 0.000000 
0.500000 0.190369 0.000000 
0.623288 -0.217373 0.000000 
0.621318 -0.088422 0.000000 
0.864857 -0.081584 0.000000 
0.742872 -0.086163 0.000000 
0.871467 -0.210077 0.000000 
0.618862 0.047532 0.000000 
0.616369 0.190729 0.000000 
0.987200 -0.073930 0.000000 
0.857478 0.053538 0.000000 
0.843333 0.343275 0.000000 
0.849989 0.195189 0.000000 
0.967653 0.202033 0.000000 
0.732938 0.192013 0.000000 
0.614297 0.341209 0.000000 
0.952480 0.499516 0.000000 
0.839119 0.497884 0.000000 
0.851245 0.828101 0.000000 
0.840175 0.659385 0.000000 
0.960825 0.817721 0.000000 
0.726457 0.498259 0.000000 
0.613430 0.498664 0.000000 
0.875000 1.000000 0.000000 
0.736382 0.829803 0.000000 
0.500000 0.830023 0.000000 
0.618692 0.829989 0.000000 
0.625000 1.000000 0.000000 
0.614681 0.662173 0.000000 
0.500000 0.498813 0.000000 
0.375000 1.000000 0.000000 
0.381308 0.829989 0.000000 
0.148755 0.828101 0.000000 
0.263618 0.829803 0.000000 
0.125000 1.000000 0.000000 
0.385319 0.662173 0.000000 
0.386570 0.498664 0.000000 
0.039175 0.817721 0.000000 
0.159825 0.659385 0.000000 
0.156667 0.343275 0.000000 
0.160881 0.497884 0.000000 
0.047520 0.499516 0.000000 
0.273543 0.498259 0.000000 
0.385703 0.341209 0.000000 
0.032347 0.202033 0.000000 
0.150011 0.195189 0.000000 
0.142522 0.053538 0.000000 
0.012800 -0.073930 0.000000 
0.267062 0.192013 0.000000 
0.066194 -0.206643 0.000000 
0.131718 -0.146664 0.000000 
0.069958 -0.143248 0.000000 
0.254899 -0.151384 0.000000 
0.193370 -0.149361 0.000000 
0.190806 -0.212821 0.000000 
0.199213 -0.017381 0.000000 
0.196195 -0.084213 0.000000 
0.259538 -0.019229 0.000000 
0.500000 -0.154367 0.000000 
0.438815 -0.154251 0.000000 
0.438397 -0.217896 0.000000 
0.439952 -0.021793 0.000000 
0.439352 -0.088905 0.000000 
0.500000 -0.021933 0.000000 
0.314904 -0.216394 0.000000 
0.377600 -0.153751 0.000000 
0.316304 -0.152818 0.000000 
0.442376 0.264887 0.000000 
0.441823 0.190464 0.000000 
0.500000 0.264796 0.000000 
0.321638 0.048272 0.000000 
0.382406 0.118218 0.000000 
0.323542 0.118844 0.000000 
0.500000 0.117763 0.000000 
0.441214 0.117875 0.000000 
0.440581 0.047126 0.000000 
0.317950 -0.087535 0.000000 
0.379880 -0.021340 0.000000 
0.319752 -0.020513 0.000000 
0.561603 -0.217896 0.000000 
0.561185 -0.154251 0.000000 
0.683696 -0.152818 0.000000 
0.622400 -0.153751 0.000000 
0.685096 -0.216394 0.000000 
0.560648 -0.088905 0.000000 
0.560048 -0.021793 0.000000 
0.930042 -0.143248 0.000000 
0.868282 -0.146664 0.000000 
0.933806 -0.206643 0.000000 
0.740462 -0.019229 0.000000 
0.803805 -0.084213 0.000000 
0.800787 -0.017381 0.000000 
0.809194 -0.212821 0.000000 
0.806630 -0.149361 0.000000 
0.745101 -0.151384 0.000000 
0.558177 0.190464 0.000000 
0.557624 0.264887 0.000000 
0.559419 0.047126 0.000000 
0.558786 0.117875 0.000000 
0.676458 0.118844 0.000000 
0.617594 0.118218 0.000000 
0.678362 0.048272 0.000000 
0.682050 -0.087535 0.000000 
0.680248 -0.020513 0.000000 
0.620120 -0.021340 0.000000 
0.991846 -0.139144 0.000000 
0.926012 -0.078188 0.000000 
0.917419 0.056801 0.000000 
0.921774 -0.011489 0.000000 
0.982365 -0.007155 0.000000 
0.861230 -0.014846 0.000000 
0.797651 0.051141 0.000000 
0.900977 0.345184 0.000000 
0.904682 0.270871 0.000000 
0.963060 0.274562 0.000000 
0.788482 0.266884 0.000000 
0.846485 0.268430 0.000000 
0.785914 0.342201 0.000000 
0.972489 0.130877 0.000000 
0.908752 0.198013 0.000000 
0.913042 0.126646 0.000000 
0.615245 0.265067 0.000000 
0.557146 0.341128 0.000000 
0.735411 0.119846 0.000000 
0.674610 0.191213 0.000000 
0.671455 0.341347 0.000000 
0.672905 0.265385 0.000000 
0.730637 0.265941 0.000000 
0.853696 0.123554 0.000000 
0.791388 0.193272 0.000000 
0.794485 0.121358 0.000000 
0.955209 0.423350 0.000000 
0.897831 0.420945 0.000000 
0.894694 0.577010 0.000000 
0.895613 0.498198 0.000000 
0.951035 0.576908 0.000000 
0.840777 0.419747 0.000000 
0.783933 0.419240 0.000000 
0.919560 0.912311 0.000000 
0.906537 0.824816 0.000000 
0.973178 0.903310 0.000000 
0.784501 0.660697 0.000000 
0.844079 0.742880 0.000000 
0.788226 0.744435 0.000000 
0.954259 0.735667 0.000000 
0.899157 0.739988 0.000000 
0.895613 0.657522 0.000000 
0.613656 0.419104 0.000000 
0.556830 0.419124 0.000000 
0.727183 0.419081 0.000000 
0.670439 0.419071 0.000000 
0.670370 0.579506 0.000000 
0.670012 0.498493 0.000000 
0.726745 0.579105 0.000000 
0.838748 0.577739 0.000000 
0.782843 0.578508 0.000000 
0.782793 0.498009 0.000000 
0.937500 1.000000 0.000000 
0.862024 0.914291 0.000000 
0.742727 0.914872 0.000000 
0.802753 0.914771 0.000000 
0.812500 1.000000 0.000000 
0.794355 0.829352 0.000000 
0.731521 0.745184 0.000000 
0.500000 0.914813 0.000000 
0.560855 0.914808 0.000000 
0.562500 1.000000 0.000000 
0.558235 0.745751 0.000000 
0.559403 0.830000 0.000000 
0.500000 0.745799 0.000000 
0.687500 1.000000 0.000000 
0.621645 0.914830 0.000000 
0.682302 0.914863 0.000000 
0.556740 0.498765 0.000000 
0.500000 0.419117 0.000000 
0.671704 0.661935 0.000000 
0.613736 0.579751 0.000000 
0.500000 0.579957 0.000000 
0.556914 0.579889 0.000000 
0.557403 0.662297 0.000000 
0.677742 0.829951 0.000000 
0.616335 0.745679 0.000000 
0.674155 0.745526 0.000000 
0.437500 1.000000 0.000000 
0.439145 0.914808 0.000000 
0.317698 0.914863 0.000000 
0.378355 0.914830 0.000000 
0.312500 1.000000 0.000000 
0.440597 0.830000 0.000000 
0.441765 0.745751 0.000000 
0.080440 0.912311 0.000000 
0.137976 0.914291 0.000000 
0.062500 1.000000 0.000000 
0.268479 0.745184 0.000000 
0.205645 0.829352 0.000000 
0.211774 0.744435 0.000000 
0.187500 1.000000 0.000000 
0.197247 0.914771 0.000000 
0.257273 0.914872 0.000000 
0.443260 0.498765 0.000000 
0.443170 0.419124 0.000000 
0.442597 0.662297 0.000000 
0.443086 0.579889 0.000000 
0.329630 0.579506 0.000000 
0.386264 0.579751 0.000000 
0.328296 0.661935 0.000000 
0.322258 0.829951 0.000000 
0.325845 0.745526 0.000000 
0.383665 0.745679 0.000000 
0.026822 0.903310 0.000000 
0.093463 0.824816 0.000000 
0.104387 0.657522 0.000000 
0.100843 0.739988 0.000000 
0.045741 0.735667 0.000000 
0.155921 0.742880 0.000000 
0.215499 0.660697 0.000000 
0.099023 0.345184 0.000000 
0.102169 0.420945 0.000000 
0.044791 0.423350 0.000000 
0.216067 0.419240 0.000000 
0.159223 0.419747 0.000000 
0.214086 0.342201 0.000000 
0.048965 0.576908 0.000000 
0.104387 0.498198 0.000000 
0.105306 0.577010 0.000000 
0.386344 0.419104 0.000000 
0.442854 0.341128 0.000000 
0.273255 0.579105 0.000000 
0.329988 0.498493 0.000000 
0.328545 0.341347 0.000000 
0.329561 0.419071 0.000000 
0.272817 0.419081 0.000000 
0.161252 0.577739 0.000000 
0.217207 0.498009 0.000000 
0.217157 0.578508 0.000000 
0.036940 0.274562 0.000000 
0.095318 0.270871 0.000000 
0.086958 0.126646 0.000000 
0.091248 0.198013 0.000000 
0.027511 0.130877 0.000000 
0.153515 0.268430 0.000000 
0.211518 0.266884 0.000000 
0.073988 -0.078188 0.000000 
0.008154 -0.139144 0.000000 
0.202349 0.051141 0.000000 
0.138770 -0.014846 0.000000 
0.017635 -0.007155 0.000000 
0.078226 -0.011489 0.000000 
0.082581 0.056801 0.000000 
0.384755 0.265067 0.000000 
0.269363 0.265941 0.000000 
0.327095 0.265385 0.000000 
0.325390 0.191213 0.000000 
0.264589 0.119846 0.000000 
0.146304 0.123554 0.000000 
0.205515 0.121358 0.000000 
0.208612 0.193272 0.000000 
0.035035 -0.204705 0.000000 
0.068046 -0.175151 0.000000 
0.036993 -0.173204 0.000000 
0.130096 -0.178580 0.000000 
0.099081 -0.176951 0.000000 
0.097365 -0.208443 0.000000 
0.102682 -0.112724 0.000000 
0.100850 -0.145045 0.000000 
0.133401 -0.114332 0.000000 
0.253878 -0.183355 0.000000 
0.222982 -0.182408 0.000000 
0.221892 -0.213940 0.000000 
0.225385 -0.118071 0.000000 
0.224150 -0.150452 0.000000 
0.255986 -0.118987 0.000000 
0.159683 -0.211535 0.000000 
0.192051 -0.181303 0.000000 
0.161088 -0.180029 0.000000 
0.230794 0.015700 0.000000 
0.229390 -0.018383 0.000000 
0.260786 0.014886 0.000000 
0.165683 -0.082990 0.000000 
0.197684 -0.051008 0.000000 
0.167324 -0.049807 0.000000 
0.258315 -0.052912 0.000000 
0.228014 -0.052038 0.000000 
0.226676 -0.085267 0.000000 
0.162559 -0.148101 0.000000 
0.194754 -0.116997 0.000000 
0.164092 -0.115754 0.000000 
0.500000 -0.186367 0.000000 
0.469292 -0.186376 0.000000 
0.469204 -0.217988 0.000000 
0.469536 -0.121902 0.000000 
0.469407 -0.154353 0.000000 
0.500000 -0.121928 0.000000 
0.407567 -0.217690 0.000000 
0.438585 -0.186280 0.000000 
0.407865 -0.186080 0.000000 
0.470133 0.012336 0.000000 
0.469977 -0.021900 0.000000 
0.500000 0.012303 0.000000 
0.409022 -0.088710 0.000000 
0.439647 -0.055573 0.000000 
0.409463 -0.055382 0.000000 
0.500000 -0.055714 0.000000 
0.469824 -0.055682 0.000000 
0.469677 -0.089014 0.000000 
0.283942 -0.215716 0.000000 
0.315566 -0.184818 0.000000 
0.284739 -0.184155 0.000000 
0.377125 -0.185772 0.000000 
0.346360 -0.185354 0.000000 
0.345826 -0.216943 0.000000 
0.347623 -0.120904 0.000000 
0.346964 -0.153343 0.000000 
0.378122 -0.121304 0.000000 
0.439073 -0.121795 0.000000 
0.408604 -0.121598 0.000000 
0.408215 -0.154052 0.000000 
[...]
POINT_DATA 1089

SCALARS u_h float 2
LOOKUP_TABLE default
0.003882 -0.202727 
-0.003882 -0.202727 
0.000000 0.000000 
0.000000 0.000000 
0.000000 -0.217930 
-0.041094 -0.151547 
0.000000 0.000000 
0.041094 -0.151547 
0.000000 -0.159030 
0.002938 -0.214902 
0.000000 -0.203003 
0.012051 -0.200565 
-0.002938 -0.214902 
-0.012051 -0.200565 
-0.022570 -0.188869 
-0.021355 -0.158369 
-0.048620 -0.094434 
-0.021655 -0.088508 
0.000000 0.000000 
0.000000 -0.087638 
0.000000 0.000000 
0.021655 -0.088508 
0.048620 -0.094434 
0.021355 -0.158369 
0.022570 -0.188869 
0.003533 -0.210077 
0.007128 -0.211163 
0.010143 -0.206584 
0.000000 -0.214045 
0.003682 -0.213422 
0.001712 -0.217373 
0.008631 -0.184271 
0.006138 -0.202468 
0.000000 -0.184631 
-0.001712 -0.217373 
-0.003682 -0.213422 
-0.010143 -0.206584 
-0.007128 -0.211163 
-0.003533 -0.210077 
-0.006138 -0.202468 
-0.008631 -0.184271 
-0.012800 -0.198930 
-0.017522 -0.196462 
-0.031667 -0.156725 
-0.025011 -0.179811 
-0.032347 -0.172967 
-0.017062 -0.182987 
-0.010703 -0.158791 
-0.047520 -0.125484 
-0.035881 -0.127116 
-0.023755 -0.046899 
-0.034825 -0.090615 
-0.039175 -0.057279 
-0.023543 -0.126741 
-0.011570 -0.126336 
0.000000 0.000000 
-0.013618 -0.045197 
0.000000 -0.044977 
-0.006308 -0.045011 
0.000000 0.000000 
-0.010319 -0.087827 
0.000000 -0.126187 
0.000000 0.000000 
0.006308 -0.045011 
0.023755 -0.046899 
0.013618 -0.045197 
0.000000 0.000000 
0.010319 -0.087827 
0.011570 -0.126336 
0.039175 -0.057279 
0.034825 -0.090615 
0.031667 -0.156725 
0.035881 -0.127116 
0.047520 -0.125484 
0.023543 -0.126741 
0.010703 -0.158791 
0.032347 -0.172967 
0.025011 -0.179811 
0.017522 -0.196462 
0.012800 -0.198930 
0.017062 -0.182987 
0.003694 -0.206643 
0.006718 -0.209164 
0.007458 -0.205748 
0.004899 -0.213884 
0.005870 -0.211861 
0.003306 -0.212821 
0.011713 -0.204881 
0.008695 -0.209213 
0.009538 -0.206729 
0.000000 -0.216867 
0.001315 -0.216751 
0.000897 -0.217896 
0.002452 -0.209293 
0.001852 -0.213905 
0.000000 -0.209433 
0.002404 -0.216394 
0.002600 -0.216251 
0.003804 -0.215318 
0.004876 -0.172613 
0.004323 -0.184536 
0.000000 -0.172704 
0.009138 -0.201728 
0.007406 -0.194282 
0.011042 -0.193656 
0.000000 -0.194737 
0.003714 -0.194625 
0.003081 -0.202874 
0.005450 -0.212535 
0.004880 -0.208840 
0.007252 -0.208013 
-0.000897 -0.217896 
-0.001315 -0.216751 
-0.003804 -0.215318 
-0.002600 -0.216251 
-0.002404 -0.216394 
-0.001852 -0.213905 
-0.002452 -0.209293 
-0.007458 -0.205748 
-0.006718 -0.209164 
-0.003694 -0.206643 
-0.009538 -0.206729 
-0.008695 -0.209213 
-0.011713 -0.204881 
-0.003306 -0.212821 
-0.005870 -0.211861 
-0.004899 -0.213884 
-0.004323 -0.184536 
-0.004876 -0.172613 
-0.003081 -0.202874 
-0.003714 -0.194625 
-0.011042 -0.193656 
-0.007406 -0.194282 
-0.009138 -0.201728 
-0.005450 -0.212535 
-0.007252 -0.208013 
-0.004880 -0.208840 
-0.008154 -0.201644 
-0.011488 -0.203188 
-0.020081 -0.193199 
-0.015726 -0.198989 
-0.017635 -0.194655 
-0.013770 -0.202346 
-0.014849 -0.198859 
-0.036523 -0.154816 
-0.032818 -0.166629 
-0.036940 -0.162938 
-0.024018 -0.170616 
-0.028515 -0.169070 
-0.026586 -0.157799 
-0.027511 -0.181623 
-0.028748 -0.176987 
-0.024458 -0.185854 
-0.009755 -0.172433 
-0.005354 -0.158872 
-0.014589 -0.192654 
-0.012890 -0.183787 
-0.016045 -0.158653 
-0.014595 -0.172115 
-0.019363 -0.171559 
-0.021304 -0.188946 
-0.021112 -0.181728 
-0.018015 -0.191142 
-0.044791 -0.139150 
-0.039669 -0.141555 
-0.042806 -0.110490 
-0.041887 -0.126802 
-0.048965 -0.110592 
-0.034223 -0.142753 
-0.028567 -0.143260 
-0.017940 -0.025189 
-0.030963 -0.050184 
-0.026822 -0.034190 
-0.027999 -0.089303 
-0.030921 -0.069620 
-0.024274 -0.068065 
-0.045741 -0.076833 
-0.038343 -0.072512 
-0.041887 -0.092478 
-0.011344 -0.143396 
-0.005670 -0.143376 
-0.022817 -0.143419 
-0.017061 -0.143429 
-0.017130 -0.107994 
-0.017488 -0.126507 
-0.023255 -0.108395 
-0.036252 -0.109761 
-0.029657 -0.108992 
-0.029707 -0.126991 
0.000000 0.000000 
-0.012976 -0.023209 
-0.007273 -0.022628 
-0.009747 -0.022729 
0.000000 0.000000 
-0.018145 -0.045648 
-0.018479 -0.067316 
0.000000 -0.022687 
-0.001645 -0.022692 
0.000000 0.000000 
-0.004265 -0.066749 
-0.003097 -0.045000 
0.000000 -0.066701 
0.000000 0.000000 
-0.003355 -0.022670 
-0.005198 -0.022637 
-0.005760 -0.126235 
0.000000 -0.143383 
-0.015796 -0.088065 
-0.011264 -0.107749 
0.000000 -0.107543 
-0.005586 -0.107611 
-0.005097 -0.087703 
-0.009758 -0.045049 
-0.008665 -0.066821 
-0.013345 -0.066974 
0.000000 0.000000 
0.001645 -0.022692 
0.005198 -0.022637 
0.003355 -0.022670 
0.000000 0.000000 
0.003097 -0.045000 
0.004265 -0.066749 
0.017940 -0.025189 
0.012976 -0.023209 
0.000000 0.000000 
0.018479 -0.067316 
0.018145 -0.045648 
0.024274 -0.068065 
0.000000 0.000000 
0.009747 -0.022729 
0.007273 -0.022628 
0.005760 -0.126235 
0.005670 -0.143376 
0.005097 -0.087703 
0.005586 -0.107611 
0.017130 -0.107994 
0.011264 -0.107749 
0.015796 -0.088065 
0.009758 -0.045049 
0.013345 -0.066974 
0.008665 -0.066821 
0.026822 -0.034190 
0.030963 -0.050184 
0.041887 -0.092478 
0.038343 -0.072512 
0.045741 -0.076833 
0.030921 -0.069620 
0.027999 -0.089303 
0.036523 -0.154816 
0.039669 -0.141555 
0.044791 -0.139150 
0.028567 -0.143260 
0.034223 -0.142753 
0.026586 -0.157799 
0.048965 -0.110592 
0.041887 -0.126802 
0.042806 -0.110490 
0.011344 -0.143396 
0.005354 -0.158872 
0.023255 -0.108395 
0.017488 -0.126507 
0.016045 -0.158653 
0.017061 -0.143429 
0.022817 -0.143419 
0.036252 -0.109761 
0.029707 -0.126991 
0.029657 -0.108992 
0.036940 -0.162938 
0.032818 -0.166629 
0.024458 -0.185854 
0.028748 -0.176987 
0.027511 -0.181623 
0.028515 -0.169070 
0.024018 -0.170616 
0.011488 -0.203188 
0.008154 -0.201644 
0.014849 -0.198859 
0.013770 -0.202346 
0.017635 -0.194655 
0.015726 -0.198989 
0.020081 -0.193199 
0.009755 -0.172433 
0.019363 -0.171559 
0.014595 -0.172115 
0.012890 -0.183787 
0.014589 -0.192654 
0.021304 -0.188946 
0.018015 -0.191142 
0.021112 -0.181728 
0.003785 -0.204705 
0.005546 -0.206401 
0.005743 -0.204454 
0.005096 -0.209830 
0.005331 -0.208201 
0.003615 -0.208443 
0.008932 -0.206474 
0.007100 -0.207545 
0.008401 -0.208082 
0.003878 -0.214605 
0.004232 -0.213658 
0.003142 -0.213940 
0.006635 -0.211821 
0.005400 -0.212952 
0.005986 -0.212737 
0.003433 -0.211535 
0.004551 -0.212553 
0.004838 -0.211279 
0.012044 -0.203050 
0.010640 -0.205883 
0.010786 -0.203864 
0.009433 -0.207990 
0.010184 -0.207258 
0.011074 -0.206057 
0.008315 -0.209162 
0.009264 -0.208288 
0.007926 -0.210267 
0.006309 -0.210601 
0.007254 -0.210747 
0.007842 -0.209504 
0.000000 -0.217617 
0.000542 -0.217626 
0.000454 -0.217988 
0.000786 -0.215652 
0.000657 -0.216853 
0.000000 -0.215678 
0.001317 -0.217690 
0.001085 -0.217530 
0.001615 -0.217330 
0.001383 -0.206414 
0.001227 -0.209400 
0.000000 -0.206447 
0.002772 -0.213710 
0.002147 -0.211823 
0.003213 -0.211632 
0.000000 -0.211964 
0.001074 -0.211932 
0.000927 -0.214014 
0.002692 -0.215716 
0.003066 -0.216068 
0.003489 -0.215405 
0.002125 -0.217022 
0.002610 -0.216604 
0.002076 -0.216943 
0.003873 -0.214654 
0.003214 -0.215843 
0.003122 -0.215054 
0.001573 -0.215545 
0.002354 -0.215348 
0.001965 -0.216552 
0.002554 -0.166023 
0.002434 -0.172669 
0.000000 -0.166076 
0.006481 -0.184427 
0.004608 -0.178803 
0.006912 -0.178709 
0.000000 -0.178892 
0.002303 -0.178864 
0.002161 -0.184604 
0.010607 -0.201206 
0.010092 -0.197916 
0.011720 -0.197430 
0.006774 -0.198603 
0.008442 -0.198303 
0.007647 -0.202144 
0.010011 -0.189262 
0.009233 -0.194010 
0.008027 -0.189505 
0.000000 -0.199101 
0.001701 -0.199070 
0.001542 -0.202971 
0.002012 -0.189886 
0.001858 -0.194708 
0.000000 -0.189914 
0.004615 -0.202708 
0.003399 -0.198979 
0.005091 -0.198826 
0.006030 -0.189685 
0.005565 -0.194485 
0.004023 -0.189811 
0.004366 -0.214669 
0.004576 -0.213034 
0.004603 -0.214142 
0.005308 -0.213506 
0.006302 -0.211915 
0.002765 -0.206311 
0.005505 -0.205879 
0.004140 -0.206135 
0.003671 -0.209109 
0.004270 -0.211353 
0.009500 -0.204540 
0.007338 -0.209892 
0.008407 -0.207435 
0.008189 -0.205092 
0.006856 -0.205535 
0.005313 -0.210976 
0.006075 -0.208478 
0.006337 -0.210493 
-0.000454 -0.217988 
-0.000542 -0.217626 
-0.001615 -0.217330 
-0.001085 -0.217530 
-0.001317 -0.217690 
-0.000657 -0.216853 
-0.000786 -0.215652 
-0.003489 -0.215405 
-0.003066 -0.216068 
-0.002692 -0.215716 
-0.003122 -0.215054 
-0.003214 -0.215843 
-0.003873 -0.214654 
-0.002076 -0.216943 
-0.002610 -0.216604 
-0.002125 -0.217022 
-0.001227 -0.209400 
-0.001383 -0.206414 
-0.000927 -0.214014 
-0.001074 -0.211932 
-0.003213 -0.211632 
-0.002147 -0.211823 
-0.002772 -0.213710 
-0.001965 -0.216552 
-0.002354 -0.215348 
-0.001573 -0.215545 
-0.005743 -0.204454 
-0.005546 -0.206401 
-0.003785 -0.204705 
-0.008401 -0.208082 
-0.007100 -0.207545 
-0.008932 -0.206474 
-0.003615 -0.208443 
-0.005331 -0.208201 
-0.005096 -0.209830 
-0.010786 -0.203864 
-0.010640 -0.205883 
-0.012044 -0.203050 
-0.007926 -0.210267 
-0.009264 -0.208288 
-0.008315 -0.209162 
-0.011074 -0.206057 
-0.010184 -0.207258 
-0.009433 -0.207990 
-0.003142 -0.213940 
-0.004232 -0.213658 
-0.003878 -0.214605 
-0.004838 -0.211279 
-0.004551 -0.212553 
-0.003433 -0.211535 
-0.005986 -0.212737 
-0.005400 -0.212952 
-0.006635 -0.211821 
-0.007842 -0.209504 
-0.007254 -0.210747 
-0.006309 -0.210601 
-0.002434 -0.172669 
-0.002554 -0.166023 
-0.002161 -0.184604 
-0.002303 -0.178864 
-0.006912 -0.178709 
-0.004608 -0.178803 
-0.006481 -0.184427 
-0.001542 -0.202971 
-0.001701 -0.199070 
-0.005091 -0.198826 
-0.003399 -0.198979 
-0.004615 -0.202708 
-0.001858 -0.194708 
-0.002012 -0.189886 
-0.011720 -0.197430 
-0.010092 -0.197916 
-0.010607 -0.201206 
-0.008027 -0.189505 
-0.009233 -0.194010 
-0.010011 -0.189262 
-0.007647 -0.202144 
-0.008442 -0.198303 
-0.006774 -0.198603 
-0.004023 -0.189811 
-0.005565 -0.194485 
-0.006030 -0.189685 
-0.004366 -0.214669 
-0.006302 -0.211915 
-0.005308 -0.213506 
-0.004603 -0.214142 
-0.004576 -0.213034 
-0.009500 -0.204540 
-0.006856 -0.205535 
-0.008189 -0.205092 
-0.008407 -0.207435 
-0.007338 -0.209892 
-0.002765 -0.206311 
-0.004270 -0.211353 
-0.003671 -0.209109 
-0.004140 -0.206135 
-0.005505 -0.205879 
-0.006337 -0.210493 
-0.006075 -0.208478 
-0.005313 -0.210976 
-0.005943 -0.202398 
-0.007800 -0.203781 
-0.012141 -0.201175 
-0.009940 -0.202684 
-0.010447 -0.200486 
-0.009441 -0.204676 
-0.010825 -0.204987 
-0.021330 -0.191181 
-0.018998 -0.194259 
-0.020096 -0.191947 
-0.016776 -0.198066 
-0.017894 -0.196290 
-0.018814 -0.194950 
-0.015200 -0.196984 
-0.016681 -0.196955 
-0.014392 -0.199262 
-0.013271 -0.202082 
-0.013465 -0.199788 
-0.011935 -0.204672 
-0.012756 -0.203708 
-0.016201 -0.197757 
-0.014469 -0.200941 
-0.015636 -0.199609 
-0.013587 -0.201290 
-0.014758 -0.200780 
-0.012771 -0.203088 
-0.038846 -0.153401 
-0.036930 -0.159348 
-0.039092 -0.157413 
-0.032464 -0.162133 
-0.034724 -0.160902 
-0.034128 -0.155901 
-0.034684 -0.168122 
-0.034898 -0.164962 
-0.032768 -0.170230 
-0.022897 -0.164857 
-0.025355 -0.164421 
-0.023984 -0.158131 
-0.026797 -0.174641 
-0.026289 -0.169934 
-0.024719 -0.175607 
-0.029150 -0.157343 
-0.027774 -0.163847 
-0.030145 -0.163098 
-0.025046 -0.185425 
-0.025994 -0.183897 
-0.023667 -0.187725 
-0.030562 -0.175145 
-0.028298 -0.179703 
-0.029950 -0.177469 
-0.024916 -0.183223 
-0.026622 -0.181609 
-0.026899 -0.178530 
-0.030691 -0.167983 
-0.028830 -0.173449 
-0.030819 -0.171993 
-0.005125 -0.165966 
-0.002679 -0.158921 
-0.009210 -0.178579 
-0.007319 -0.172535 
-0.008029 -0.158833 
-0.007693 -0.165907 
-0.010257 -0.165834 
-0.013322 -0.196828 
-0.012828 -0.193210 
-0.014989 -0.183434 
-0.013922 -0.188545 
-0.015839 -0.188041 
-0.011978 -0.188947 
-0.010769 -0.184061 
-0.018706 -0.158537 
-0.017893 -0.165427 
-0.020408 -0.165184 
-0.012813 -0.165738 
-0.015360 -0.165606 
-0.013376 -0.158734 
-0.018242 -0.177494 
-0.016990 -0.171875 
-0.016016 -0.177877 
-0.011496 -0.178405 
-0.013766 -0.178176 
-0.012181 -0.172296 
-0.022273 -0.189718 
-0.023174 -0.184580 
-0.022897 -0.187526 
-0.020858 -0.191436 
-0.019416 -0.192907 
-0.021708 -0.171147 
-0.019104 -0.182426 
-0.020437 -0.177004 
-0.022597 -0.176384 
-0.023081 -0.180866 
-0.014894 -0.196096 
-0.017941 -0.194157 
-0.016434 -0.195212 
-0.016318 -0.191972 
-0.017726 -0.187415 
-0.021396 -0.185711 
-0.019579 -0.186647 
-0.019678 -0.190142 
-0.043056 -0.145514 
-0.040665 -0.147141 
-0.043654 -0.133600 
-0.042276 -0.140541 
-0.046291 -0.132471 
-0.038193 -0.148370 
-0.035648 -0.149282 
-0.045916 -0.102294 
-0.045958 -0.110675 
-0.049056 -0.102678 
-0.038918 -0.127042 
-0.042538 -0.118847 
-0.039428 -0.118813 
-0.048430 -0.118191 
-0.045549 -0.118676 
-0.044762 -0.126314 
-0.027663 -0.150746 
-0.024923 -0.150968 
-0.033037 -0.149945 
-0.030371 -0.150417 
-0.032239 -0.135291 
-0.031414 -0.143068 
-0.035186 -0.135145 
-0.040914 -0.134367 
-0.038085 -0.134857 
-0.036980 -0.142268 
-0.011577 -0.013787 
-0.021909 -0.028208 
-0.016948 -0.019751 
-0.027142 -0.048171 
-0.025281 -0.038001 
-0.021717 -0.036120 
-0.033925 -0.046372 
-0.029491 -0.041263 
-0.035090 -0.053182 
-0.024763 -0.088851 
-0.026422 -0.078862 
-0.023268 -0.078393 
-0.033231 -0.080348 
-0.029746 -0.079500 
-0.031360 -0.089886 
-0.024508 -0.057556 
-0.027485 -0.068708 
-0.027791 -0.058450 
-0.047556 -0.085834 
-0.044121 -0.084272 
-0.045339 -0.093506 
-0.039196 -0.064214 
-0.042130 -0.074536 
-0.043017 -0.067357 
-0.038355 -0.091489 
-0.040506 -0.082762 
-0.036841 -0.081436 
-0.031381 -0.059779 
-0.034563 -0.070871 
-0.035231 -0.061674 
-0.005540 -0.151337 
-0.002780 -0.151365 
-0.011068 -0.151307 
-0.008301 -0.151321 
-0.008623 -0.135029 
-0.008503 -0.143382 
-0.011516 -0.135067 
-0.022162 -0.151113 
-0.019391 -0.151204 
-0.020315 -0.135236 
-0.019936 -0.143434 
-0.023289 -0.135293 
-0.016615 -0.151258 
-0.013839 -0.151289 
-0.019571 -0.098383 
-0.020157 -0.108172 
-0.022637 -0.098633 
-0.014513 -0.126412 
-0.017420 -0.117440 
-0.014433 -0.117318 
-0.023544 -0.117770 
-0.020456 -0.117590 
-0.020499 -0.126617 
-0.014196 -0.143413 
-0.017360 -0.135175 
-0.014427 -0.135117 
-0.042618 -0.101709 
-0.035802 -0.100417 
-0.039226 -0.101055 
-0.039555 -0.110156 
-0.036256 -0.118658 
-0.025800 -0.098952 
-0.026680 -0.117978 
-0.026424 -0.108668 
-0.029058 -0.099353 
-0.032400 -0.099843 
-0.025698 -0.143368 
-0.032802 -0.127083 
-0.029262 -0.135342 
-0.026274 -0.135335 
-0.026615 -0.126869 
-0.032942 -0.109362 
-0.029855 -0.118206 
-0.033055 -0.118441 
0.000000 0.000000 
-0.009171 -0.012283 
-0.006582 -0.011473 
-0.007676 -0.011720 
0.000000 0.000000 
-0.015124 -0.023851 
-0.018785 -0.035088 
-0.003708 -0.011307 
-0.004301 -0.011302 
0.000000 0.000000 
-0.012306 -0.034029 
-0.008445 -0.022655 
-0.010604 -0.033939 
0.000000 0.000000 
-0.004958 -0.011315 
-0.005704 -0.011361 
-0.021280 -0.067620 
-0.020276 -0.078055 
-0.020780 -0.046120 
-0.021518 -0.056968 
-0.016256 -0.056344 
-0.018781 -0.056587 
-0.015777 -0.045364 
-0.011231 -0.022888 
-0.014191 -0.034201 
-0.016320 -0.034518 
0.000000 -0.011386 
-0.000417 -0.011389 
0.000000 0.000000 
-0.001195 -0.033901 
-0.000818 -0.022694 
0.000000 -0.033890 
0.000000 0.000000 
-0.000840 -0.011386 
-0.001270 -0.011379 
-0.002354 -0.077309 
-0.002124 -0.066724 
0.000000 -0.077283 
-0.004681 -0.045005 
-0.003721 -0.055958 
-0.005621 -0.055975 
0.000000 -0.055923 
-0.001852 -0.055942 
-0.001541 -0.044992 
0.000000 0.000000 
-0.002653 -0.011336 
-0.003162 -0.011320 
-0.001713 -0.011367 
-0.002172 -0.011352 
0.000000 0.000000 
-0.006207 -0.033885 
-0.004254 -0.022653 
-0.004895 -0.033892 
-0.002402 -0.033903 
-0.003631 -0.033899 
-0.002488 -0.022683 
-0.002840 -0.143378 
0.000000 -0.151400 
-0.008654 -0.126278 
-0.005745 -0.135002 
0.000000 -0.134975 
-0.002873 -0.134985 
-0.002878 -0.126206 
-0.018670 -0.088253 
-0.016596 -0.098192 
-0.010878 -0.097940 
-0.013702 -0.098048 
-0.013018 -0.087927 
-0.014169 -0.107855 
-0.011491 -0.117223 
0.000000 -0.097735 
-0.002685 -0.097763 
-0.002541 -0.087666 
-0.002850 -0.117060 
-0.002787 -0.107570 
0.000000 -0.117036 
-0.007685 -0.087755 
-0.005383 -0.097804 
-0.008109 -0.097861 
-0.008586 -0.117150 
-0.008407 -0.107669 
-0.005709 -0.117097 
-0.006198 -0.022626 
-0.007994 -0.045023 
-0.007582 -0.033884 
-0.009040 -0.033898 
-0.011624 -0.045101 
-0.004725 -0.077341 
-0.009583 -0.077443 
-0.007129 -0.077384 
-0.006440 -0.066779 
-0.007570 -0.055999 
-0.017432 -0.077815 
-0.013902 -0.056189 
-0.015843 -0.067111 
-0.014715 -0.077645 
-0.012105 -0.077526 
-0.009586 -0.056035 
-0.010960 -0.066882 
-0.011688 -0.056094 
0.000000 0.000000 
0.000417 -0.011389 
0.001270 -0.011379 
0.000840 -0.011386 
0.000000 0.000000 
0.000818 -0.022694 
0.001195 -0.033901 
0.003162 -0.011320 
0.002653 -0.011336 
0.000000 0.000000 
0.004895 -0.033892 
0.004254 -0.022653 
0.006207 -0.033885 
0.000000 0.000000 
0.002172 -0.011352 
0.001713 -0.011367 
0.002124 -0.066724 
0.002354 -0.077309 
0.001541 -0.044992 
0.001852 -0.055942 
0.005621 -0.055975 
0.003721 -0.055958 
0.004681 -0.045005 
0.002488 -0.022683 
0.003631 -0.033899 
0.002402 -0.033903 
0.011577 -0.013787 
0.009171 -0.012283 
0.000000 0.000000 
0.018785 -0.035088 
0.015124 -0.023851 
0.021717 -0.036120 
0.000000 0.000000 
0.007676 -0.011720 
0.006582 -0.011473 
0.020276 -0.078055 
0.021280 -0.067620 
0.023268 -0.078393 
0.015777 -0.045364 
0.018781 -0.056587 
0.016256 -0.056344 
0.024508 -0.057556 
0.021518 -0.056968 
0.020780 -0.046120 
0.000000 0.000000 
0.004301 -0.011302 
0.003708 -0.011307 
0.005704 -0.011361 
0.004958 -0.011315 
0.000000 0.000000 
0.010604 -0.033939 
0.008445 -0.022655 
0.012306 -0.034029 
0.016320 -0.034518 
0.014191 -0.034201 
0.011231 -0.022888 
0.002840 -0.143378 
0.002780 -0.151365 
0.002878 -0.126206 
0.002873 -0.134985 
0.008623 -0.135029 
0.005745 -0.135002 
0.008654 -0.126278 
0.002541 -0.087666 
0.002685 -0.097763 
0.008109 -0.097861 
0.005383 -0.097804 
0.007685 -0.087755 
0.002787 -0.107570 
0.002850 -0.117060 
0.019571 -0.098383 
0.016596 -0.098192 
0.018670 -0.088253 
0.011491 -0.117223 
0.014169 -0.107855 
0.014433 -0.117318 
0.013018 -0.087927 
0.013702 -0.098048 
0.010878 -0.097940 
0.005709 -0.117097 
0.008407 -0.107669 
0.008586 -0.117150 
0.006198 -0.022626 
0.011624 -0.045101 
0.009040 -0.033898 
0.007582 -0.033884 
0.007994 -0.045023 
0.017432 -0.077815 
0.012105 -0.077526 
0.014715 -0.077645 
0.015843 -0.067111 
0.013902 -0.056189 
0.004725 -0.077341 
0.007570 -0.055999 
0.006440 -0.066779 
0.007129 -0.077384 
0.009583 -0.077443 
0.011688 -0.056094 
0.010960 -0.066882 
0.009586 -0.056035 
0.016948 -0.019751 
0.021909 -0.028208 
0.035090 -0.053182 
0.029491 -0.041263 
0.033925 -0.046372 
0.025281 -0.038001 
0.027142 -0.048171 
0.045339 -0.093506 
0.044121 -0.084272 
0.047556 -0.085834 
0.036841 -0.081436 
0.040506 -0.082762 
0.038355 -0.091489 
0.043017 -0.067357 
0.042130 -0.074536 
0.039196 -0.064214 
0.026422 -0.078862 
0.024763 -0.088851 
0.027791 -0.058450 
0.027485 -0.068708 
0.031360 -0.089886 
0.029746 -0.079500 
0.033231 -0.080348 
0.035231 -0.061674 
0.034563 -0.070871 
0.031381 -0.059779 
0.038846 -0.153401 
0.040665 -0.147141 
0.043056 -0.145514 
0.035648 -0.149282 
0.038193 -0.148370 
0.034128 -0.155901 
0.046291 -0.132471 
0.042276 -0.140541 
0.043654 -0.133600 
0.024923 -0.150968 
0.027663 -0.150746 
0.023984 -0.158131 
0.035186 -0.135145 
0.031414 -0.143068 
0.032239 -0.135291 
0.029150 -0.157343 
0.030371 -0.150417 
0.033037 -0.149945 
0.049056 -0.102678 
0.045958 -0.110675 
0.045916 -0.102294 
0.044762 -0.126314 
0.045549 -0.118676 
0.048430 -0.118191 
0.039428 -0.118813 
0.042538 -0.118847 
0.038918 -0.127042 
0.036980 -0.142268 
0.038085 -0.134857 
0.040914 -0.134367 
0.005540 -0.151337 
0.002679 -0.158921 
0.011516 -0.135067 
0.008503 -0.143382 
0.008029 -0.158833 
0.008301 -0.151321 
0.011068 -0.151307 
0.022637 -0.098633 
0.020157 -0.108172 
0.020499 -0.126617 
0.020456 -0.117590 
0.023544 -0.117770 
0.017420 -0.117440 
0.014513 -0.126412 
0.018706 -0.158537 
0.019391 -0.151204 
0.022162 -0.151113 
0.013839 -0.151289 
0.016615 -0.151258 
0.013376 -0.158734 