# vtk DataFile Version 2.0
Unstructured Grid Example
ASCII
DATASET UNSTRUCTURED_GRID

POINTS 25 float
0.014663 -0.210984 0.000000 
0.985337 -0.210984 0.000000 
1.000000 1.000000 0.000000 
0.000000 1.000000 0.000000 
0.500000 -0.207587 0.000000 
0.963353 0.351555 0.000000 
0.500000 1.000000 0.000000 
0.036647 0.351555 0.000000 
0.500000 0.342527 0.000000 
0.257763 -0.211240 0.000000 
0.500000 0.054379 0.000000 
0.260931 0.053859 0.000000 
0.742237 -0.211240 0.000000 
0.739069 0.053859 0.000000 
0.976884 0.058510 0.000000 
0.731071 0.345604 0.000000 
0.956906 0.657873 0.000000 
0.731648 0.664459 0.000000 
0.750000 1.000000 0.000000 
0.500000 0.665446 0.000000 
0.250000 1.000000 0.000000 
0.268352 0.664459 0.000000 
0.043094 0.657873 0.000000 
0.268929 0.345604 0.000000 
0.023116 0.058510 0.000000 

CELLS 32 128
3  0 9 11 
3  4 10 9 
3  8 11 10 
3  9 10 11 
3  4 12 10 
3  1 13 12 
3  8 10 13 
3  12 13 10 
3  1 14 13 
3  5 15 14 
3  8 13 15 
3  14 15 13 
3  5 16 15 
3  2 17 16 
3  8 15 17 
3  16 17 15 
3  2 18 17 
3  6 19 18 
3  8 17 19 
3  18 19 17 
3  6 20 19 
3  3 21 20 
3  8 19 21 
3  20 21 19 
3  3 22 21 
3  7 23 22 
3  8 21 23 
3  22 23 21 
3  7 24 23 
3  0 11 24 
3  8 23 11 
3  24 11 23 

CELL_TYPES 32
5
5
5
5
5
5
5
5
5
5
5
5
5
5
5
5
5
5
5
5
5
5
5
5
5
5
5
5
5
5
5
5

POINT_DATA 25

SCALARS u_h float 2
LOOKUP_TABLE default
0.014663 -0.210984 
-0.014663 -0.210984 
0.000000 0.000000 
0.000000 0.000000 
-0.000000 -0.207587 
-0.036647 -0.148445 
0.000000 0.000000 
0.036647 -0.148445 
-0.000000 -0.157473 
0.007763 -0.211240 
-0.000000 -0.195621 
0.010931 -0.196141 
-0.007763 -0.211240 
-0.010931 -0.196141 
-0.023116 -0.191490 
-0.018929 -0.154396 
-0.043094 -0.092127 
-0.018352 -0.085541 
0.000000 0.000000 
-0.000000 -0.084554 
0.000000 0.000000 
0.018352 -0.085541 
0.043094 -0.092127 
0.018929 -0.154396 
0.023116 -0.191490 

CELL_DATA 32

SCALARS epsilon float 4
LOOKUP_TABLE default
-0.027892 0.058591 0.000000 0.006010
-0.031535 0.046827 0.000000 0.006965
-0.044677 0.141156 0.000000 0.000902
-0.044624 0.058554 0.000000 0.007583
-0.031535 0.046827 0.000000 -0.006965
-0.027892 0.058591 0.000000 -0.006010
-0.044677 0.141156 0.000000 -0.000902
-0.044624 0.058554 0.000000 -0.007583
-0.048771 0.075727 0.000000 -0.009069
-0.070964 0.159070 0.000000 -0.018393
-0.077760 0.153748 0.000000 -0.011713
-0.048977 0.153991 0.000000 -0.008517
-0.072579 0.201497 0.000000 -0.003748
-0.090474 0.309164 0.000000 0.079063
-0.078584 0.239292 0.000000 0.005982
-0.103752 0.239574 0.000000 -0.008982
0.001496 0.287430 0.000000 0.034318
0.000000 0.284675 0.000000 0.000000
-0.076084 0.251311 0.000000 -0.001518
-0.074112 0.287653 0.000000 0.035572
0.000000 0.284675 0.000000 0.000000
0.001496 0.287430 0.000000 -0.034318
-0.076084 0.251311 0.000000 0.001518
-0.074112 0.287653 0.000000 -0.035572
-0.090474 0.309164 0.000000 -0.079063
-0.072579 0.201497 0.000000 0.003748
-0.078584 0.239292 0.000000 -0.005982
-0.103752 0.239574 0.000000 0.008982
-0.070964 0.159070 0.000000 0.018393
-0.048771 0.075727 0.000000 0.009069
-0.077760 0.153748 0.000000 0.011713
-0.048977 0.153991 0.000000 0.008517

SCALARS sigma float 4
LOOKUP_TABLE default
-0.179296 1.220245 0.285975 0.092601
-0.389272 0.885474 0.136319 0.118009
0.116848 3.037886 0.866685 0.015496
-0.638461 1.045495 0.111823 0.119300
-0.389272 0.885474 0.136319 -0.118009
-0.179296 1.220245 0.285975 -0.092601
0.116848 3.037886 0.866685 -0.015496
-0.638461 1.045495 0.111823 -0.119300
-0.606635 1.418757 0.223111 -0.121510
-0.501282 3.154338 0.728862 -0.228025
-0.718171 2.970563 0.618789 -0.149600
0.097644 3.282898 0.928720 -0.098819
-0.155529 4.108417 1.085958 -0.014281
-0.072675 6.122008 1.661905 0.967566
-0.004031 4.881016 1.339831 0.101655
-0.738339 4.604233 1.062059 -0.171492
2.549345 6.730272 2.549345 0.448482
2.527369 6.672253 2.527369 0.000000
0.166638 5.169182 1.465884 -0.027044
0.466247 5.945144 1.761371 0.457879
2.527369 6.672253 2.527369 0.000000
2.549345 6.730272 2.549345 -0.448482
0.166638 5.169182 1.465884 0.027044
0.466247 5.945144 1.761371 -0.457879
-0.072675 6.122008 1.661905 -0.967566
-0.155529 4.108417 1.085958 0.014281
-0.004031 4.881016 1.339831 -0.101655
-0.738339 4.604233 1.062059 0.171492
-0.501282 3.154338 0.728862 0.228025
-0.606635 1.418757 0.223111 0.121510
-0.718171 2.970563 0.618789 0.149600
0.097644 3.282898 0.928720 0.098819

