# vtk DataFile Version 2.0
Unstructured Grid Example
ASCII
DATASET UNSTRUCTURED_GRID

POINTS 16641 float
0.003259 -0.202263 0.000000 
0.996741 -0.202263 0.000000 
1.000000 1.000000 0.000000 
0.000000 1.000000 0.000000 
0.500000 -0.218405 0.000000 
0.958716 0.348209 0.000000 
0.500000 1.000000 0.000000 
0.041284 0.348209 0.000000 
0.500000 0.340947 0.000000 
0.252774 -0.215097 0.000000 
0.500000 0.046718 0.000000 
0.262090 0.049226 0.000000 
0.747226 -0.215097 0.000000 
0.737910 0.049226 0.000000 
0.977424 0.061150 0.000000 
0.728572 0.341450 0.000000 
0.951112 0.655536 0.000000 
0.728180 0.661344 0.000000 
0.750000 1.000000 0.000000 
0.500000 0.662212 0.000000 
0.250000 1.000000 0.000000 
0.271820 0.661344 0.000000 
0.048888 0.655536 0.000000 
0.271428 0.341450 0.000000 
0.022576 0.061150 0.000000 
0.128211 -0.210137 0.000000 
0.257074 -0.086378 0.000000 
0.135063 -0.081671 0.000000 
0.500000 -0.089395 0.000000 
0.378665 -0.088712 0.000000 
0.376631 -0.217652 0.000000 
0.383684 0.190514 0.000000 
0.381168 0.047271 0.000000 
0.500000 0.190177 0.000000 
0.623369 -0.217652 0.000000 
0.621335 -0.088712 0.000000 
0.864937 -0.081671 0.000000 
0.742926 -0.086378 0.000000 
0.871789 -0.210137 0.000000 
0.618832 0.047271 0.000000 
0.616316 0.190514 0.000000 
0.987311 -0.073771 0.000000 
0.857440 0.053428 0.000000 
0.843224 0.343112 0.000000 
0.849892 0.195041 0.000000 
0.967580 0.201958 0.000000 
0.732855 0.191814 0.000000 
0.614263 0.341030 0.000000 
0.952327 0.499440 0.000000 
0.838991 0.497716 0.000000 
0.850865 0.827933 0.000000 
0.839940 0.659203 0.000000 
0.960305 0.817500 0.000000 
0.726353 0.498091 0.000000 
0.613382 0.498510 0.000000 
0.875000 1.000000 0.000000 
0.736217 0.829725 0.000000 
0.500000 0.829941 0.000000 
0.618629 0.829935 0.000000 
0.625000 1.000000 0.000000 
0.614604 0.662055 0.000000 
0.500000 0.498653 0.000000 
0.375000 1.000000 0.000000 
0.381371 0.829935 0.000000 
0.149135 0.827933 0.000000 
0.263783 0.829725 0.000000 
0.125000 1.000000 0.000000 
0.385396 0.662055 0.000000 
0.386618 0.498510 0.000000 
0.039695 0.817500 0.000000 
0.160060 0.659203 0.000000 
0.156776 0.343112 0.000000 
0.161009 0.497716 0.000000 
0.047673 0.499440 0.000000 
0.273647 0.498091 0.000000 
0.385737 0.341030 0.000000 
0.032420 0.201958 0.000000 
0.150108 0.195041 0.000000 
0.142560 0.053428 0.000000 
0.012689 -0.073771 0.000000 
0.267145 0.191814 0.000000 
0.065737 -0.206556 0.000000 
0.131531 -0.146747 0.000000 
0.069744 -0.143196 0.000000 
0.254784 -0.151593 0.000000 
0.193218 -0.149520 0.000000 
0.190577 -0.212963 0.000000 
0.199208 -0.017545 0.000000 
0.196125 -0.084377 0.000000 
0.259537 -0.019443 0.000000 
0.500000 -0.154763 0.000000 
0.438798 -0.154588 0.000000 
0.438350 -0.218232 0.000000 
0.439960 -0.022095 0.000000 
0.439349 -0.089229 0.000000 
0.500000 -0.022248 0.000000 
0.314787 -0.216631 0.000000 
0.377553 -0.154040 0.000000 
0.316224 -0.153068 0.000000 
0.442411 0.264715 0.000000 
0.441855 0.190257 0.000000 
0.500000 0.264666 0.000000 
0.321674 0.048032 0.000000 
0.382450 0.117979 0.000000 
0.323600 0.118616 0.000000 
0.500000 0.117524 0.000000 
0.441240 0.117633 0.000000 
0.440599 0.046851 0.000000 
0.317915 -0.087789 0.000000 
0.379889 -0.021619 0.000000 
0.319757 -0.020764 0.000000 
0.561650 -0.218232 0.000000 
0.561202 -0.154588 0.000000 
0.683776 -0.153068 0.000000 
0.622447 -0.154040 0.000000 
0.685213 -0.216631 0.000000 
0.560651 -0.089229 0.000000 
0.560040 -0.022095 0.000000 
0.930256 -0.143196 0.000000 
0.868469 -0.146747 0.000000 
0.934263 -0.206556 0.000000 
0.740463 -0.019443 0.000000 
0.803875 -0.084377 0.000000 
0.800792 -0.017545 0.000000 
0.809423 -0.212963 0.000000 
0.806782 -0.149520 0.000000 
0.745216 -0.151593 0.000000 
0.558145 0.190257 0.000000 
0.557589 0.264715 0.000000 
0.559401 0.046851 0.000000 
0.558760 0.117633 0.000000 
0.676400 0.118616 0.000000 
0.617550 0.117979 0.000000 
0.678326 0.048032 0.000000 
0.682085 -0.087789 0.000000 
0.680243 -0.020764 0.000000 
0.620111 -0.021619 0.000000 
0.992094 -0.138858 0.000000 
0.926098 -0.078161 0.000000 
0.917392 0.056757 0.000000 
0.921791 -0.011497 0.000000 
0.982404 -0.007077 0.000000 
0.861239 -0.014941 0.000000 
0.797610 0.050974 0.000000 
0.900840 0.345023 0.000000 
0.904560 0.270722 0.000000 
0.962947 0.274427 0.000000 
0.788380 0.266707 0.000000 
0.846371 0.268269 0.000000 
0.785824 0.342028 0.000000 
0.972448 0.130848 0.000000 
0.908660 0.197896 0.000000 
0.912981 0.126565 0.000000 
0.615194 0.264872 0.000000 
0.557132 0.340976 0.000000 
0.735344 0.119641 0.000000 
0.674541 0.191000 0.000000 
0.671401 0.341162 0.000000 
0.672837 0.265186 0.000000 
0.730552 0.265750 0.000000 
0.853624 0.123425 0.000000 
0.791295 0.193096 0.000000 
0.794412 0.121186 0.000000 
0.955075 0.423214 0.000000 
0.897716 0.420793 0.000000 
0.894515 0.576863 0.000000 
0.895479 0.498052 0.000000 
0.950836 0.576867 0.000000 
0.840668 0.419583 0.000000 
0.783833 0.419068 0.000000 
0.918970 0.912069 0.000000 
0.906046 0.824580 0.000000 
0.972530 0.902486 0.000000 
0.784295 0.660528 0.000000 
0.843764 0.742695 0.000000 
0.787974 0.744281 0.000000 
0.953886 0.735604 0.000000 
0.898804 0.739789 0.000000 
0.895362 0.657357 0.000000 
0.613621 0.418938 0.000000 
0.556823 0.418976 0.000000 
0.727098 0.418906 0.000000 
0.670376 0.418898 0.000000 
0.670269 0.579358 0.000000 
0.669933 0.498332 0.000000 
0.726612 0.578944 0.000000 
0.838576 0.577564 0.000000 
0.782686 0.578336 0.000000 
0.782673 0.497837 0.000000 
0.937500 1.000000 0.000000 
0.861732 0.914210 0.000000 
0.742631 0.914843 0.000000 
0.802592 0.914729 0.000000 
0.812500 1.000000 0.000000 
0.794101 0.829240 0.000000 
0.731337 0.745062 0.000000 
0.500000 0.914773 0.000000 
0.560837 0.914782 0.000000 
0.562500 1.000000 0.000000 
0.558197 0.745659 0.000000 
0.559372 0.829941 0.000000 
0.500000 0.745679 0.000000 
0.687500 1.000000 0.000000 
0.621610 0.914809 0.000000 
0.682243 0.914840 0.000000 
0.556721 0.498616 0.000000 
0.500000 0.418990 0.000000 
0.671584 0.661807 0.000000 
0.613671 0.579613 0.000000 
0.500000 0.579792 0.000000 
0.556884 0.579748 0.000000 
0.557366 0.662175 0.000000 
0.677637 0.829891 0.000000 
0.616257 0.745591 0.000000 
0.674030 0.745428 0.000000 
0.437500 1.000000 0.000000 
0.439163 0.914782 0.000000 
0.317757 0.914840 0.000000 
0.378390 0.914809 0.000000 
0.312500 1.000000 0.000000 
0.440628 0.829941 0.000000 
0.441803 0.745659 0.000000 
0.081030 0.912069 0.000000 
0.138268 0.914210 0.000000 
0.062500 1.000000 0.000000 
0.268663 0.745062 0.000000 
0.205899 0.829240 0.000000 
0.212026 0.744281 0.000000 
0.187500 1.000000 0.000000 
0.197408 0.914729 0.000000 
0.257369 0.914843 0.000000 
0.443279 0.498616 0.000000 
0.443177 0.418976 0.000000 
0.442634 0.662175 0.000000 
0.443116 0.579748 0.000000 
0.329731 0.579358 0.000000 
0.386329 0.579613 0.000000 
0.328416 0.661807 0.000000 
0.322363 0.829891 0.000000 
0.325970 0.745428 0.000000 
0.383743 0.745591 0.000000 
0.027470 0.902486 0.000000 
0.093954 0.824580 0.000000 
0.104638 0.657357 0.000000 
0.101196 0.739789 0.000000 
0.046114 0.735604 0.000000 
0.156236 0.742695 0.000000 
0.215705 0.660528 0.000000 
0.099160 0.345023 0.000000 
0.102284 0.420793 0.000000 
0.044925 0.423214 0.000000 
0.216167 0.419068 0.000000 
0.159332 0.419583 0.000000 
0.214176 0.342028 0.000000 
0.049164 0.576867 0.000000 
0.104521 0.498052 0.000000 
0.105485 0.576863 0.000000 
0.386379 0.418938 0.000000 
0.442868 0.340976 0.000000 
0.273388 0.578944 0.000000 
0.330067 0.498332 0.000000 
0.328599 0.341162 0.000000 
0.329624 0.418898 0.000000 
0.272902 0.418906 0.000000 
0.161424 0.577564 0.000000 
0.217327 0.497837 0.000000 
0.217314 0.578336 0.000000 
0.037053 0.274427 0.000000 
0.095440 0.270722 0.000000 
0.087019 0.126565 0.000000 
0.091340 0.197896 0.000000 
0.027552 0.130848 0.000000 
0.153629 0.268269 0.000000 
0.211620 0.266707 0.000000 
0.073902 -0.078161 0.000000 
0.007906 -0.138858 0.000000 
0.202390 0.050974 0.000000 
0.138761 -0.014941 0.000000 
0.017596 -0.007077 0.000000 
0.078209 -0.011497 0.000000 
0.082608 0.056757 0.000000 
0.384806 0.264872 0.000000 
0.269448 0.265750 0.000000 
0.327163 0.265186 0.000000 
0.325459 0.191000 0.000000 
0.264656 0.119641 0.000000 
0.146376 0.123425 0.000000 
0.205588 0.121186 0.000000 
0.208705 0.193096 0.000000 
0.034491 -0.204483 0.000000 
0.067726 -0.175089 0.000000 
0.036646 -0.173017 0.000000 
0.129842 -0.178656 0.000000 
0.098793 -0.176971 0.000000 
0.096983 -0.208443 0.000000 
0.102548 -0.112754 0.000000 
0.100648 -0.145072 0.000000 
0.133273 -0.114417 0.000000 
0.253735 -0.183559 0.000000 
0.222814 -0.182589 0.000000 
0.221698 -0.214111 0.000000 
0.225288 -0.118261 0.000000 
0.224017 -0.150638 0.000000 
0.255902 -0.119200 0.000000 
0.159412 -0.211641 0.000000 
0.191857 -0.181456 0.000000 
0.160865 -0.180149 0.000000 
0.230814 0.015509 0.000000 
0.229387 -0.018574 0.000000 
0.260807 0.014674 0.000000 
0.165608 -0.083119 0.000000 
0.197649 -0.051172 0.000000 
0.167287 -0.049938 0.000000 
0.258289 -0.053127 0.000000 
0.227984 -0.052230 0.000000 
0.226614 -0.085459 0.000000 
0.162388 -0.148227 0.000000 
0.194645 -0.117160 0.000000 
0.163973 -0.115882 0.000000 
0.500000 -0.186796 0.000000 
0.469282 -0.186754 0.000000 
0.469180 -0.218370 0.000000 
0.469534 -0.122256 0.000000 
0.469401 -0.154720 0.000000 
0.500000 -0.122298 0.000000 
0.407503 -0.217994 0.000000 
0.438558 -0.186620 0.000000 
0.407820 -0.186389 0.000000 
0.470141 0.012042 0.000000 
0.469982 -0.022210 0.000000 
0.500000 0.012006 0.000000 
0.409013 -0.089017 0.000000 
0.439649 -0.055887 0.000000 
0.409464 -0.055682 0.000000 
0.500000 -0.056047 0.000000 
0.469827 -0.056007 0.000000 
0.469677 -0.089354 0.000000 
0.283803 -0.215933 0.000000 
0.315466 -0.185061 0.000000 
0.284619 -0.184379 0.000000 
0.377062 -0.186057 0.000000 
0.346279 -0.185617 0.000000 
0.345728 -0.217200 0.000000 
0.347579 -0.121176 0.000000 
0.346901 -0.153611 0.000000 
0.378091 -0.121594 0.000000 
0.439064 -0.122127 0.000000 
0.408584 -0.121909 0.000000 
[...]
POINT_DATA 16641

SCALARS u_h float 2
LOOKUP_TABLE default
0.003259 -0.202263 
-0.003259 -0.202263 
0.000000 0.000000 
0.000000 0.000000 
0.000000 -0.218405 
-0.041284 -0.151791 
0.000000 0.000000 
0.041284 -0.151791 
0.000000 -0.159053 
0.002774 -0.215097 
0.000000 -0.203282 
0.012090 -0.200774 
-0.002774 -0.215097 
-0.012090 -0.200774 
-0.022576 -0.188850 
-0.021428 -0.158550 
-0.048888 -0.094464 
-0.021820 -0.088656 
0.000000 0.000000 
0.000000 -0.087788 
0.000000 0.000000 
0.021820 -0.088656 
0.048888 -0.094464 
0.021428 -0.158550 
0.022576 -0.188850 
0.003211 -0.210137 
0.007074 -0.211378 
0.010063 -0.206671 
0.000000 -0.214395 
0.003665 -0.213712 
0.001631 -0.217652 
0.008684 -0.184486 
0.006168 -0.202729 
0.000000 -0.184823 
-0.001631 -0.217652 
-0.003665 -0.213712 
-0.010063 -0.206671 
-0.007074 -0.211378 
-0.003211 -0.210137 
-0.006168 -0.202729 
-0.008684 -0.184486 
-0.012689 -0.198771 
-0.017560 -0.196572 
-0.031776 -0.156888 
-0.025108 -0.179959 
-0.032420 -0.173042 
-0.017145 -0.183186 
-0.010737 -0.158970 
-0.047673 -0.125560 
-0.036009 -0.127284 
-0.024135 -0.047067 
-0.035060 -0.090797 
-0.039695 -0.057500 
-0.023647 -0.126909 
-0.011618 -0.126490 
0.000000 0.000000 
-0.013783 -0.045275 
0.000000 -0.045059 
-0.006371 -0.045065 
0.000000 0.000000 
-0.010396 -0.087945 
0.000000 -0.126347 
0.000000 0.000000 
0.006371 -0.045065 
0.024135 -0.047067 
0.013783 -0.045275 
0.000000 0.000000 
0.010396 -0.087945 
0.011618 -0.126490 
0.039695 -0.057500 
0.035060 -0.090797 
0.031776 -0.156888 
0.036009 -0.127284 
0.047673 -0.125560 
0.023647 -0.126909 
0.010737 -0.158970 
0.032420 -0.173042 
0.025108 -0.179959 
0.017560 -0.196572 
0.012689 -0.198771 
0.017145 -0.183186 
0.003237 -0.206556 
0.006531 -0.209247 
0.007244 -0.205696 
0.004784 -0.214093 
0.005718 -0.212020 
0.003077 -0.212963 
0.011708 -0.205045 
0.008625 -0.209377 
0.009537 -0.206943 
0.000000 -0.217263 
0.001298 -0.217088 
0.000850 -0.218232 
0.002460 -0.209595 
0.001849 -0.214229 
0.000000 -0.209748 
0.002287 -0.216631 
0.002553 -0.216540 
0.003724 -0.215568 
0.004911 -0.172785 
0.004355 -0.184743 
0.000000 -0.172834 
0.009174 -0.201968 
0.007450 -0.194521 
0.011100 -0.193884 
0.000000 -0.194976 
0.003740 -0.194867 
0.003099 -0.203149 
0.005415 -0.212789 
0.004889 -0.209119 
0.007257 -0.208264 
-0.000850 -0.218232 
-0.001298 -0.217088 
-0.003724 -0.215568 
-0.002553 -0.216540 
-0.002287 -0.216631 
-0.001849 -0.214229 
-0.002460 -0.209595 
-0.007244 -0.205696 
-0.006531 -0.209247 
-0.003237 -0.206556 
-0.009537 -0.206943 
-0.008625 -0.209377 
-0.011708 -0.205045 
-0.003077 -0.212963 
-0.005718 -0.212020 
-0.004784 -0.214093 
-0.004355 -0.184743 
-0.004911 -0.172785 
-0.003099 -0.203149 
-0.003740 -0.194867 
-0.011100 -0.193884 
-0.007450 -0.194521 
-0.009174 -0.201968 
-0.005415 -0.212789 
-0.007257 -0.208264 
-0.004889 -0.209119 
-0.007906 -0.201358 
-0.011402 -0.203161 
-0.020108 -0.193243 
-0.015709 -0.198997 
-0.017596 -0.194577 
-0.013761 -0.202441 
-0.014890 -0.199026 
-0.036660 -0.154977 
-0.032940 -0.166778 
-0.037053 -0.163073 
-0.024120 -0.170793 
-0.028629 -0.169231 
-0.026676 -0.157972 
-0.027552 -0.181652 
-0.028840 -0.177104 
-0.024519 -0.185935 
-0.009806 -0.172628 
-0.005368 -0.159024 
-0.014656 -0.192859 
-0.012959 -0.184000 
-0.016099 -0.158838 
-0.014663 -0.172314 
-0.019448 -0.171750 
-0.021376 -0.189075 
-0.021205 -0.181904 
-0.018088 -0.191314 
-0.044925 -0.139286 
-0.039784 -0.141707 
-0.042985 -0.110637 
-0.042021 -0.126948 
-0.049164 -0.110633 
-0.034332 -0.142917 
-0.028667 -0.143432 
-0.018530 -0.025431 
-0.031454 -0.050420 
-0.027470 -0.035014 
-0.028205 -0.089472 
-0.031236 -0.069805 
-0.024526 -0.068219 
-0.046114 -0.076896 
-0.038696 -0.072711 
-0.042138 -0.092643 
-0.011379 -0.143562 
-0.005677 -0.143524 
-0.022902 -0.143594 
-0.017124 -0.143602 
-0.017231 -0.108142 
-0.017567 -0.126668 
-0.023388 -0.108556 
-0.036424 -0.109936 
-0.029814 -0.109164 
-0.029827 -0.127163 
0.000000 0.000000 
-0.013268 -0.023290 
-0.007369 -0.022657 
-0.009908 -0.022771 
0.000000 0.000000 
-0.018399 -0.045760 
-0.018663 -0.067438 
0.000000 -0.022727 
-0.001663 -0.022718 
0.000000 0.000000 
-0.004303 -0.066841 
-0.003128 -0.045059 
0.000000 -0.066821 
0.000000 0.000000 
-0.003390 -0.022691 
-0.005257 -0.022660 
-0.005779 -0.126384 
0.000000 -0.143510 
-0.015916 -0.088193 
-0.011329 -0.107887 
0.000000 -0.107708 
-0.005616 -0.107752 
-0.005134 -0.087825 
-0.009863 -0.045109 
-0.008743 -0.066909 
-0.013470 -0.067072 
0.000000 0.000000 
0.001663 -0.022718 
0.005257 -0.022660 
0.003390 -0.022691 
0.000000 0.000000 
0.003128 -0.045059 
0.004303 -0.066841 
0.018530 -0.025431 
0.013268 -0.023290 
0.000000 0.000000 
0.018663 -0.067438 
0.018399 -0.045760 
0.024526 -0.068219 
0.000000 0.000000 
0.009908 -0.022771 
0.007369 -0.022657 
0.005779 -0.126384 
0.005677 -0.143524 
0.005134 -0.087825 
0.005616 -0.107752 
0.017231 -0.108142 
0.011329 -0.107887 
0.015916 -0.088193 
0.009863 -0.045109 
0.013470 -0.067072 
0.008743 -0.066909 
0.027470 -0.035014 
0.031454 -0.050420 
0.042138 -0.092643 
0.038696 -0.072711 
0.046114 -0.076896 
0.031236 -0.069805 
0.028205 -0.089472 
0.036660 -0.154977 
0.039784 -0.141707 
0.044925 -0.139286 
0.028667 -0.143432 
0.034332 -0.142917 
0.026676 -0.157972 
0.049164 -0.110633 
0.042021 -0.126948 
0.042985 -0.110637 
0.011379 -0.143562 
0.005368 -0.159024 
0.023388 -0.108556 
0.017567 -0.126668 
0.016099 -0.158838 
0.017124 -0.143602 
0.022902 -0.143594 
0.036424 -0.109936 
0.029827 -0.127163 
0.029814 -0.109164 
0.037053 -0.163073 
0.032940 -0.166778 
0.024519 -0.185935 
0.028840 -0.177104 
0.027552 -0.181652 
0.028629 -0.169231 
0.024120 -0.170793 
0.011402 -0.203161 
0.007906 -0.201358 
0.014890 -0.199026 
0.013761 -0.202441 
0.017596 -0.194577 
0.015709 -0.198997 
0.020108 -0.193243 
0.009806 -0.172628 
0.019448 -0.171750 
0.014663 -0.172314 
0.012959 -0.184000 
0.014656 -0.192859 
0.021376 -0.189075 
0.018088 -0.191314 
0.021205 -0.181904 
0.003241 -0.204483 
0.005226 -0.206339 
0.005396 -0.204267 
0.004842 -0.209906 
0.005043 -0.208221 
0.003233 -0.208443 
0.008798 -0.206504 
0.006898 -0.207572 
0.008273 -0.208167 
0.003735 -0.214809 
0.004064 -0.213839 
0.002948 -0.214111 
0.006538 -0.212011 
0.005267 -0.213138 
0.005902 -0.212950 
0.003162 -0.211641 
0.004357 -0.212706 
0.004615 -0.211399 
0.012064 -0.203241 
0.010637 -0.206074 
0.010807 -0.204076 
0.009358 -0.208119 
0.010149 -0.207422 
0.011037 -0.206188 
0.008289 -0.209377 
0.009234 -0.208480 
0.007864 -0.210459 
0.006138 -0.210727 
0.007145 -0.210910 
0.007723 -0.209632 
0.000000 -0.218046 
0.000532 -0.218004 
0.000430 -0.218370 
0.000784 -0.216006 
0.000651 -0.217220 
0.000000 -0.216048 
0.001253 -0.217994 
0.001058 -0.217870 
0.001570 -0.217639 
0.001391 -0.206708 
0.001232 -0.209710 
0.000000 -0.206744 
0.002763 -0.214017 
0.002149 -0.212137 
0.003214 -0.211932 
0.000000 -0.212297 
0.001077 -0.212257 
0.000927 -0.214354 
0.002553 -0.215933 
0.002966 -0.216311 
0.003369 -0.215629 
0.002062 -0.217307 
0.002529 -0.216867 
0.001978 -0.217200 
0.003829 -0.214926 
0.003151 -0.216111 
0.003091 -0.215344 
0.001564 -0.215877 
0.002334 -0.215659 
0.001934 -0.216863 
0.002577 -0.166152 
0.002456 -0.172821 
0.000000 -0.166162 
0.006524 -0.184639 
0.004642 -0.178992 
0.006957 -0.178908 
0.000000 -0.179056 
0.002322 -0.179040 
0.002179 -0.184803 
0.010645 -0.201432 
0.010140 -0.198150 
0.011772 -0.197652 
0.006812 -0.198853 
0.008486 -0.198547 
0.007681 -0.202396 
0.010069 -0.189488 
0.009285 -0.194244 
0.008077 -0.189732 
0.000000 -0.199360 
0.001712 -0.199330 
0.001551 -0.203249 
0.002028 -0.190106 
0.001872 -0.194949 
0.000000 -0.190130 
0.004639 -0.202977 
0.003421 -0.199238 
0.005122 -0.199081 
0.006070 -0.189912 
0.005601 -0.194726 
0.004053 -0.190035 
0.004269 -0.214899 
0.004550 -0.213305 
0.004545 -0.214395 
0.005237 -0.213740 
0.006257 -0.212151 
0.002778 -0.206600 
0.005525 -0.206150 
0.004157 -0.206416 
0.003680 -0.209400 
0.004267 -0.211638 
0.009521 -0.204770 
0.007318 -0.210127 
0.008409 -0.207668 
0.008210 -0.205338 
0.006877 -0.205794 
0.005304 -0.211246 
0.006082 -0.208743 
0.006322 -0.210746 
-0.000430 -0.218370 
-0.000532 -0.218004 
-0.001570 -0.217639 
-0.001058 -0.217870 
-0.001253 -0.217994 
-0.000651 -0.217220 
-0.000784 -0.216006 
-0.003369 -0.215629 
-0.002966 -0.216311 
-0.002553 -0.215933 
-0.003091 -0.215344 
-0.003151 -0.216111 
-0.003829 -0.214926 
-0.001978 -0.217200 
-0.002529 -0.216867 
-0.002062 -0.217307 
-0.001232 -0.209710 
-0.001391 -0.206708 
-0.000927 -0.214354 
-0.001077 -0.212257 
-0.003214 -0.211932 
-0.002149 -0.212137 
-0.002763 -0.214017 
-0.001934 -0.216863 
-0.002334 -0.215659 
-0.001564 -0.215877 
-0.005396 -0.204267 
-0.005226 -0.206339 
-0.003241 -0.204483 
-0.008273 -0.208167 
-0.006898 -0.207572 
-0.008798 -0.206504 
-0.003233 -0.208443 
-0.005043 -0.208221 
-0.004842 -0.209906 
-0.010807 -0.204076 
-0.010637 -0.206074 
-0.012064 -0.203241 
-0.007864 -0.210459 
-0.009234 -0.208480 
-0.008289 -0.209377 
-0.011037 -0.206188 
-0.010149 -0.207422 
-0.009358 -0.208119 
-0.002948 -0.214111 
-0.004064 -0.213839 
-0.003735 -0.214809 
-0.004615 -0.211399 
-0.004357 -0.212706 
-0.003162 -0.211641 
-0.005902 -0.212950 
-0.005267 -0.213138 
-0.006538 -0.212011 
-0.007723 -0.209632 
-0.007145 -0.210910 
-0.006138 -0.210727 
-0.002456 -0.172821 
-0.002577 -0.166152 
-0.002179 -0.184803 
-0.002322 -0.179040 
-0.006957 -0.178908 
-0.004642 -0.178992 
-0.006524 -0.184639 
-0.001551 -0.203249 
-0.001712 -0.199330 
-0.005122 -0.199081 
-0.003421 -0.199238 
-0.004639 -0.202977 
-0.001872 -0.194949 
-0.002028 -0.190106 
-0.011772 -0.197652 
-0.010140 -0.198150 
-0.010645 -0.201432 
-0.008077 -0.189732 
-0.009285 -0.194244 
-0.010069 -0.189488 
-0.007681 -0.202396 
-0.008486 -0.198547 
-0.006812 -0.198853 
-0.004053 -0.190035 
-0.005601 -0.194726 
-0.006070 -0.189912 
-0.004269 -0.214899 
-0.006257 -0.212151 
-0.005237 -0.213740 
-0.004545 -0.214395 
-0.004550 -0.213305 
-0.009521 -0.204770 
-0.006877 -0.205794 
-0.008210 -0.205338 
-0.008409 -0.207668 
-0.007318 -0.210127 
-0.002778 -0.206600 
-0.004267 -0.211638 
-0.003680 -0.209400 
-0.004157 -0.206416 
-0.005525 -0.206150 
-0.006322 -0.210746 
-0.006082 -0.208743 
-0.005304 -0.211246 
-0.005562 -0.202022 
-0.007577 -0.203623 
-0.012047 -0.201080 
-0.009793 -0.202558 
-0.010280 -0.200271 
-0.009303 -0.204635 
-0.010743 -0.205022 
-0.021348 -0.191192 
-0.018996 -0.194247 
-0.020081 -0.191901 
-0.016789 -0.198131 
-0.017901 -0.196316 
-0.018848 -0.195028 
-0.015129 -0.196870 
-0.016655 -0.196917 
-0.014336 -0.199197 
-0.013291 -0.202247 
-0.013506 -0.199978 
-0.011895 -0.204762 
-0.012749 -0.203840 
-0.016241 -0.197897 
-0.014487 -0.201077 
-0.015653 -0.199711 
-0.013540 -0.201280 
-0.014746 -0.200833 
-0.012728 -0.203131 
-0.039005 -0.153579 
-0.037072 -0.159514 
-0.039232 -0.157596 
-0.032589 -0.162293 
-0.034859 -0.161061 
-0.034249 -0.156061 
-0.034775 -0.168224 
-0.035019 -0.165106 
-0.032870 -0.170351 
-0.022988 -0.165038 
-0.025454 -0.164597 
-0.024066 -0.158308 
-0.026904 -0.174797 
-0.026397 -0.170104 
-0.024823 -0.175774 
-0.029249 -0.157511 
-0.027881 -0.164016 
-0.030261 -0.163262 
-0.025070 -0.185431 
-0.026046 -0.183952 
-0.023702 -0.187758 
-0.030646 -0.175244 
-0.028365 -0.179779 
-0.030006 -0.177520 
-0.024998 -0.183343 
-0.026698 -0.181708 
-0.026995 -0.178663 
-0.030811 -0.168137 
-0.028939 -0.173594 
-0.030927 -0.172126 
-0.005154 -0.166127 
-0.002684 -0.159037 
-0.009264 -0.178784 
-0.007361 -0.172722 
-0.008053 -0.159003 
-0.007730 -0.166085 
-0.010301 -0.166021 
-0.013376 -0.197036 
-0.012891 -0.193427 
-0.015065 -0.183642 
-0.013993 -0.188757 
-0.015916 -0.188243 
-0.012043 -0.189167 
-0.010830 -0.184277 
-0.018770 -0.158720 
-0.017965 -0.165617 
-0.020489 -0.165370 
-0.012866 -0.165929 
-0.015423 -0.165798 
-0.013420 -0.158917 
-0.018328 -0.177689 
-0.017067 -0.172071 
-0.016095 -0.178079 
-0.011558 -0.178612 
-0.013837 -0.178382 
-0.012241 -0.172495 
-0.022318 -0.189781 
-0.023260 -0.184719 
-0.022965 -0.187632 
-0.020910 -0.191528 
-0.019471 -0.193027 
-0.021801 -0.171332 
-0.019193 -0.182615 
-0.020530 -0.177191 
-0.022697 -0.176562 
-0.023178 -0.181029 
-0.014951 -0.196286 
-0.017999 -0.194303 
-0.016492 -0.195382 
-0.016389 -0.192161 
-0.017807 -0.187605 
-0.021482 -0.185869 
-0.019663 -0.186821 
-0.019751 -0.190293 
-0.043199 -0.145695 
-0.040793 -0.147303 
-0.043781 -0.133732 
-0.042397 -0.140687 
-0.046430 -0.132573 
-0.038313 -0.148527 
-0.035761 -0.149440 
-0.046134 -0.102405 
-0.046143 -0.110784 
-0.049286 -0.102710 
-0.039049 -0.127203 
-0.042692 -0.118993 
-0.039579 -0.118976 
-0.048603 -0.118248 
-0.045709 -0.118788 
-0.044902 -0.126434 
-0.027757 -0.150917 
-0.025010 -0.151143 
-0.033144 -0.150108 
-0.030472 -0.150585 
-0.032352 -0.135460 
-0.031519 -0.143236 
-0.035302 -0.135311 
-0.041035 -0.134516 
-0.038203 -0.135017 
-0.037092 -0.142427 
-0.012319 -0.014263 
-0.022601 -0.028599 
-0.017555 -0.021237 
-0.027585 -0.048371 
-0.025841 -0.038245 
-0.022188 -0.036306 
-0.034527 -0.046799 
-0.030104 -0.041605 
-0.035609 -0.053460 
-0.024949 -0.089010 
-0.026653 -0.079025 
-0.023473 -0.078543 
-0.033505 -0.080533 
-0.030001 -0.079676 
-0.031582 -0.090063 
-0.024817 -0.057715 
-0.027770 -0.068879 
-0.028145 -0.058632 
-0.047872 -0.085872 
-0.044425 -0.084413 
-0.045595 -0.093627 
-0.039628 -0.064432 
-0.042491 -0.074708 
-0.043458 -0.067472 
-0.038599 -0.091669 
-0.040804 -0.082941 
-0.037129 -0.081624 
-0.031773 -0.059981 
-0.034901 -0.071067 
-0.035650 -0.061893 
-0.005545 -0.151486 
-0.002772 -0.151487 
-0.011101 -0.151480 
-0.008321 -0.151485 
-0.008649 -0.135183 
-0.008523 -0.143541 
-0.011557 -0.135227 
-0.022241 -0.151290 
-0.019460 -0.151382 
-0.020397 -0.135406 
-0.020011 -0.143609 
-0.023382 -0.135465 
-0.016673 -0.151437 
-0.013886 -0.151466 
-0.019702 -0.098530 
-0.020275 -0.108326 
-0.022787 -0.098788 
-0.014576 -0.126570 
-0.017509 -0.117595 
-0.014506 -0.117469 
-0.023661 -0.117935 
-0.020560 -0.117751 
-0.020591 -0.126783 
-0.014246 -0.143584 
-0.017430 -0.135342 
-0.014483 -0.135281 
-0.042830 -0.101863 
-0.036003 -0.100595 
-0.039433 -0.101228 
-0.039730 -0.110323 
-0.036403 -0.118829 
-0.025966 -0.099116 
-0.026808 -0.118147 
-0.026570 -0.108835 
-0.029238 -0.099525 
-0.032592 -0.100020 
-0.025791 -0.143542 
-0.032928 -0.127255 
-0.029371 -0.135514 
-0.026376 -0.135507 
-0.026729 -0.127040 
-0.033107 -0.109537 
-0.029992 -0.118379 
-0.033198 -0.118615 
0.000000 0.000000 
-0.009532 -0.012407 
-0.006734 -0.011498 
-0.007896 -0.011767 
0.000000 0.000000 
-0.015537 -0.023983 
-0.019154 -0.035224 
-0.003757 -0.011317 
-0.004365 -0.011314 
0.000000 0.000000 
-0.012478 -0.034092 
-0.008568 -0.022689 
-0.010739 -0.033992 
0.000000 0.000000 
-0.005042 -0.011328 
-0.005815 -0.011378 
-0.021498 -0.067757 
-0.020454 -0.078192 
-0.021094 -0.046257 
-0.021780 -0.057105 
-0.016436 -0.056445 
-0.019000 -0.056705 
-0.015982 -0.045457 
-0.011444 -0.022944 
-0.014412 -0.034279 
-0.016605 -0.034619 
0.000000 -0.011405 
-0.000423 -0.011404 
0.000000 0.000000 
-0.001208 -0.033950 
-0.000828 -0.022725 
0.000000 -0.033951 
0.000000 0.000000 
-0.000850 -0.011398 
-0.001285 -0.011389 
-0.002373 -0.077427 
-0.002143 -0.066827 
0.000000 -0.077420 
-0.004728 -0.045060 
-0.003756 -0.056034 
-0.005674 -0.056047 
0.000000 -0.056024 
-0.001870 -0.056027 
-0.001557 -0.045059 
0.000000 0.000000 
-0.002684 -0.011345 
-0.003201 -0.011329 
-0.001732 -0.011376 
-0.002196 -0.011361 
0.000000 0.000000 
-0.006273 -0.033923 
-0.004301 -0.022675 
-0.004946 -0.033929 
-0.002427 -0.033945 
-0.003669 -0.033937 
-0.002515 -0.022706 
-0.002837 -0.143513 
0.000000 -0.151489 
-0.008687 -0.126428 
-0.005757 -0.135151 
0.000000 -0.135124 
-0.002876 -0.135131 
-0.002885 -0.126357 
-0.018813 -0.088390 
-0.016707 -0.098332 
-0.010949 -0.098069 
-0.013793 -0.098181 
-0.013116 -0.088048 
-0.014251 -0.107998 
-0.011547 -0.117369 
0.000000 -0.097894 
-0.002701 -0.097905 
-0.002559 -0.087797 
-0.002862 -0.117212 
-0.002802 -0.107719 
0.000000 -0.117201 
-0.007741 -0.087872 
-0.005417 -0.097936 
-0.008162 -0.097990 
-0.008626 -0.117295 
-0.008454 -0.107807 
-0.005734 -0.117243 
-0.006273 -0.022651 
-0.008077 -0.045079 
-0.007667 -0.033925 
-0.009147 -0.033944 
-0.011756 -0.045169 
-0.004763 -0.077449 
-0.009662 -0.077546 
-0.007186 -0.077487 
-0.006497 -0.066867 
-0.007643 -0.056069 
-0.017583 -0.077940 
-0.014050 -0.056279 
-0.015996 -0.067220 
-0.014840 -0.077760 
-0.012206 -0.077633 
-0.009680 -0.056108 
-0.011060 -0.066973 
-0.011807 -0.056173 
0.000000 0.000000 
0.000423 -0.011404 
0.001285 -0.011389 
0.000850 -0.011398 
0.000000 0.000000 
0.000828 -0.022725 
0.001208 -0.033950 
0.003201 -0.011329 
0.002684 -0.011345 
0.000000 0.000000 
0.004946 -0.033929 
0.004301 -0.022675 
0.006273 -0.033923 
0.000000 0.000000 
0.002196 -0.011361 
0.001732 -0.011376 
0.002143 -0.066827 
0.002373 -0.077427 
0.001557 -0.045059 
0.001870 -0.056027 
0.005674 -0.056047 
0.003756 -0.056034 
0.004728 -0.045060 
0.002515 -0.022706 
0.003669 -0.033937 
0.002427 -0.033945 
0.012319 -0.014263 
0.009532 -0.012407 
0.000000 0.000000 
0.019154 -0.035224 
0.015537 -0.023983 
0.022188 -0.036306 
0.000000 0.000000 
0.007896 -0.011767 
0.006734 -0.011498 
0.020454 -0.078192 
0.021498 -0.067757 
0.023473 -0.078543 
0.015982 -0.045457 
0.019000 -0.056705 
0.016436 -0.056445 
0.024817 -0.057715 
0.021780 -0.057105 
0.021094 -0.046257 
0.000000 0.000000 
0.004365 -0.011314 
0.003757 -0.011317 
0.005815 -0.011378 
0.005042 -0.011328 
0.000000 0.000000 
0.010739 -0.033992 
0.008568 -0.022689 
0.012478 -0.034092 
0.016605 -0.034619 
0.014412 -0.034279 
0.011444 -0.022944 
0.002837 -0.143513 
0.002772 -0.151487 
0.002885 -0.126357 
0.002876 -0.135131 
0.008649 -0.135183 
0.005757 -0.135151 
0.008687 -0.126428 
0.002559 -0.087797 
0.002701 -0.097905 
0.008162 -0.097990 
0.005417 -0.097936 
0.007741 -0.087872 
0.002802 -0.107719 
0.002862 -0.117212 
0.019702 -0.098530 
0.016707 -0.098332 
0.018813 -0.088390 
0.011547 -0.117369 
0.014251 -0.107998 
0.014506 -0.117469 
0.013116 -0.088048 
0.013793 -0.098181 
0.010949 -0.098069 
0.005734 -0.117243 
0.008454 -0.107807 
0.008626 -0.117295 
0.006273 -0.022651 
0.011756 -0.045169 
0.009147 -0.033944 
0.007667 -0.033925 
0.008077 -0.045079 
0.017583 -0.077940 
0.012206 -0.077633 
0.014840 -0.077760 
0.015996 -0.067220 
0.014050 -0.056279 
0.004763 -0.077449 
0.007643 -0.056069 
0.006497 -0.066867 
0.007186 -0.077487 
0.009662 -0.077546 
0.011807 -0.056173 
0.011060 -0.066973 
0.009680 -0.056108 
0.017555 -0.021237 
0.022601 -0.028599 
0.035609 -0.053460 
0.030104 -0.041605 
0.034527 -0.046799 
0.025841 -0.038245 
0.027585 -0.048371 
0.045595 -0.093627 
0.044425 -0.084413 
0.047872 -0.085872 
0.037129 -0.081624 
0.040804 -0.082941 
0.038599 -0.091669 
0.043458 -0.067472 
0.042491 -0.074708 
0.039628 -0.064432 
0.026653 -0.079025 
0.024949 -0.089010 
0.028145 -0.058632 
0.027770 -0.068879 
0.031582 -0.090063 
0.030001 -0.079676 
0.033505 -0.080533 
0.035650 -0.061893 
0.034901 -0.071067 
0.031773 -0.059981 
0.039005 -0.153579 
0.040793 -0.147303 
0.043199 -0.145695 
0.035761 -0.149440 
0.038313 -0.148527 
0.034249 -0.156061 
0.046430 -0.132573 
0.042397 -0.140687 
0.043781 -0.133732 
0.025010 -0.151143 
0.027757 -0.150917 
0.024066 -0.158308 
0.035302 -0.135311 
0.031519 -0.143236 
0.032352 -0.135460 
0.029249 -0.157511 
0.030472 -0.150585 
0.033144 -0.150108 
0.049286 -0.102710 
0.046143 -0.110784 
0.046134 -0.102405 
0.044902 -0.126434 
0.045709 -0.118788 
0.048603 -0.118248 
0.039579 -0.118976 
0.042692 -0.118993 
0.039049 -0.127203 
0.037092 -0.142427 
0.038203 -0.135017 
0.041035 -0.134516 
0.005545 -0.151486 
0.002684 -0.159037 
0.011557 -0.135227 
0.008523 -0.143541 
0.008053 -0.159003 
0.008321 -0.151485 
0.011101 -0.151480 
0.022787 -0.098788 
0.020275 -0.108326 
0.020591 -0.126783 
0.020560 -0.117751 
0.023661 -0.117935 
0.017509 -0.117595 
0.014576 -0.126570 
0.018770 -0.158720 
0.019460 -0.151382 
0.022241 -0.151290 
0.013886 -0.151466 
0.016673 -0.151437 
0.013420 -0.158917 