# vtk DataFile Version 2.0
Unstructured Grid Example
ASCII
DATASET UNSTRUCTURED_GRID

POINTS 4225 float
0.003408 -0.202369 0.000000 
0.996592 -0.202369 0.000000 
1.000000 1.000000 0.000000 
0.000000 1.000000 0.000000 
0.500000 -0.218289 0.000000 
0.958761 0.348276 0.000000 
0.500000 1.000000 0.000000 
0.041239 0.348276 0.000000 
0.500000 0.340957 0.000000 
0.252807 -0.215045 0.000000 
0.500000 0.046787 0.000000 
0.262082 0.049280 0.000000 
0.747193 -0.215045 0.000000 
0.737918 0.049280 0.000000 
0.977426 0.061157 0.000000 
0.728590 0.341499 0.000000 
0.951177 0.655551 0.000000 
0.728223 0.661385 0.000000 
0.750000 1.000000 0.000000 
0.500000 0.662250 0.000000 
0.250000 1.000000 0.000000 
0.271777 0.661385 0.000000 
0.048823 0.655551 0.000000 
0.271410 0.341499 0.000000 
0.022574 0.061157 0.000000 
0.128277 -0.210113 0.000000 
0.257085 -0.086323 0.000000 
0.135079 -0.081642 0.000000 
0.500000 -0.089312 0.000000 
0.378668 -0.088641 0.000000 
0.376648 -0.217583 0.000000 
0.383673 0.190570 0.000000 
0.381161 0.047336 0.000000 
0.500000 0.190229 0.000000 
0.623352 -0.217583 0.000000 
0.621332 -0.088641 0.000000 
0.864921 -0.081642 0.000000 
0.742915 -0.086323 0.000000 
0.871723 -0.210113 0.000000 
0.618839 0.047336 0.000000 
0.616327 0.190570 0.000000 
0.987290 -0.073792 0.000000 
0.857449 0.053461 0.000000 
0.843249 0.343156 0.000000 
0.849913 0.195082 0.000000 
0.967596 0.201983 0.000000 
0.732873 0.191866 0.000000 
0.614271 0.341078 0.000000 
0.952364 0.499465 0.000000 
0.839023 0.497762 0.000000 
0.850967 0.827983 0.000000 
0.840000 0.659254 0.000000 
0.960441 0.817541 0.000000 
0.726380 0.498137 0.000000 
0.613395 0.498552 0.000000 
0.875000 1.000000 0.000000 
0.736262 0.829747 0.000000 
0.500000 0.829961 0.000000 
0.618646 0.829950 0.000000 
0.625000 1.000000 0.000000 
0.614624 0.662087 0.000000 
0.500000 0.498696 0.000000 
0.375000 1.000000 0.000000 
0.381354 0.829950 0.000000 
0.149033 0.827983 0.000000 
0.263738 0.829747 0.000000 
0.125000 1.000000 0.000000 
0.385376 0.662087 0.000000 
0.386605 0.498552 0.000000 
0.039559 0.817541 0.000000 
0.160000 0.659254 0.000000 
0.156751 0.343156 0.000000 
0.160977 0.497762 0.000000 
0.047636 0.499465 0.000000 
0.273620 0.498137 0.000000 
0.385729 0.341078 0.000000 
0.032404 0.201983 0.000000 
0.150087 0.195082 0.000000 
0.142551 0.053461 0.000000 
0.012710 -0.073792 0.000000 
0.267127 0.191866 0.000000 
0.065833 -0.206561 0.000000 
0.131569 -0.146718 0.000000 
0.069787 -0.143195 0.000000 
0.254808 -0.151539 0.000000 
0.193249 -0.149476 0.000000 
0.190623 -0.212922 0.000000 
0.199209 -0.017500 0.000000 
0.196139 -0.084332 0.000000 
0.259537 -0.019388 0.000000 
0.500000 -0.154670 0.000000 
0.438801 -0.154507 0.000000 
0.438361 -0.218151 0.000000 
0.439958 -0.022021 0.000000 
0.439350 -0.089151 0.000000 
0.500000 -0.022171 0.000000 
0.314811 -0.216571 0.000000 
0.377563 -0.153969 0.000000 
0.316241 -0.153005 0.000000 
0.442403 0.264762 0.000000 
0.441848 0.190312 0.000000 
0.500000 0.264705 0.000000 
0.321667 0.048093 0.000000 
0.382441 0.118039 0.000000 
0.323587 0.118675 0.000000 
0.500000 0.117585 0.000000 
0.441235 0.117695 0.000000 
0.440595 0.046920 0.000000 
0.317922 -0.087725 0.000000 
0.379887 -0.021550 0.000000 
0.319756 -0.020700 0.000000 
0.561639 -0.218151 0.000000 
0.561199 -0.154507 0.000000 
0.683759 -0.153005 0.000000 
0.622437 -0.153969 0.000000 
0.685189 -0.216571 0.000000 
0.560650 -0.089151 0.000000 
0.560042 -0.022021 0.000000 
0.930213 -0.143195 0.000000 
0.868431 -0.146718 0.000000 
0.934167 -0.206561 0.000000 
0.740463 -0.019388 0.000000 
0.803861 -0.084332 0.000000 
0.800791 -0.017500 0.000000 
0.809377 -0.212922 0.000000 
0.806751 -0.149476 0.000000 
0.745192 -0.151539 0.000000 
0.558152 0.190312 0.000000 
0.557597 0.264762 0.000000 
0.559405 0.046920 0.000000 
0.558765 0.117695 0.000000 
0.676413 0.118675 0.000000 
0.617559 0.118039 0.000000 
0.678333 0.048093 0.000000 
0.682078 -0.087725 0.000000 
0.680244 -0.020700 0.000000 
0.620113 -0.021550 0.000000 
0.992046 -0.138908 0.000000 
0.926081 -0.078156 0.000000 
0.917398 0.056777 0.000000 
0.921788 -0.011485 0.000000 
0.982397 -0.007082 0.000000 
0.861237 -0.014911 0.000000 
0.797619 0.051020 0.000000 
0.900871 0.345065 0.000000 
0.904588 0.270763 0.000000 
0.962973 0.274463 0.000000 
0.788403 0.266755 0.000000 
0.846397 0.268313 0.000000 
0.785845 0.342075 0.000000 
0.972458 0.130864 0.000000 
0.908681 0.197931 0.000000 
0.912994 0.126592 0.000000 
0.615205 0.264924 0.000000 
0.557135 0.341018 0.000000 
0.735359 0.119695 0.000000 
0.674556 0.191056 0.000000 
0.671414 0.341212 0.000000 
0.672853 0.265239 0.000000 
0.730571 0.265801 0.000000 
0.853640 0.123462 0.000000 
0.791315 0.193143 0.000000 
0.794428 0.121233 0.000000 
0.955106 0.423251 0.000000 
0.897743 0.420834 0.000000 
0.894559 0.576904 0.000000 
0.895512 0.498093 0.000000 
0.950884 0.576884 0.000000 
0.840694 0.419628 0.000000 
0.783857 0.419115 0.000000 
0.919143 0.912135 0.000000 
0.906176 0.824649 0.000000 
0.972752 0.902655 0.000000 
0.784348 0.660575 0.000000 
0.843846 0.742748 0.000000 
0.788040 0.744325 0.000000 
0.953977 0.735624 0.000000 
0.898892 0.739845 0.000000 
0.895424 0.657403 0.000000 
0.613630 0.418983 0.000000 
0.556826 0.419017 0.000000 
0.727119 0.418953 0.000000 
0.670392 0.418945 0.000000 
0.670296 0.579398 0.000000 
0.669954 0.498376 0.000000 
0.726647 0.578988 0.000000 
0.838619 0.577612 0.000000 
0.782726 0.578383 0.000000 
0.782703 0.497884 0.000000 
0.937500 1.000000 0.000000 
0.861818 0.914235 0.000000 
0.742658 0.914852 0.000000 
0.802638 0.914742 0.000000 
0.812500 1.000000 0.000000 
0.794170 0.829272 0.000000 
0.731386 0.745096 0.000000 
0.500000 0.914782 0.000000 
0.560842 0.914788 0.000000 
0.562500 1.000000 0.000000 
0.558207 0.745683 0.000000 
0.559380 0.829956 0.000000 
0.500000 0.745708 0.000000 
0.687500 1.000000 0.000000 
0.621619 0.914814 0.000000 
0.682260 0.914846 0.000000 
0.556727 0.498657 0.000000 
0.500000 0.419028 0.000000 
0.671616 0.661842 0.000000 
0.613688 0.579650 0.000000 
0.500000 0.579834 0.000000 
0.556893 0.579786 0.000000 
0.557376 0.662207 0.000000 
0.677665 0.829907 0.000000 
0.616278 0.745615 0.000000 
0.674063 0.745455 0.000000 
0.437500 1.000000 0.000000 
0.439158 0.914788 0.000000 
0.317740 0.914846 0.000000 
0.378381 0.914814 0.000000 
0.312500 1.000000 0.000000 
0.440620 0.829956 0.000000 
0.441793 0.745683 0.000000 
0.080857 0.912135 0.000000 
0.138182 0.914235 0.000000 
0.062500 1.000000 0.000000 
0.268614 0.745096 0.000000 
0.205830 0.829272 0.000000 
0.211960 0.744325 0.000000 
0.187500 1.000000 0.000000 
0.197362 0.914742 0.000000 
0.257342 0.914852 0.000000 
0.443273 0.498657 0.000000 
0.443174 0.419017 0.000000 
0.442624 0.662207 0.000000 
0.443107 0.579786 0.000000 
0.329704 0.579398 0.000000 
0.386312 0.579650 0.000000 
0.328384 0.661842 0.000000 
0.322335 0.829907 0.000000 
0.325937 0.745455 0.000000 
0.383722 0.745615 0.000000 
0.027248 0.902655 0.000000 
0.093824 0.824649 0.000000 
0.104576 0.657403 0.000000 
0.101108 0.739845 0.000000 
0.046023 0.735624 0.000000 
0.156154 0.742748 0.000000 
0.215652 0.660575 0.000000 
0.099129 0.345065 0.000000 
0.102257 0.420834 0.000000 
0.044894 0.423251 0.000000 
0.216143 0.419115 0.000000 
0.159306 0.419628 0.000000 
0.214155 0.342075 0.000000 
0.049116 0.576884 0.000000 
0.104488 0.498093 0.000000 
0.105441 0.576904 0.000000 
0.386370 0.418983 0.000000 
0.442865 0.341018 0.000000 
0.273353 0.578988 0.000000 
0.330046 0.498376 0.000000 
0.328586 0.341212 0.000000 
0.329608 0.418945 0.000000 
0.272881 0.418953 0.000000 
0.161381 0.577612 0.000000 
0.217297 0.497884 0.000000 
0.217274 0.578383 0.000000 
0.037027 0.274463 0.000000 
0.095412 0.270763 0.000000 
0.087006 0.126592 0.000000 
0.091319 0.197931 0.000000 
0.027542 0.130864 0.000000 
0.153603 0.268313 0.000000 
0.211597 0.266755 0.000000 
0.073919 -0.078156 0.000000 
0.007954 -0.138908 0.000000 
0.202381 0.051020 0.000000 
0.138763 -0.014911 0.000000 
0.017603 -0.007082 0.000000 
0.078212 -0.011485 0.000000 
0.082602 0.056777 0.000000 
0.384795 0.264924 0.000000 
0.269429 0.265801 0.000000 
0.327147 0.265239 0.000000 
0.325444 0.191056 0.000000 
0.264641 0.119695 0.000000 
0.146360 0.123462 0.000000 
0.205572 0.121233 0.000000 
0.208685 0.193143 0.000000 
0.034612 -0.204519 0.000000 
0.067793 -0.175089 0.000000 
0.036718 -0.173045 0.000000 
0.129894 -0.178629 0.000000 
0.098853 -0.176954 0.000000 
0.097061 -0.208430 0.000000 
0.102575 -0.112736 0.000000 
0.100689 -0.145054 0.000000 
0.133299 -0.114388 0.000000 
0.253765 -0.183506 0.000000 
0.222849 -0.182540 0.000000 
0.221738 -0.214064 0.000000 
0.225308 -0.118211 0.000000 
0.224044 -0.150588 0.000000 
0.255919 -0.119145 0.000000 
0.159467 -0.211608 0.000000 
0.191897 -0.181413 0.000000 
0.160911 -0.180113 0.000000 
0.230810 0.015560 0.000000 
0.229387 -0.018524 0.000000 
0.260802 0.014729 0.000000 
0.165623 -0.083081 0.000000 
0.197656 -0.051127 0.000000 
0.167294 -0.049900 0.000000 
0.258295 -0.053071 0.000000 
0.227990 -0.052179 0.000000 
0.226627 -0.085408 0.000000 
0.162424 -0.148189 0.000000 
0.194667 -0.117115 0.000000 
0.163997 -0.115845 0.000000 
0.500000 -0.186695 0.000000 
0.469284 -0.186664 0.000000 
0.469187 -0.218280 0.000000 
0.469534 -0.122171 0.000000 
0.469402 -0.154632 0.000000 
0.500000 -0.122211 0.000000 
0.407517 -0.217920 0.000000 
0.438563 -0.186538 0.000000 
0.407830 -0.186314 0.000000 
0.470139 0.012114 0.000000 
0.469981 -0.022134 0.000000 
0.500000 0.012079 0.000000 
0.409015 -0.088942 0.000000 
0.439649 -0.055811 0.000000 
0.409464 -0.055609 0.000000 
0.500000 -0.055967 0.000000 
0.469826 -0.055928 0.000000 
0.469677 -0.089272 0.000000 
0.283831 -0.215877 0.000000 
0.315487 -0.185000 0.000000 
0.284643 -0.184322 0.000000 
0.377076 -0.185987 0.000000 
0.346296 -0.185552 0.000000 
0.345748 -0.217136 0.000000 
0.347588 -0.121108 0.000000 
0.346914 -0.153545 0.000000 
0.378097 -0.121523 0.000000 
0.439065 -0.122047 0.000000 
0.408588 -0.121833 0.000000 
0.408190 -0.154288 0.000000 
[...]
POINT_DATA 4225

SCALARS u_h float 2
LOOKUP_TABLE default
0.003408 -0.202369 
-0.003408 -0.202369 
0.000000 0.000000 
0.000000 0.000000 
0.000000 -0.218289 
-0.041239 -0.151724 
0.000000 0.000000 
0.041239 -0.151724 
0.000000 -0.159043 
0.002807 -0.215045 
0.000000 -0.203213 
0.012082 -0.200720 
-0.002807 -0.215045 
-0.012082 -0.200720 
-0.022574 -0.188843 
-0.021410 -0.158501 
-0.048823 -0.094449 
-0.021777 -0.088615 
0.000000 0.000000 
0.000000 -0.087750 
0.000000 0.000000 
0.021777 -0.088615 
0.048823 -0.094449 
0.021410 -0.158501 
0.022574 -0.188843 
0.003277 -0.210113 
0.007085 -0.211323 
0.010079 -0.206642 
0.000000 -0.214312 
0.003668 -0.213641 
0.001648 -0.217583 
0.008673 -0.184430 
0.006161 -0.202664 
0.000000 -0.184771 
-0.001648 -0.217583 
-0.003668 -0.213641 
-0.010079 -0.206642 
-0.007085 -0.211323 
-0.003277 -0.210113 
-0.006161 -0.202664 
-0.008673 -0.184430 
-0.012710 -0.198792 
-0.017551 -0.196539 
-0.031751 -0.156844 
-0.025087 -0.179918 
-0.032404 -0.173017 
-0.017127 -0.183134 
-0.010729 -0.158922 
-0.047636 -0.125535 
-0.035977 -0.127238 
-0.024033 -0.047017 
-0.035000 -0.090746 
-0.039559 -0.057459 
-0.023620 -0.126863 
-0.011605 -0.126448 
0.000000 0.000000 
-0.013738 -0.045253 
0.000000 -0.045039 
-0.006354 -0.045050 
0.000000 0.000000 
-0.010376 -0.087913 
0.000000 -0.126304 
0.000000 0.000000 
0.006354 -0.045050 
0.024033 -0.047017 
0.013738 -0.045253 
0.000000 0.000000 
0.010376 -0.087913 
0.011605 -0.126448 
0.039559 -0.057459 
0.035000 -0.090746 
0.031751 -0.156844 
0.035977 -0.127238 
0.047636 -0.125535 
0.023620 -0.126863 
0.010729 -0.158922 
0.032404 -0.173017 
0.025087 -0.179918 
0.017551 -0.196539 
0.012710 -0.198792 
0.017127 -0.183134 
0.003333 -0.206561 
0.006569 -0.209218 
0.007287 -0.205695 
0.004808 -0.214039 
0.005749 -0.211976 
0.003123 -0.212922 
0.011709 -0.205000 
0.008639 -0.209332 
0.009537 -0.206888 
0.000000 -0.217170 
0.001301 -0.217007 
0.000861 -0.218151 
0.002458 -0.209521 
0.001850 -0.214151 
0.000000 -0.209671 
0.002311 -0.216571 
0.002563 -0.216469 
0.003741 -0.215505 
0.004903 -0.172738 
0.004348 -0.184688 
0.000000 -0.172795 
0.009167 -0.201907 
0.007441 -0.194461 
0.011087 -0.193825 
0.000000 -0.194915 
0.003735 -0.194805 
0.003095 -0.203080 
0.005422 -0.212725 
0.004887 -0.209050 
0.007256 -0.208200 
-0.000861 -0.218151 
-0.001301 -0.217007 
-0.003741 -0.215505 
-0.002563 -0.216469 
-0.002311 -0.216571 
-0.001850 -0.214151 
-0.002458 -0.209521 
-0.007287 -0.205695 
-0.006569 -0.209218 
-0.003333 -0.206561 
-0.009537 -0.206888 
-0.008639 -0.209332 
-0.011709 -0.205000 
-0.003123 -0.212922 
-0.005749 -0.211976 
-0.004808 -0.214039 
-0.004348 -0.184688 
-0.004903 -0.172738 
-0.003095 -0.203080 
-0.003735 -0.194805 
-0.011087 -0.193825 
-0.007441 -0.194461 
-0.009167 -0.201907 
-0.005422 -0.212725 
-0.007256 -0.208200 
-0.004887 -0.209050 
-0.007954 -0.201408 
-0.011419 -0.203156 
-0.020102 -0.193223 
-0.015712 -0.198985 
-0.017603 -0.194582 
-0.013763 -0.202411 
-0.014881 -0.198980 
-0.036629 -0.154935 
-0.032912 -0.166737 
-0.037027 -0.163037 
-0.024097 -0.170745 
-0.028603 -0.169187 
-0.026655 -0.157925 
-0.027542 -0.181636 
-0.028819 -0.177069 
-0.024506 -0.185908 
-0.009795 -0.172576 
-0.005365 -0.158982 
-0.014641 -0.192805 
-0.012944 -0.183944 
-0.016086 -0.158788 
-0.014647 -0.172261 
-0.019429 -0.171699 
-0.021360 -0.189038 
-0.021185 -0.181857 
-0.018072 -0.191267 
-0.044894 -0.139249 
-0.039757 -0.141666 
-0.042941 -0.110596 
-0.041988 -0.126907 
-0.049116 -0.110616 
-0.034306 -0.142872 
-0.028643 -0.143385 
-0.018357 -0.025365 
-0.031324 -0.050351 
-0.027248 -0.034845 
-0.028152 -0.089425 
-0.031154 -0.069752 
-0.024460 -0.068175 
-0.046023 -0.076876 
-0.038608 -0.072655 
-0.042076 -0.092597 
-0.011370 -0.143517 
-0.005674 -0.143483 
-0.022881 -0.143547 
-0.017108 -0.143555 
-0.017204 -0.108102 
-0.017546 -0.126624 
-0.023353 -0.108512 
-0.036381 -0.109888 
-0.029774 -0.109117 
-0.029797 -0.127116 
0.000000 0.000000 
-0.013182 -0.023265 
-0.007342 -0.022648 
-0.009862 -0.022758 
0.000000 0.000000 
-0.018330 -0.045728 
-0.018614 -0.067404 
0.000000 -0.022718 
-0.001658 -0.022712 
0.000000 0.000000 
-0.004293 -0.066817 
-0.003120 -0.045044 
0.000000 -0.066792 
0.000000 0.000000 
-0.003381 -0.022686 
-0.005240 -0.022654 
-0.005773 -0.126343 
0.000000 -0.143472 
-0.015884 -0.088158 
-0.011312 -0.107850 
0.000000 -0.107666 
-0.005607 -0.107714 
-0.005124 -0.087793 
-0.009835 -0.045093 
-0.008722 -0.066885 
-0.013437 -0.067045 
0.000000 0.000000 
0.001658 -0.022712 
0.005240 -0.022654 
0.003381 -0.022686 
0.000000 0.000000 
0.003120 -0.045044 
0.004293 -0.066817 
0.018357 -0.025365 
0.013182 -0.023265 
0.000000 0.000000 
0.018614 -0.067404 
0.018330 -0.045728 
0.024460 -0.068175 
0.000000 0.000000 
0.009862 -0.022758 
0.007342 -0.022648 
0.005773 -0.126343 
0.005674 -0.143483 
0.005124 -0.087793 
0.005607 -0.107714 
0.017204 -0.108102 
0.011312 -0.107850 
0.015884 -0.088158 
0.009835 -0.045093 
0.013437 -0.067045 
0.008722 -0.066885 
0.027248 -0.034845 
0.031324 -0.050351 
0.042076 -0.092597 
0.038608 -0.072655 
0.046023 -0.076876 
0.031154 -0.069752 
0.028152 -0.089425 
0.036629 -0.154935 
0.039757 -0.141666 
0.044894 -0.139249 
0.028643 -0.143385 
0.034306 -0.142872 
0.026655 -0.157925 
0.049116 -0.110616 
0.041988 -0.126907 
0.042941 -0.110596 
0.011370 -0.143517 
0.005365 -0.158982 
0.023353 -0.108512 
0.017546 -0.126624 
0.016086 -0.158788 
0.017108 -0.143555 
0.022881 -0.143547 
0.036381 -0.109888 
0.029797 -0.127116 
0.029774 -0.109117 
0.037027 -0.163037 
0.032912 -0.166737 
0.024506 -0.185908 
0.028819 -0.177069 
0.027542 -0.181636 
0.028603 -0.169187 
0.024097 -0.170745 
0.011419 -0.203156 
0.007954 -0.201408 
0.014881 -0.198980 
0.013763 -0.202411 
0.017603 -0.194582 
0.015712 -0.198985 
0.020102 -0.193223 
0.009795 -0.172576 
0.019429 -0.171699 
0.014647 -0.172261 
0.012944 -0.183944 
0.014641 -0.192805 
0.021360 -0.189038 
0.018072 -0.191267 
0.021185 -0.181857 
0.003362 -0.204519 
0.005293 -0.206339 
0.005468 -0.204295 
0.004894 -0.209879 
0.005103 -0.208204 
0.003311 -0.208430 
0.008825 -0.206486 
0.006939 -0.207554 
0.008299 -0.208138 
0.003765 -0.214756 
0.004099 -0.213790 
0.002988 -0.214064 
0.006558 -0.211961 
0.005294 -0.213088 
0.005919 -0.212895 
0.003217 -0.211608 
0.004397 -0.212663 
0.004661 -0.211363 
0.012060 -0.203190 
0.010637 -0.206024 
0.010802 -0.204021 
0.009373 -0.208081 
0.010156 -0.207377 
0.011044 -0.206150 
0.008295 -0.209321 
0.009240 -0.208429 
0.007877 -0.210408 
0.006174 -0.210689 
0.007167 -0.210865 
0.007747 -0.209595 
0.000000 -0.217945 
0.000534 -0.217914 
0.000437 -0.218280 
0.000784 -0.215921 
0.000652 -0.217132 
0.000000 -0.215961 
0.001267 -0.217920 
0.001063 -0.217788 
0.001580 -0.217564 
0.001389 -0.206636 
0.001231 -0.209634 
0.000000 -0.206671 
0.002765 -0.213942 
0.002149 -0.212061 
0.003214 -0.211859 
0.000000 -0.212217 
0.001076 -0.212178 
0.000927 -0.214272 
0.002581 -0.215877 
0.002987 -0.216250 
0.003393 -0.215572 
0.002076 -0.217237 
0.002546 -0.216802 
0.001998 -0.217136 
0.003838 -0.214858 
0.003164 -0.216045 
0.003097 -0.215273 
0.001565 -0.215797 
0.002338 -0.215583 
0.001940 -0.216788 
0.002572 -0.166114 
0.002451 -0.172779 
0.000000 -0.166133 
0.006515 -0.184584 
0.004635 -0.178941 
0.006947 -0.178855 
0.000000 -0.179010 
0.002318 -0.178992 
0.002175 -0.184750 
0.010637 -0.201374 
0.010130 -0.198090 
0.011761 -0.197594 
0.006804 -0.198790 
0.008476 -0.198485 
0.007673 -0.202333 
0.010057 -0.189430 
0.009274 -0.194184 
0.008066 -0.189674 
0.000000 -0.199295 
0.001710 -0.199265 
0.001549 -0.203180 
0.002025 -0.190049 
0.001869 -0.194888 
0.000000 -0.190074 
0.004634 -0.202910 
0.003416 -0.199173 
0.005116 -0.199017 
0.006061 -0.189854 
0.005593 -0.194665 
0.004046 -0.189977 
0.004289 -0.214840 
0.004555 -0.213238 
0.004557 -0.214331 
0.005252 -0.213681 
0.006267 -0.212091 
0.002775 -0.206529 
0.005520 -0.206083 
0.004153 -0.206347 
0.003678 -0.209328 
0.004267 -0.211568 
0.009517 -0.204711 
0.007322 -0.210068 
0.008409 -0.207609 
0.008206 -0.205276 
0.006872 -0.205729 
0.005306 -0.211179 
0.006081 -0.208677 
0.006325 -0.210683 
-0.000437 -0.218280 
-0.000534 -0.217914 
-0.001580 -0.217564 
-0.001063 -0.217788 
-0.001267 -0.217920 
-0.000652 -0.217132 
-0.000784 -0.215921 
-0.003393 -0.215572 
-0.002987 -0.216250 
-0.002581 -0.215877 
-0.003097 -0.215273 
-0.003164 -0.216045 
-0.003838 -0.214858 
-0.001998 -0.217136 
-0.002546 -0.216802 
-0.002076 -0.217237 
-0.001231 -0.209634 
-0.001389 -0.206636 
-0.000927 -0.214272 
-0.001076 -0.212178 
-0.003214 -0.211859 
-0.002149 -0.212061 
-0.002765 -0.213942 
-0.001940 -0.216788 
-0.002338 -0.215583 
-0.001565 -0.215797 
-0.005468 -0.204295 
-0.005293 -0.206339 
-0.003362 -0.204519 
-0.008299 -0.208138 
-0.006939 -0.207554 
-0.008825 -0.206486 
-0.003311 -0.208430 
-0.005103 -0.208204 
-0.004894 -0.209879 
-0.010802 -0.204021 
-0.010637 -0.206024 
-0.012060 -0.203190 
-0.007877 -0.210408 
-0.009240 -0.208429 
-0.008295 -0.209321 
-0.011044 -0.206150 
-0.010156 -0.207377 
-0.009373 -0.208081 
-0.002988 -0.214064 
-0.004099 -0.213790 
-0.003765 -0.214756 
-0.004661 -0.211363 
-0.004397 -0.212663 
-0.003217 -0.211608 
-0.005919 -0.212895 
-0.005294 -0.213088 
-0.006558 -0.211961 
-0.007747 -0.209595 
-0.007167 -0.210865 
-0.006174 -0.210689 
-0.002451 -0.172779 
-0.002572 -0.166114 
-0.002175 -0.184750 
-0.002318 -0.178992 
-0.006947 -0.178855 
-0.004635 -0.178941 
-0.006515 -0.184584 
-0.001549 -0.203180 
-0.001710 -0.199265 
-0.005116 -0.199017 
-0.003416 -0.199173 
-0.004634 -0.202910 
-0.001869 -0.194888 
-0.002025 -0.190049 
-0.011761 -0.197594 
-0.010130 -0.198090 
-0.010637 -0.201374 
-0.008066 -0.189674 
-0.009274 -0.194184 
-0.010057 -0.189430 
-0.007673 -0.202333 
-0.008476 -0.198485 
-0.006804 -0.198790 
-0.004046 -0.189977 
-0.005593 -0.194665 
-0.006061 -0.189854 
-0.004289 -0.214840 
-0.006267 -0.212091 
-0.005252 -0.213681 
-0.004557 -0.214331 
-0.004555 -0.213238 
-0.009517 -0.204711 
-0.006872 -0.205729 
-0.008206 -0.205276 
-0.008409 -0.207609 
-0.007322 -0.210068 
-0.002775 -0.206529 
-0.004267 -0.211568 
-0.003678 -0.209328 
-0.004153 -0.206347 
-0.005520 -0.206083 
-0.006325 -0.210683 
-0.006081 -0.208677 
-0.005306 -0.211179 
-0.005641 -0.202098 
-0.007621 -0.203645 
-0.012065 -0.201089 
-0.009821 -0.202573 
-0.010313 -0.200304 
-0.009330 -0.204633 
-0.010760 -0.205004 
-0.021344 -0.191179 
-0.018995 -0.194239 
-0.020084 -0.191899 
-0.016786 -0.198107 
-0.017900 -0.196300 
-0.018840 -0.195002 
-0.015143 -0.196882 
-0.016660 -0.196914 
-0.014347 -0.199200 
-0.013287 -0.202202 
-0.013497 -0.199928 
-0.011903 -0.204732 
-0.012750 -0.203802 
-0.016232 -0.197858 
-0.014483 -0.201038 
-0.015649 -0.199679 
-0.013549 -0.201272 
-0.014748 -0.200811 
-0.012737 -0.203111 
-0.038969 -0.153533 
-0.037038 -0.159469 
-0.039199 -0.157549 
-0.032560 -0.162249 
-0.034828 -0.161018 
-0.034221 -0.156018 
-0.034755 -0.168194 
-0.034992 -0.165067 
-0.032847 -0.170316 
-0.022967 -0.164990 
-0.025432 -0.164549 
-0.024046 -0.158261 
-0.026880 -0.174754 
-0.026373 -0.170058 
-0.024799 -0.175729 
-0.029226 -0.157465 
-0.027857 -0.163970 
-0.030235 -0.163218 
-0.025065 -0.185419 
-0.026034 -0.183931 
-0.023694 -0.187741 
-0.030627 -0.175213 
-0.028350 -0.179753 
-0.029994 -0.177500 
-0.024980 -0.183308 
-0.026682 -0.181677 
-0.026974 -0.178625 
-0.030784 -0.168094 
-0.028915 -0.173553 
-0.030903 -0.172088 
-0.005148 -0.166082 
-0.002683 -0.159002 
-0.009252 -0.178730 
-0.007352 -0.172672 
-0.008047 -0.158957 
-0.007721 -0.166037 
-0.010291 -0.165971 
-0.013365 -0.196982 
-0.012878 -0.193371 
-0.015049 -0.183587 
-0.013978 -0.188702 
-0.015899 -0.188190 
-0.012029 -0.189110 
-0.010817 -0.184221 
-0.018755 -0.158671 
-0.017948 -0.165567 
-0.020470 -0.165321 
-0.012854 -0.165878 
-0.015408 -0.165747 
-0.013409 -0.158868 
-0.018309 -0.177637 
-0.017050 -0.172019 
-0.016077 -0.178026 
-0.011544 -0.178558 
-0.013821 -0.178328 
-0.012228 -0.172443 
-0.022309 -0.189758 
-0.023241 -0.184680 
-0.022950 -0.187600 
-0.020899 -0.191498 
-0.019459 -0.192991 
-0.021780 -0.171283 
-0.019173 -0.182565 
-0.020509 -0.177141 
-0.022675 -0.176514 
-0.023157 -0.180984 
-0.014939 -0.196235 
-0.017987 -0.194262 
-0.016480 -0.195336 
-0.016374 -0.192111 
-0.017790 -0.187554 
-0.021463 -0.185825 
-0.019645 -0.186774 
-0.019735 -0.190251 
-0.043167 -0.145647 
-0.040764 -0.147259 
-0.043751 -0.133695 
-0.042369 -0.140647 
-0.046397 -0.132543 
-0.038285 -0.148485 
-0.035734 -0.149397 
-0.046081 -0.102372 
-0.046098 -0.110751 
-0.049230 -0.102694 
-0.039017 -0.127159 
-0.042654 -0.118952 
-0.039541 -0.118931 
-0.048562 -0.118227 
-0.045670 -0.118755 
-0.044868 -0.126400 
-0.027734 -0.150871 
-0.024989 -0.151095 
-0.033119 -0.150063 
-0.030448 -0.150539 
-0.032324 -0.135414 
-0.031493 -0.143190 
-0.035274 -0.135265 
-0.041006 -0.134475 
-0.038174 -0.134973 
-0.037065 -0.142384 
-0.012079 -0.014151 
-0.022383 -0.028489 
-0.017322 -0.020786 
-0.027466 -0.048312 
-0.025684 -0.038172 
-0.022057 -0.036251 
-0.034354 -0.046724 
-0.029932 -0.041511 
-0.035474 -0.053386 
-0.024901 -0.088966 
-0.026593 -0.078979 
-0.023419 -0.078501 
-0.033435 -0.080481 
-0.029935 -0.079626 
-0.031525 -0.090013 
-0.024735 -0.057669 
-0.027695 -0.068830 
-0.028052 -0.058579 
-0.047795 -0.085856 
-0.044350 -0.084373 
-0.045533 -0.093592 
-0.039520 -0.064374 
-0.042402 -0.074661 
-0.043348 -0.067446 
-0.038538 -0.091619 
-0.040730 -0.082891 
-0.037057 -0.081571 
-0.031671 -0.059922 
-0.034815 -0.071011 
-0.035543 -0.061830 
-0.005543 -0.151445 
-0.002774 -0.151451 
-0.011092 -0.151433 
-0.008315 -0.151440 
-0.008642 -0.135141 
-0.008517 -0.143497 
-0.011546 -0.135183 
-0.022222 -0.151242 
-0.019443 -0.151334 
-0.020376 -0.135360 
-0.019992 -0.143562 
-0.023358 -0.135418 
-0.016658 -0.151389 
-0.013874 -0.151419 
-0.019668 -0.098490 
-0.020244 -0.108284 
-0.022748 -0.098745 
-0.014560 -0.126527 
-0.017486 -0.117553 
-0.014487 -0.117428 
-0.023631 -0.117890 
-0.020533 -0.117707 
-0.020567 -0.126738 
-0.014233 -0.143538 
-0.017412 -0.135297 
-0.014468 -0.135236 
-0.042777 -0.101820 
-0.035952 -0.100546 
-0.039381 -0.101180 
-0.039687 -0.110277 
-0.036366 -0.118782 
-0.025923 -0.099071 
-0.026775 -0.118101 
-0.026532 -0.108789 
-0.029192 -0.099477 
-0.032543 -0.099971 
-0.025768 -0.143495 
-0.032896 -0.127208 
-0.029344 -0.135467 
-0.026350 -0.135460 
-0.026700 -0.126994 
-0.033065 -0.109489 
-0.029957 -0.118331 
-0.033162 -0.118567 
0.000000 0.000000 
-0.009410 -0.012377 
-0.006686 -0.011490 
-0.007823 -0.011754 
0.000000 0.000000 
-0.015415 -0.023944 
-0.019052 -0.035183 
-0.003743 -0.011314 
-0.004346 -0.011310 
0.000000 0.000000 
-0.012430 -0.034073 
-0.008533 -0.022679 
-0.010701 -0.033977 
0.000000 0.000000 
-0.005017 -0.011324 
-0.005781 -0.011373 
-0.021440 -0.067719 
-0.020408 -0.078154 
-0.021009 -0.046217 
-0.021711 -0.057066 
-0.016388 -0.056417 
-0.018942 -0.056672 
-0.015926 -0.045430 
-0.011382 -0.022927 
-0.014350 -0.034256 
-0.016526 -0.034588 
0.000000 -0.011401 
-0.000421 -0.011400 
0.000000 0.000000 
-0.001204 -0.033938 
-0.000825 -0.022718 
0.000000 -0.033937 
0.000000 0.000000 
-0.000847 -0.011395 
-0.001281 -0.011386 
-0.002368 -0.077398 
-0.002138 -0.066801 
0.000000 -0.077386 
-0.004715 -0.045046 
-0.003747 -0.056015 
-0.005660 -0.056028 
0.000000 -0.056000 
-0.001865 -0.056006 
-0.001553 -0.045043 
0.000000 0.000000 
-0.002675 -0.011343 
-0.003190 -0.011327 
-0.001727 -0.011374 
-0.002190 -0.011359 
0.000000 0.000000 
-0.006255 -0.033913 
-0.004288 -0.022669 
-0.004932 -0.033919 
-0.002420 -0.033935 
-0.003659 -0.033928 
-0.002507 -0.022701 
-0.002837 -0.143475 
0.000000 -0.151460 
-0.008678 -0.126387 
-0.005753 -0.135110 
0.000000 -0.135082 
-0.002874 -0.135091 
-0.002883 -0.126316 
-0.018775 -0.088353 
-0.016678 -0.098294 
-0.010930 -0.098035 
-0.013769 -0.098145 
-0.013090 -0.088016 
-0.014229 -0.107959 
-0.011532 -0.117330 
0.000000 -0.097854 
-0.002697 -0.097868 
-0.002554 -0.087764 
-0.002859 -0.117172 
-0.002798 -0.107680 
0.000000 -0.117158 
-0.007726 -0.087841 
-0.005408 -0.097901 
-0.008148 -0.097955 
-0.008615 -0.117256 
-0.008441 -0.107770 
-0.005727 -0.117204 
-0.006252 -0.022644 
-0.008054 -0.045064 
-0.007643 -0.033914 
-0.009117 -0.033931 
-0.011720 -0.045150 
-0.004753 -0.077421 
-0.009641 -0.077518 
-0.007171 -0.077460 
-0.006481 -0.066844 
-0.007623 -0.056050 
-0.017543 -0.077905 
-0.014010 -0.056254 
-0.015956 -0.067190 
-0.014807 -0.077728 
-0.012180 -0.077604 
-0.009654 -0.056088 
-0.011033 -0.066949 
-0.011775 -0.056151 
0.000000 0.000000 
0.000421 -0.011400 
0.001281 -0.011386 
0.000847 -0.011395 
0.000000 0.000000 
0.000825 -0.022718 
0.001204 -0.033938 
0.003190 -0.011327 
0.002675 -0.011343 
0.000000 0.000000 
0.004932 -0.033919 
0.004288 -0.022669 
0.006255 -0.033913 
0.000000 0.000000 
0.002190 -0.011359 
0.001727 -0.011374 
0.002138 -0.066801 
0.002368 -0.077398 
0.001553 -0.045043 
0.001865 -0.056006 
0.005660 -0.056028 
0.003747 -0.056015 
0.004715 -0.045046 
0.002507 -0.022701 
0.003659 -0.033928 
0.002420 -0.033935 
0.012079 -0.014151 
0.009410 -0.012377 
0.000000 0.000000 
0.019052 -0.035183 
0.015415 -0.023944 
0.022057 -0.036251 
0.000000 0.000000 
0.007823 -0.011754 
0.006686 -0.011490 
0.020408 -0.078154 
0.021440 -0.067719 
0.023419 -0.078501 
0.015926 -0.045430 
0.018942 -0.056672 
0.016388 -0.056417 
0.024735 -0.057669 
0.021711 -0.057066 
0.021009 -0.046217 
0.000000 0.000000 
0.004346 -0.011310 
0.003743 -0.011314 
0.005781 -0.011373 
0.005017 -0.011324 
0.000000 0.000000 
0.010701 -0.033977 
0.008533 -0.022679 
0.012430 -0.034073 
0.016526 -0.034588 
0.014350 -0.034256 
0.011382 -0.022927 
0.002837 -0.143475 
0.002774 -0.151451 
0.002883 -0.126316 
0.002874 -0.135091 
0.008642 -0.135141 
0.005753 -0.135110 
0.008678 -0.126387 
0.002554 -0.087764 
0.002697 -0.097868 
0.008148 -0.097955 
0.005408 -0.097901 
0.007726 -0.087841 
0.002798 -0.107680 
0.002859 -0.117172 
0.019668 -0.098490 
0.016678 -0.098294 
0.018775 -0.088353 
0.011532 -0.117330 
0.014229 -0.107959 
0.014487 -0.117428 
0.013090 -0.088016 
0.013769 -0.098145 
0.010930 -0.098035 
0.005727 -0.117204 
0.008441 -0.107770 
0.008615 -0.117256 
0.006252 -0.022644 
0.011720 -0.045150 
0.009117 -0.033931 
0.007643 -0.033914 
0.008054 -0.045064 
0.017543 -0.077905 
0.012180 -0.077604 
0.014807 -0.077728 
0.015956 -0.067190 
0.014010 -0.056254 
0.004753 -0.077421 
0.007623 -0.056050 
0.006481 -0.066844 
0.007171 -0.077460 
0.009641 -0.077518 
0.011775 -0.056151 
0.011033 -0.066949 
0.009654 -0.056088 
0.017322 -0.020786 
0.022383 -0.028489 
0.035474 -0.053386 
0.029932 -0.041511 
0.034354 -0.046724 
0.025684 -0.038172 
0.027466 -0.048312 
0.045533 -0.093592 
0.044350 -0.084373 
0.047795 -0.085856 
0.037057 -0.081571 
0.040730 -0.082891 
0.038538 -0.091619 
0.043348 -0.067446 
0.042402 -0.074661 
0.039520 -0.064374 
0.026593 -0.078979 
0.024901 -0.088966 
0.028052 -0.058579 
0.027695 -0.068830 
0.031525 -0.090013 
0.029935 -0.079626 
0.033435 -0.080481 
0.035543 -0.061830 
0.034815 -0.071011 
0.031671 -0.059922 
0.038969 -0.153533 
0.040764 -0.147259 
0.043167 -0.145647 
0.035734 -0.149397 
0.038285 -0.148485 
0.034221 -0.156018 
0.046397 -0.132543 
0.042369 -0.140647 
0.043751 -0.133695 
0.024989 -0.151095 
0.027734 -0.150871 
0.024046 -0.158261 
0.035274 -0.135265 
0.031493 -0.143190 
0.032324 -0.135414 
0.029226 -0.157465 
0.030448 -0.150539 
0.033119 -0.150063 
0.049230 -0.102694 
0.046098 -0.110751 
0.046081 -0.102372 
0.044868 -0.126400 
0.045670 -0.118755 
0.048562 -0.118227 
0.039541 -0.118931 
0.042654 -0.118952 
0.039017 -0.127159 
0.037065 -0.142384 
0.038174 -0.134973 
0.041006 -0.134475 
0.005543 -0.151445 
0.002683 -0.159002 
0.011546 -0.135183 
0.008517 -0.143497 
0.008047 -0.158957 
0.008315 -0.151440 
0.011092 -0.151433 
0.022748 -0.098745 
0.020244 -0.108284 
0.020567 -0.126738 
0.020533 -0.117707 
0.023631 -0.117890 
0.017486 -0.117553 
0.014560 -0.126527 
0.018755 -0.158671 
0.019443 -0.151334 
0.022222 -0.151242 
0.013874 -0.151419 
0.016658 -0.151389 
0.013409 -0.158868 