# vtk DataFile Version 2.0
Unstructured Grid Example
ASCII
DATASET UNSTRUCTURED_GRID

POINTS 81 float
0.008775 -0.206534 0.000000 
0.991225 -0.206534 0.000000 
1.000000 1.000000 0.000000 
0.000000 1.000000 0.000000 
0.500000 -0.213859 0.000000 
0.960688 0.349758 0.000000 
0.500000 1.000000 0.000000 
0.039312 0.349758 0.000000 
0.500000 0.341168 0.000000 
0.254999 -0.213528 0.000000 
0.500000 0.049568 0.000000 
0.261618 0.051076 0.000000 
0.745001 -0.213528 0.000000 
0.738382 0.051076 0.000000 
0.977316 0.060030 0.000000 
0.729464 0.343005 0.000000 
0.953520 0.656262 0.000000 
0.729560 0.662497 0.000000 
0.750000 1.000000 0.000000 
0.500000 0.663512 0.000000 
0.250000 1.000000 0.000000 
0.270440 0.662497 0.000000 
0.046480 0.656262 0.000000 
0.270536 0.343005 0.000000 
0.022684 0.060030 0.000000 
0.132081 -0.210486 0.000000 
0.257720 -0.084498 0.000000 
0.136176 -0.081479 0.000000 
0.500000 -0.085611 0.000000 
0.378879 -0.085806 0.000000 
0.377589 -0.214810 0.000000 
0.382995 0.192449 0.000000 
0.380795 0.049803 0.000000 
0.500000 0.191840 0.000000 
0.622411 -0.214810 0.000000 
0.621121 -0.085806 0.000000 
0.863824 -0.081479 0.000000 
0.742280 -0.084498 0.000000 
0.867919 -0.210486 0.000000 
0.619205 0.049803 0.000000 
0.617005 0.192449 0.000000 
0.985584 -0.076406 0.000000 
0.857815 0.054069 0.000000 
0.844563 0.344591 0.000000 
0.851014 0.196180 0.000000 
0.968383 0.202214 0.000000 
0.733867 0.193560 0.000000 
0.614703 0.342450 0.000000 
0.954174 0.500043 0.000000 
0.840404 0.499049 0.000000 
0.853588 0.829304 0.000000 
0.841966 0.660452 0.000000 
0.963306 0.820160 0.000000 
0.727329 0.499453 0.000000 
0.613750 0.499727 0.000000 
0.875000 1.000000 0.000000 
0.737323 0.830323 0.000000 
0.500000 0.830750 0.000000 
0.619030 0.830412 0.000000 
0.625000 1.000000 0.000000 
0.615169 0.663022 0.000000 
0.500000 0.499836 0.000000 
0.375000 1.000000 0.000000 
0.380970 0.830412 0.000000 
0.146412 0.829304 0.000000 
0.262677 0.830323 0.000000 
0.125000 1.000000 0.000000 
0.384831 0.663022 0.000000 
0.386250 0.499727 0.000000 
0.036694 0.820160 0.000000 
0.158034 0.660452 0.000000 
0.155437 0.344591 0.000000 
0.159596 0.499049 0.000000 
0.045826 0.500043 0.000000 
0.272671 0.499453 0.000000 
0.385297 0.342450 0.000000 
0.031617 0.202214 0.000000 
0.148986 0.196180 0.000000 
0.142185 0.054069 0.000000 
0.014416 -0.076406 0.000000 
0.266133 0.193560 0.000000 

CELLS 128 512
3  0 25 27 
3  9 26 25 
3  11 27 26 
3  25 26 27 
3  4 28 30 
3  10 29 28 
3  9 30 29 
3  28 29 30 
3  8 31 33 
3  11 32 31 
3  10 33 32 
3  31 32 33 
3  9 29 26 
3  10 32 29 
3  11 26 32 
3  29 32 26 
3  4 34 28 
3  12 35 34 
3  10 28 35 
3  34 35 28 
3  1 36 38 
3  13 37 36 
3  12 38 37 
3  36 37 38 
3  8 33 40 
3  10 39 33 
3  13 40 39 
3  33 39 40 
3  12 37 35 
3  13 39 37 
3  10 35 39 
3  37 39 35 
3  1 41 36 
3  14 42 41 
3  13 36 42 
3  41 42 36 
3  5 43 45 
3  15 44 43 
3  14 45 44 
3  43 44 45 
3  8 40 47 
3  13 46 40 
3  15 47 46 
3  40 46 47 
3  14 44 42 
3  15 46 44 
3  13 42 46 
3  44 46 42 
3  5 48 43 
3  16 49 48 
3  15 43 49 
3  48 49 43 
3  2 50 52 
3  17 51 50 
3  16 52 51 
3  50 51 52 
3  8 47 54 
3  15 53 47 
3  17 54 53 
3  47 53 54 
3  16 51 49 
3  17 53 51 
3  15 49 53 
3  51 53 49 
3  2 55 50 
3  18 56 55 
3  17 50 56 
3  55 56 50 
3  6 57 59 
3  19 58 57 
3  18 59 58 
3  57 58 59 
3  8 54 61 
3  17 60 54 
3  19 61 60 
3  54 60 61 
3  18 58 56 
3  19 60 58 
3  17 56 60 
3  58 60 56 
3  6 62 57 
3  20 63 62 
3  19 57 63 
3  62 63 57 
3  3 64 66 
3  21 65 64 
3  20 66 65 
3  64 65 66 
3  8 61 68 
3  19 67 61 
3  21 68 67 
3  61 67 68 
3  20 65 63 
3  21 67 65 
3  19 63 67 
3  65 67 63 
3  3 69 64 
3  22 70 69 
3  21 64 70 
3  69 70 64 
3  7 71 73 
3  23 72 71 
3  22 73 72 
3  71 72 73 
3  8 68 75 
3  21 74 68 
3  23 75 74 
3  68 74 75 
3  22 72 70 
3  23 74 72 
3  21 70 74 
3  72 74 70 
3  7 76 71 
3  24 77 76 
3  23 71 77 
3  76 77 71 
3  0 27 79 
3  11 78 27 
3  24 79 78 
3  27 78 79 
3  8 75 31 
3  23 80 75 
3  11 31 80 
3  75 80 31 
3  24 78 77 
3  11 80 78 
3  23 77 80 
3  78 80 77 

CELL_TYPES 128
5
5
5
5
5
5
5
5
5
5
5
5
5
5
5
5
5
5
5
5
5
5
5
5
5
5
5
5
5
5
5
5
5
5
5
5
5
5
5
5
5
5
5
5
5
5
5
5
5
5
5
5
5
5
5
5
5
5
5
5
5
5
5
5
5
5
5
5
5
5
5
5
5
5
5
5
5
5
5
5
5
5
5
5
5
5
5
5
5
5
5
5
5
5
5
5
5
5
5
5
5
5
5
5
5
5
5
5
5
5
5
5
5
5
5
5
5
5
5
5
5
5
5
5
5
5
5
5

POINT_DATA 81

SCALARS u_h float 2
LOOKUP_TABLE default
0.008775 -0.206534 
-0.008775 -0.206534 
0.000000 0.000000 
0.000000 0.000000 
-0.000000 -0.213859 
-0.039312 -0.150242 
0.000000 0.000000 
0.039312 -0.150242 
-0.000000 -0.158832 
0.004999 -0.213528 
-0.000000 -0.200432 
0.011618 -0.198924 
-0.004999 -0.213528 
-0.011618 -0.198924 
-0.022684 -0.189970 
-0.020536 -0.156995 
-0.046480 -0.093738 
-0.020440 -0.087503 
0.000000 0.000000 
-0.000000 -0.086488 
0.000000 0.000000 
0.020440 -0.087503 
0.046480 -0.093738 
0.020536 -0.156995 
0.022684 -0.189970 
0.007081 -0.210486 
0.007720 -0.209498 
0.011176 -0.206479 
-0.000000 -0.210611 
0.003879 -0.210806 
0.002589 -0.214810 
0.007995 -0.182551 
0.005795 -0.200197 
-0.000000 -0.183160 
-0.002589 -0.214810 
-0.003879 -0.210806 
-0.011176 -0.206479 
-0.007720 -0.209498 
-0.007081 -0.210486 
-0.005795 -0.200197 
-0.007995 -0.182551 
-0.014416 -0.201406 
-0.017185 -0.195931 
-0.030437 -0.155409 
-0.023986 -0.178820 
-0.031617 -0.172786 
-0.016133 -0.181440 
-0.010297 -0.157550 
-0.045826 -0.124957 
-0.034596 -0.125951 
-0.021412 -0.045696 
-0.033034 -0.089548 
-0.036694 -0.054840 
-0.022671 -0.125547 
-0.011250 -0.125273 
0.000000 0.000000 
-0.012677 -0.044677 
-0.000000 -0.044250 
-0.005970 -0.044588 
0.000000 0.000000 
-0.009831 -0.086978 
-0.000000 -0.125164 
0.000000 0.000000 
0.005970 -0.044588 
0.021412 -0.045696 
0.012677 -0.044677 
0.000000 0.000000 
0.009831 -0.086978 
0.011250 -0.125273 
0.036694 -0.054840 
0.033034 -0.089548 
0.030437 -0.155409 
0.034596 -0.125951 
0.045826 -0.124957 
0.022671 -0.125547 
0.010297 -0.157550 
0.031617 -0.172786 
0.023986 -0.178820 
0.017185 -0.195931 
0.014416 -0.201406 
0.016133 -0.181440 

CELL_DATA 128

SCALARS epsilon float 4
LOOKUP_TABLE default
-0.012111 0.033039 0.000000 0.001276
-0.016040 0.032529 0.000000 -0.000729
-0.026880 0.082008 0.000000 0.004809
-0.026711 0.032619 0.000000 0.005137
-0.020923 0.025681 0.000000 0.003706
-0.031511 0.078132 0.000000 0.000724
-0.019315 0.031675 0.000000 0.000289
-0.031473 0.031504 0.000000 0.006079
-0.065992 0.176200 0.000000 -0.002031
-0.047377 0.131566 0.000000 0.004636
-0.047430 0.128772 0.000000 -0.000823
-0.065777 0.131450 0.000000 0.007130
-0.030741 0.032003 0.000000 0.006153
-0.047293 0.081322 0.000000 0.007124
-0.046911 0.081390 0.000000 0.011569
-0.030947 0.081494 0.000000 0.003040
-0.020923 0.025681 0.000000 -0.003706
-0.019315 0.031675 0.000000 -0.000289
-0.031511 0.078132 0.000000 -0.000724
-0.031473 0.031504 0.000000 -0.006079
-0.012111 0.033039 0.000000 -0.001276
-0.026880 0.082008 0.000000 -0.004809
-0.016040 0.032529 0.000000 0.000729
-0.026711 0.032619 0.000000 -0.005137
-0.065992 0.176200 0.000000 0.002031
-0.047430 0.128772 0.000000 0.000823
-0.047377 0.131566 0.000000 -0.004636
-0.065777 0.131450 0.000000 -0.007130
-0.030741 0.032003 0.000000 -0.006153
-0.046911 0.081390 0.000000 -0.011569
-0.047293 0.081322 0.000000 -0.007124
-0.030947 0.081494 0.000000 -0.003040
-0.023459 0.042784 0.000000 -0.003643
-0.039945 0.091363 0.000000 -0.012531
-0.043344 0.082214 0.000000 -0.013982
-0.023373 0.083413 0.000000 -0.005817
-0.069635 0.167437 0.000000 -0.014925
-0.080612 0.170835 0.000000 -0.022014
-0.057465 0.132351 0.000000 -0.016337
-0.059612 0.173292 0.000000 -0.006531
-0.085431 0.180772 0.000000 -0.005518
-0.066343 0.130568 0.000000 -0.015146
-0.084583 0.177100 0.000000 -0.016826
-0.066937 0.180735 0.000000 -0.005893
-0.041328 0.130965 0.000000 -0.007096
-0.063643 0.177769 0.000000 -0.009556
-0.044185 0.131260 0.000000 -0.008131
-0.062426 0.128906 0.000000 -0.019420
-0.070508 0.184959 0.000000 -0.010144
-0.093786 0.219868 0.000000 0.000393
-0.081523 0.209322 0.000000 -0.012315
-0.093162 0.209155 0.000000 -0.014426
-0.086884 0.368284 0.000000 0.125409
-0.101608 0.294686 0.000000 0.042201
-0.108830 0.268017 0.000000 0.028749
-0.120930 0.300638 0.000000 0.022674
-0.085652 0.226385 0.000000 0.000063
-0.085063 0.221284 0.000000 -0.007165
-0.095352 0.260595 0.000000 0.008455
-0.095490 0.226268 0.000000 -0.004880
-0.112849 0.251746 0.000000 -0.006148
-0.105404 0.260894 0.000000 0.003189
-0.099838 0.221170 0.000000 -0.010336
-0.099812 0.251015 0.000000 0.005318
0.007868 0.303537 0.000000 0.079511
0.002791 0.297972 0.000000 0.047193
-0.070671 0.288137 0.000000 0.028186
-0.062143 0.304577 0.000000 0.082477
0.000000 0.295627 0.000000 0.000000
-0.048894 0.284455 0.000000 -0.001007
0.000620 0.297484 0.000000 0.022227
-0.048111 0.297579 0.000000 0.022348
-0.094010 0.234703 0.000000 -0.000341
-0.088354 0.262056 0.000000 0.004269
-0.081720 0.264220 0.000000 -0.001488
-0.093956 0.262020 0.000000 0.005562
-0.051923 0.298025 0.000000 0.049606
-0.081309 0.285404 0.000000 0.014235
-0.086952 0.287940 0.000000 0.030170
-0.054781 0.285324 0.000000 0.015011
0.000000 0.295627 0.000000 0.000000
0.000620 0.297484 0.000000 -0.022227
-0.048894 0.284455 0.000000 0.001007
-0.048111 0.297579 0.000000 -0.022348
0.007868 0.303537 0.000000 -0.079511
-0.070671 0.288137 0.000000 -0.028186
0.002791 0.297972 0.000000 -0.047193
-0.062143 0.304577 0.000000 -0.082477
-0.094010 0.234703 0.000000 0.000341
-0.081720 0.264220 0.000000 0.001488
-0.088354 0.262056 0.000000 -0.004269
-0.093956 0.262020 0.000000 -0.005562
-0.051923 0.298025 0.000000 -0.049606
-0.086952 0.287940 0.000000 -0.030170
-0.081309 0.285404 0.000000 -0.014235
-0.054781 0.285324 0.000000 -0.015011
-0.086884 0.368284 0.000000 -0.125409
-0.108830 0.268017 0.000000 -0.028749
-0.101608 0.294686 0.000000 -0.042201
-0.120930 0.300638 0.000000 -0.022674
-0.070508 0.184959 0.000000 0.010144
-0.081523 0.209322 0.000000 0.012315
-0.093786 0.219868 0.000000 -0.000393
-0.093162 0.209155 0.000000 0.014426
-0.085652 0.226385 0.000000 -0.000063
-0.095352 0.260595 0.000000 -0.008455
-0.085063 0.221284 0.000000 0.007165
-0.095490 0.226268 0.000000 0.004880
-0.112849 0.251746 0.000000 0.006148
-0.099838 0.221170 0.000000 0.010336
-0.105404 0.260894 0.000000 -0.003189
-0.099812 0.251015 0.000000 -0.005318
-0.069635 0.167437 0.000000 0.014925
-0.057465 0.132351 0.000000 0.016337
-0.080612 0.170835 0.000000 0.022014
-0.059612 0.173292 0.000000 0.006531
-0.023459 0.042784 0.000000 0.003643
-0.043344 0.082214 0.000000 0.013982
-0.039945 0.091363 0.000000 0.012531
-0.023373 0.083413 0.000000 0.005817
-0.085431 0.180772 0.000000 0.005518
-0.084583 0.177100 0.000000 0.016826
-0.066343 0.130568 0.000000 0.015146
-0.066937 0.180735 0.000000 0.005893
-0.041328 0.130965 0.000000 0.007096
-0.044185 0.131260 0.000000 0.008131
-0.063643 0.177769 0.000000 0.009556
-0.062426 0.128906 0.000000 0.019420

SCALARS sigma float 4
LOOKUP_TABLE default
-0.015049 0.718891 0.193363 0.009241
-0.115693 0.673848 0.153339 -0.020762
0.055227 1.799419 0.509518 0.054617
-0.411051 0.563885 0.041987 0.070290
-0.304963 0.457293 0.041849 0.062093
-0.092457 1.667579 0.432726 0.012260
-0.204955 0.626484 0.115805 0.000506
-0.535636 0.498580 -0.010180 0.097476
-0.174631 3.617805 0.945927 -0.035751
-0.046970 2.782776 0.751595 0.055860
-0.069335 2.718872 0.727895 -0.014193
-0.563774 2.585345 0.555377 0.097664
-0.516356 0.515641 -0.000196 0.092608
-0.499992 1.580196 0.296759 0.106599
-0.498779 1.581090 0.297338 0.166464
-0.049204 1.753548 0.468226 0.037912
-0.304963 0.457293 0.041849 -0.062093
-0.204955 0.626484 0.115805 -0.000506
-0.092457 1.667579 0.432726 -0.012260
-0.535636 0.498580 -0.010180 -0.097476
-0.015049 0.718891 0.193363 -0.009241
0.055227 1.799419 0.509518 -0.054617
-0.115693 0.673848 0.153339 0.020762
-0.411051 0.563885 0.041987 -0.070290
-0.174631 3.617805 0.945927 0.035751
-0.069335 2.718872 0.727895 0.014193
-0.046970 2.782776 0.751595 -0.055860
-0.563774 2.585345 0.555377 -0.097664
-0.516356 0.515641 -0.000196 -0.092608
-0.498779 1.581090 0.297338 -0.166464
-0.499992 1.580196 0.296759 -0.106599
-0.049204 1.753548 0.468226 -0.037912
-0.242053 0.838566 0.163877 -0.036646
-0.265739 1.857044 0.437172 -0.144633
-0.411500 1.626854 0.333888 -0.190736
0.142820 1.852126 0.548062 -0.058014
-0.404379 3.346169 0.808184 -0.150899
-0.671264 3.324024 0.728780 -0.291705
-0.388986 2.649492 0.621018 -0.177536
-0.057500 3.587567 0.969799 -0.024470
-0.696866 3.508077 0.772311 -0.060786
-0.600329 2.553262 0.536520 -0.209486
-0.714349 3.430885 0.746301 -0.229922
-0.166496 3.708491 0.973076 -0.069679
0.076059 2.798877 0.789818 -0.050592
-0.110018 3.669560 0.977896 -0.104271
0.025407 2.800052 0.776225 -0.091575
-0.526207 2.544651 0.554517 -0.257107
-0.264503 3.740517 0.954949 -0.078990
-0.606022 4.289915 1.012059 0.019646
-0.350087 4.186680 1.054009 -0.148340
-0.689881 4.055490 0.924618 -0.184573
-0.008609 7.154771 1.963231 1.407242
-0.314885 5.774157 1.499800 0.516520
-0.725415 5.130402 1.210161 0.312977
-0.866247 5.639839 1.311426 0.136326
-0.315242 4.522317 1.155790 0.018687
-0.342858 4.416595 1.119158 -0.090180
-0.320021 5.155629 1.328464 0.108322
-0.602936 4.411863 1.046409 -0.070399
-0.912998 4.760548 1.057019 -0.149550
-0.615320 5.047516 1.217636 0.010386
-0.775990 4.250456 0.954523 -0.147125
-0.527569 4.900786 1.201433 0.065035
2.677043 7.067395 2.677043 1.028618
2.633068 6.951301 2.633068 0.612646
0.582807 5.997709 1.807834 0.354114
0.732758 6.349107 1.945567 1.052118
2.614493 6.902262 2.614493 0.000000
1.201602 6.166053 2.024081 -0.017395
2.629205 6.941101 2.629205 0.288640
1.308721 6.442583 2.129479 0.285934
-0.489068 4.612828 1.132901 -0.006207
-0.101722 5.265007 1.418485 0.049085
0.109381 5.384609 1.509338 -0.026678
-0.265533 5.202413 1.356286 0.072259
1.138086 6.385955 2.067044 0.642807
0.282376 5.834949 1.680584 0.179217
0.111164 5.815801 1.628287 0.386391
1.036066 6.119071 1.965697 0.195292
2.614493 6.902262 2.614493 0.000000
2.629205 6.941101 2.629205 -0.288640
1.201602 6.166053 2.024081 0.017395
1.308721 6.442583 2.129479 -0.285934
2.677043 7.067395 2.677043 -1.028618
0.582807 5.997709 1.807834 -0.354114
2.633068 6.951301 2.633068 -0.612646
0.732758 6.349107 1.945567 -1.052118
-0.489068 4.612828 1.132901 0.006207
0.109381 5.384609 1.509338 0.026678
-0.101722 5.265007 1.418485 -0.049085
-0.265533 5.202413 1.356286 -0.072259
1.138086 6.385955 2.067044 -0.642807
0.111164 5.815801 1.628287 -0.386391
0.282376 5.834949 1.680584 -0.179217
1.036066 6.119071 1.965697 -0.195292
-0.008609 7.154771 1.963231 -1.407242
-0.725415 5.130402 1.210161 -0.312977
-0.314885 5.774157 1.499800 -0.516520
-0.866247 5.639839 1.311426 -0.136326
-0.264503 3.740517 0.954949 0.078990
-0.350087 4.186680 1.054009 0.148340
-0.606022 4.289915 1.012059 -0.019646
-0.689881 4.055490 0.924618 0.184573
-0.315242 4.522317 1.155790 -0.018687
-0.320021 5.155629 1.328464 -0.108322
-0.342858 4.416595 1.119158 0.090180
-0.602936 4.411863 1.046409 0.070399
-0.912998 4.760548 1.057019 0.149550
-0.775990 4.250456 0.954523 0.147125
-0.615320 5.047516 1.217636 -0.010386
-0.527569 4.900786 1.201433 -0.065035
-0.404379 3.346169 0.808184 0.150899
-0.388986 2.649492 0.621018 0.177536
-0.671264 3.324024 0.728780 0.291705
-0.057500 3.587567 0.969799 0.024470
-0.242053 0.838566 0.163877 0.036646
-0.411500 1.626854 0.333888 0.190736
-0.265739 1.857044 0.437172 0.144633
0.142820 1.852126 0.548062 0.058014
-0.696866 3.508077 0.772311 0.060786
-0.714349 3.430885 0.746301 0.229922
-0.600329 2.553262 0.536520 0.209486
-0.166496 3.708491 0.973076 0.069679
0.076059 2.798877 0.789818 0.050592
0.025407 2.800052 0.776225 0.091575
-0.110018 3.669560 0.977896 0.104271
-0.526207 2.544651 0.554517 0.257107

