# vtk DataFile Version 2.0
Unstructured Grid Example
ASCII
DATASET UNSTRUCTURED_GRID

POINTS 25 float
0.007332 -0.105492 0.000000 
0.992668 -0.105492 0.000000 
1.000000 1.000000 0.000000 
0.000000 1.000000 0.000000 
0.500000 -0.103794 0.000000 
0.981676 0.425777 0.000000 
0.500000 1.000000 0.000000 
0.018324 0.425777 0.000000 
0.500000 0.421264 0.000000 
0.253882 -0.105620 0.000000 
0.500000 0.152190 0.000000 
0.255465 0.151929 0.000000 
0.746118 -0.105620 0.000000 
0.744535 0.151929 0.000000 
0.988442 0.154255 0.000000 
0.740536 0.422802 0.000000 
0.978453 0.703937 0.000000 
0.740824 0.707230 0.000000 
0.750000 1.000000 0.000000 
0.500000 0.707723 0.000000 
0.250000 1.000000 0.000000 
0.259176 0.707230 0.000000 
0.021547 0.703937 0.000000 
0.259464 0.422802 0.000000 
0.011558 0.154255 0.000000 

CELLS 32 128
3  0 9 11 
3  4 10 9 
3  8 11 10 
3  9 10 11 
3  4 12 10 
3  1 13 12 
3  8 10 13 
3  12 13 10 
3  1 14 13 
3  5 15 14 
3  8 13 15 
3  14 15 13 
3  5 16 15 
3  2 17 16 
3  8 15 17 
3  16 17 15 
3  2 18 17 
3  6 19 18 
3  8 17 19 
3  18 19 17 
3  6 20 19 
3  3 21 20 
3  8 19 21 
3  20 21 19 
3  3 22 21 
3  7 23 22 
3  8 21 23 
3  22 23 21 
3  7 24 23 
3  0 11 24 
3  8 23 11 
3  24 11 23 

CELL_TYPES 32
5
5
5
5
5
5
5
5
5
5
5
5
5
5
5
5
5
5
5
5
5
5
5
5
5
5
5
5
5
5
5
5

POINT_DATA 25

SCALARS u_h float 2
LOOKUP_TABLE default
0.007332 -0.105492 
-0.007332 -0.105492 
0.000000 0.000000 
0.000000 0.000000 
-0.000000 -0.103794 
-0.018324 -0.074223 
0.000000 0.000000 
0.018324 -0.074223 
0.000000 -0.078736 
0.003882 -0.105620 
-0.000000 -0.097810 
0.005465 -0.098071 
-0.003882 -0.105620 
-0.005465 -0.098071 
-0.011558 -0.095745 
-0.009464 -0.077198 
-0.021547 -0.046063 
-0.009176 -0.042770 
0.000000 0.000000 
0.000000 -0.042277 
0.000000 0.000000 
0.009176 -0.042770 
0.021547 -0.046063 
0.009464 -0.077198 
0.011558 -0.095745 

CELL_DATA 32

SCALARS epsilon float 4
LOOKUP_TABLE default
-0.013872 0.029746 0.000000 0.002960
-0.015647 0.023673 0.000000 0.003567
-0.022100 0.073401 0.000000 0.000484
-0.022087 0.029736 0.000000 0.003741
-0.015647 0.023673 0.000000 -0.003567
-0.013872 0.029746 0.000000 -0.002960
-0.022100 0.073401 0.000000 -0.000484
-0.022087 0.029736 0.000000 -0.003741
-0.024373 0.038427 0.000000 -0.004177
-0.035424 0.082776 0.000000 -0.008468
-0.038361 0.080137 0.000000 -0.005428
-0.024412 0.080205 0.000000 -0.003858
-0.035849 0.106562 0.000000 -0.001274
-0.046775 0.168741 0.000000 0.038681
-0.038579 0.128376 0.000000 0.003291
-0.050691 0.128455 0.000000 -0.005175
0.000491 0.156760 0.000000 0.017960
0.000000 0.155109 0.000000 -0.000000
-0.037376 0.135377 0.000000 -0.000860
-0.036783 0.156824 0.000000 0.017803
0.000000 0.155109 0.000000 -0.000000
0.000491 0.156760 0.000000 -0.017960
-0.037376 0.135377 0.000000 0.000860
-0.036783 0.156824 0.000000 -0.017803
-0.046775 0.168741 0.000000 -0.038681
-0.035849 0.106562 0.000000 0.001274
-0.038579 0.128376 0.000000 -0.003291
-0.050691 0.128455 0.000000 0.005175
-0.035424 0.082776 0.000000 0.008468
-0.024373 0.038427 0.000000 0.004177
-0.038361 0.080137 0.000000 0.005428
-0.024412 0.080205 0.000000 0.003858

SCALARS sigma float 4
LOOKUP_TABLE default
-0.076172 0.634039 0.153260 0.046991
-0.182625 0.459358 0.076025 0.059431
0.118837 1.647932 0.485376 0.008112
-0.297152 0.550120 0.069497 0.060025
-0.182625 0.459358 0.076025 -0.059431
-0.076172 0.634039 0.153260 -0.046991
0.118837 1.647932 0.485376 -0.008112
-0.297152 0.550120 0.069497 -0.060025
-0.278511 0.746411 0.128544 -0.061489
-0.166017 1.735863 0.431276 -0.118633
-0.264723 1.644120 0.378955 -0.077415
0.116222 1.789385 0.523518 -0.051908
0.047634 2.310077 0.647723 -0.007578
0.217955 3.619927 1.054363 0.531364
0.171425 2.801811 0.816823 0.054737
-0.163465 2.675366 0.690083 -0.091124
1.460888 3.856745 1.460888 0.257000
1.446473 3.818688 1.446473 -0.000000
0.266864 2.979054 0.891736 -0.014662
0.457306 3.477840 1.081084 0.252430
1.446473 3.818688 1.446473 -0.000000
1.460888 3.856745 1.460888 -0.257000
0.266864 2.979054 0.891736 0.014662
0.457306 3.477840 1.081084 -0.252430
0.217955 3.619927 1.054363 -0.531364
0.047634 2.310077 0.647723 0.007578
0.171425 2.801811 0.816823 -0.054737
-0.163465 2.675366 0.690083 0.091124
-0.166017 1.735863 0.431276 0.118633
-0.278511 0.746411 0.128544 0.061489
-0.264723 1.644120 0.378955 0.077415
0.116222 1.789385 0.523518 0.051908

