# vtk DataFile Version 2.0
Unstructured Grid Example
ASCII
DATASET UNSTRUCTURED_GRID

POINTS 256 float
0.000000 0.000000 0.000000 
0.007812 0.000000 0.000000 
0.007812 0.000000 0.000000 
0.015625 0.000000 0.000000 
0.015625 0.000000 0.000000 
0.023438 0.000000 0.000000 
0.023438 0.000000 0.000000 
0.031250 0.000000 0.000000 
0.046875 0.000000 0.000000 
0.054688 0.000000 0.000000 
0.054688 0.000000 0.000000 
0.062500 0.000000 0.000000 
0.031250 0.000000 0.000000 
0.039062 0.000000 0.000000 
0.039062 0.000000 0.000000 
0.046875 0.000000 0.000000 
0.109375 0.000000 0.000000 
0.117188 0.000000 0.000000 
0.117188 0.000000 0.000000 
0.125000 0.000000 0.000000 
0.093750 0.000000 0.000000 
0.101562 0.000000 0.000000 
0.101562 0.000000 0.000000 
0.109375 0.000000 0.000000 
0.062500 0.000000 0.000000 
0.070312 0.000000 0.000000 
0.070312 0.000000 0.000000 
0.078125 0.000000 0.000000 
0.078125 0.000000 0.000000 
0.085938 0.000000 0.000000 
0.085938 0.000000 0.000000 
0.093750 0.000000 0.000000 
0.234375 0.000000 0.000000 
0.242188 0.000000 0.000000 
0.242188 0.000000 0.000000 
0.250000 0.000000 0.000000 
0.218750 0.000000 0.000000 
0.226562 0.000000 0.000000 
0.226562 0.000000 0.000000 
0.234375 0.000000 0.000000 
0.187500 0.000000 0.000000 
0.195312 0.000000 0.000000 
0.195312 0.000000 0.000000 
0.203125 0.000000 0.000000 
0.203125 0.000000 0.000000 
0.210938 0.000000 0.000000 
0.210938 0.000000 0.000000 
0.218750 0.000000 0.000000 
0.125000 0.000000 0.000000 
0.132812 0.000000 0.000000 
0.132812 0.000000 0.000000 
0.140625 0.000000 0.000000 
0.140625 0.000000 0.000000 
0.148438 0.000000 0.000000 
0.148438 0.000000 0.000000 
0.156250 0.000000 0.000000 
0.171875 0.000000 0.000000 
0.179688 0.000000 0.000000 
0.179688 0.000000 0.000000 
0.187500 0.000000 0.000000 
0.156250 0.000000 0.000000 
0.164062 0.000000 0.000000 
0.164062 0.000000 0.000000 
0.171875 0.000000 0.000000 
0.484375 -32.444803 0.000000 
0.492188 16.222401 0.000000 
0.492188 221.634050 0.000000 
0.500000 -443.268099 0.000000 
0.468750 -7.060591 0.000000 
0.476562 -14.582267 0.000000 
0.476562 -7.927682 0.000000 
0.484375 -20.369761 0.000000 
0.437500 -4.151682 0.000000 
0.445312 -6.567779 0.000000 
0.445312 -4.797834 0.000000 
0.453125 -7.691572 0.000000 
0.453125 -5.517453 0.000000 
0.460938 -9.146072 0.000000 
0.460938 -6.305249 0.000000 
0.468750 -11.199100 0.000000 
0.375000 -0.213722 0.000000 
0.382812 -1.652179 0.000000 
0.382812 -0.715711 0.000000 
0.390625 -2.086658 0.000000 
0.390625 -1.165641 0.000000 
0.398438 -2.557746 0.000000 
0.398438 -1.610406 0.000000 
0.406250 -3.060322 0.000000 
0.421875 -3.032089 0.000000 
0.429688 -4.877299 0.000000 
0.429688 -3.567411 0.000000 
0.437500 -5.651866 0.000000 
0.406250 -2.063381 0.000000 
0.414062 -3.604287 0.000000 
0.414062 -2.534144 0.000000 
0.421875 -4.203667 0.000000 
0.250000 0.000000 0.000000 
0.257812 0.000000 0.000000 
0.257812 0.000000 0.000000 
0.265625 0.000000 0.000000 
0.265625 0.000000 0.000000 
0.273438 0.000000 0.000000 
0.273438 0.000000 0.000000 
0.281250 0.000000 0.000000 
0.296875 0.000000 0.000000 
0.304688 0.000000 0.000000 
0.304688 0.000000 0.000000 
0.312500 0.000000 0.000000 
0.281250 0.000000 0.000000 
0.289062 0.000000 0.000000 
0.289062 0.000000 0.000000 
0.296875 0.000000 0.000000 
0.359375 0.000000 0.000000 
0.367188 0.000000 0.000000 
0.367188 0.693208 0.000000 
0.375000 -1.386415 0.000000 
0.343750 0.000000 0.000000 
0.351562 0.000000 0.000000 
0.351562 0.000000 0.000000 
0.359375 0.000000 0.000000 
0.312500 0.000000 0.000000 
0.320312 0.000000 0.000000 
0.320312 0.000000 0.000000 
0.328125 0.000000 0.000000 
0.328125 0.000000 0.000000 
0.335938 0.000000 0.000000 
0.335938 0.000000 0.000000 
0.343750 0.000000 0.000000 
0.500000 -443.268099 0.000000 
0.507812 221.634050 0.000000 
0.507812 16.222401 0.000000 
0.515625 -32.444803 0.000000 
0.515625 -20.369761 0.000000 
0.523438 -7.927682 0.000000 
0.523438 -14.582267 0.000000 
0.531250 -7.060591 0.000000 
0.546875 -7.691572 0.000000 
0.554688 -4.797834 0.000000 
0.554688 -6.567779 0.000000 
0.562500 -4.151682 0.000000 
0.531250 -11.199100 0.000000 
0.539062 -6.305249 0.000000 
0.539062 -9.146072 0.000000 
0.546875 -5.517453 0.000000 
0.609375 -2.086658 0.000000 
0.617188 -0.715711 0.000000 
0.617188 -1.652179 0.000000 
0.625000 -0.213722 0.000000 
0.593750 -3.060322 0.000000 
0.601562 -1.610406 0.000000 
0.601562 -2.557746 0.000000 
0.609375 -1.165641 0.000000 
0.562500 -5.651866 0.000000 
0.570312 -3.567411 0.000000 
0.570312 -4.877299 0.000000 
0.578125 -3.032089 0.000000 
0.578125 -4.203667 0.000000 
0.585938 -2.534144 0.000000 
0.585938 -3.604287 0.000000 
0.593750 -2.063381 0.000000 
0.734375 0.000000 0.000000 
0.742188 0.000000 0.000000 
0.742188 0.000000 0.000000 
0.750000 0.000000 0.000000 
0.718750 0.000000 0.000000 
0.726562 0.000000 0.000000 
0.726562 0.000000 0.000000 
0.734375 0.000000 0.000000 
0.687500 0.000000 0.000000 
0.695312 0.000000 0.000000 
0.695312 0.000000 0.000000 
0.703125 0.000000 0.000000 
0.703125 0.000000 0.000000 
0.710938 0.000000 0.000000 
0.710938 0.000000 0.000000 
0.718750 0.000000 0.000000 
0.625000 -1.386415 0.000000 
0.632812 0.693208 0.000000 
0.632812 0.000000 0.000000 
0.640625 0.000000 0.000000 
0.640625 0.000000 0.000000 
0.648438 0.000000 0.000000 
0.648438 0.000000 0.000000 
0.656250 0.000000 0.000000 
0.671875 0.000000 0.000000 
0.679688 0.000000 0.000000 
0.679688 0.000000 0.000000 
0.687500 0.000000 0.000000 
0.656250 0.000000 0.000000 
0.664062 0.000000 0.000000 
0.664062 0.000000 0.000000 
0.671875 0.000000 0.000000 
0.984375 0.000000 0.000000 
0.992188 0.000000 0.000000 
0.992188 0.000000 0.000000 
1.000000 0.000000 0.000000 
0.968750 0.000000 0.000000 
0.976562 0.000000 0.000000 
0.976562 0.000000 0.000000 
0.984375 0.000000 0.000000 
0.937500 0.000000 0.000000 
0.945312 0.000000 0.000000 
0.945312 0.000000 0.000000 
0.953125 0.000000 0.000000 
0.953125 0.000000 0.000000 
0.960938 0.000000 0.000000 
0.960938 0.000000 0.000000 
0.968750 0.000000 0.000000 
0.875000 0.000000 0.000000 
0.882812 0.000000 0.000000 
0.882812 0.000000 0.000000 
0.890625 0.000000 0.000000 
0.890625 0.000000 0.000000 
0.898438 0.000000 0.000000 
0.898438 0.000000 0.000000 
0.906250 0.000000 0.000000 
0.921875 0.000000 0.000000 
0.929688 0.000000 0.000000 
0.929688 0.000000 0.000000 
0.937500 0.000000 0.000000 
0.906250 0.000000 0.000000 
0.914062 0.000000 0.000000 
0.914062 0.000000 0.000000 
0.921875 0.000000 0.000000 
0.750000 0.000000 0.000000 
0.757812 0.000000 0.000000 
0.757812 0.000000 0.000000 
0.765625 0.000000 0.000000 
0.765625 0.000000 0.000000 
0.773438 0.000000 0.000000 
0.773438 0.000000 0.000000 
0.781250 0.000000 0.000000 
0.796875 0.000000 0.000000 
0.804688 0.000000 0.000000 
0.804688 0.000000 0.000000 
0.812500 0.000000 0.000000 
0.781250 0.000000 0.000000 
0.789062 0.000000 0.000000 
0.789062 0.000000 0.000000 
0.796875 0.000000 0.000000 
0.859375 0.000000 0.000000 
0.867188 0.000000 0.000000 
0.867188 0.000000 0.000000 
0.875000 0.000000 0.000000 
0.843750 0.000000 0.000000 
0.851562 0.000000 0.000000 
0.851562 0.000000 0.000000 
0.859375 0.000000 0.000000 
0.812500 0.000000 0.000000 
0.820312 0.000000 0.000000 
0.820312 0.000000 0.000000 
0.828125 0.000000 0.000000 
0.828125 0.000000 0.000000 
0.835938 0.000000 0.000000 
0.835938 0.000000 0.000000 
0.843750 0.000000 0.000000 

CELLS 128 384
2  0 1 
2  2 3 
2  4 5 
2  6 7 
2  8 9 
2  10 11 
2  12 13 
2  14 15 
2  16 17 
2  18 19 
2  20 21 
2  22 23 
2  24 25 
2  26 27 
2  28 29 
2  30 31 
2  32 33 
2  34 35 
2  36 37 
2  38 39 
2  40 41 
2  42 43 
2  44 45 
2  46 47 
2  48 49 
2  50 51 
2  52 53 
2  54 55 
2  56 57 
2  58 59 
2  60 61 
2  62 63 
2  64 65 
2  66 67 
2  68 69 
2  70 71 
2  72 73 
2  74 75 
2  76 77 
2  78 79 
2  80 81 
2  82 83 
2  84 85 
2  86 87 
2  88 89 
2  90 91 
2  92 93 
2  94 95 
2  96 97 
2  98 99 
2  100 101 
2  102 103 
2  104 105 
2  106 107 
2  108 109 
2  110 111 
2  112 113 
2  114 115 
2  116 117 
2  118 119 
2  120 121 
2  122 123 
2  124 125 
2  126 127 
2  128 129 
2  130 131 
2  132 133 
2  134 135 
2  136 137 
2  138 139 
2  140 141 
2  142 143 
2  144 145 
2  146 147 
2  148 149 
2  150 151 
2  152 153 
2  154 155 
2  156 157 
2  158 159 
2  160 161 
2  162 163 
2  164 165 
2  166 167 
2  168 169 
2  170 171 
2  172 173 
2  174 175 
2  176 177 
2  178 179 
2  180 181 
2  182 183 
2  184 185 
2  186 187 
2  188 189 
2  190 191 
2  192 193 
2  194 195 
2  196 197 
2  198 199 
2  200 201 
2  202 203 
2  204 205 
2  206 207 
2  208 209 
2  210 211 
2  212 213 
2  214 215 
2  216 217 
2  218 219 
2  220 221 
2  222 223 
2  224 225 
2  226 227 
2  228 229 
2  230 231 
2  232 233 
2  234 235 
2  236 237 
2  238 239 
2  240 241 
2  242 243 
2  244 245 
2  246 247 
2  248 249 
2  250 251 
2  252 253 
2  254 255 

CELL_TYPES 128
3
3
3
3
3
3
3
3
3
3
3
3
3
3
3
3
3
3
3
3
3
3
3
3
3
3
3
3
3
3
3
3
3
3
3
3
3
3
3
3
3
3
3
3
3
3
3
3
3
3
3
3
3
3
3
3
3
3
3
3
3
3
3
3
3
3
3
3
3
3
3
3
3
3
3
3
3
3
3
3
3
3
3
3
3
3
3
3
3
3
3
3
3
3
3
3
3
3
3
3
3
3
3
3
3
3
3
3
3
3
3
3
3
3
3
3
3
3
3
3
3
3
3
3
3
3
3
3

POINT_DATA 256

SCALARS lambda_h float 1
LOOKUP_TABLE default
0.000000 
0.000000 
0.000000 
0.000000 
0.000000 
0.000000 
0.000000 
0.000000 
0.000000 
0.000000 
0.000000 
0.000000 
0.000000 
0.000000 
0.000000 
0.000000 
0.000000 
0.000000 
0.000000 
0.000000 
0.000000 
0.000000 
0.000000 
0.000000 
0.000000 
0.000000 
0.000000 
0.000000 
0.000000 
0.000000 
0.000000 
0.000000 
0.000000 
0.000000 
0.000000 
0.000000 
0.000000 
0.000000 
0.000000 
0.000000 
0.000000 
0.000000 
0.000000 
0.000000 
0.000000 
0.000000 
0.000000 
0.000000 
0.000000 
0.000000 
0.000000 
0.000000 
0.000000 
0.000000 
0.000000 
0.000000 
0.000000 
0.000000 
0.000000 
0.000000 
0.000000 
0.000000 
0.000000 
0.000000 
-32.444803 
16.222401 
221.634050 
-443.268099 
-7.060591 
-14.582267 
-7.927682 
-20.369761 
-4.151682 
-6.567779 
-4.797834 
-7.691572 
-5.517453 
-9.146072 
-6.305249 
-11.199100 
-0.213722 
-1.652179 
-0.715711 
-2.086658 
-1.165641 
-2.557746 
-1.610406 
-3.060322 
-3.032089 
-4.877299 
-3.567411 
-5.651866 
-2.063381 
-3.604287 
-2.534144 
-4.203667 
0.000000 
0.000000 
0.000000 
0.000000 
0.000000 
0.000000 
0.000000 
0.000000 
0.000000 
0.000000 
0.000000 
0.000000 
0.000000 
0.000000 
0.000000 
0.000000 
0.000000 
0.000000 
0.693208 
-1.386415 
0.000000 
0.000000 
0.000000 
0.000000 
0.000000 
0.000000 
0.000000 
0.000000 
0.000000 
0.000000 
0.000000 
0.000000 
-443.268099 
221.634050 
16.222401 
-32.444803 
-20.369761 
-7.927682 
-14.582267 
-7.060591 
-7.691572 
-4.797834 
-6.567779 
-4.151682 
-11.199100 
-6.305249 
-9.146072 
-5.517453 
-2.086658 
-0.715711 
-1.652179 
-0.213722 
-3.060322 
-1.610406 
-2.557746 
-1.165641 
-5.651866 
-3.567411 
-4.877299 
-3.032089 
-4.203667 
-2.534144 
-3.604287 
-2.063381 
0.000000 
0.000000 
0.000000 
0.000000 
0.000000 
0.000000 
0.000000 
0.000000 
0.000000 
0.000000 
0.000000 
0.000000 
0.000000 
0.000000 
0.000000 
0.000000 
-1.386415 
0.693208 
0.000000 
0.000000 
0.000000 
0.000000 
0.000000 
0.000000 
0.000000 
0.000000 
0.000000 
0.000000 
0.000000 
0.000000 
0.000000 
0.000000 
0.000000 
0.000000 
0.000000 
0.000000 
0.000000 
0.000000 
0.000000 
0.000000 
0.000000 
0.000000 
0.000000 
0.000000 
0.000000 
0.000000 
0.000000 
0.000000 
0.000000 
0.000000 
0.000000 
0.000000 
0.000000 
0.000000 
0.000000 
0.000000 
0.000000 
0.000000 
0.000000 
0.000000 
0.000000 
0.000000 
0.000000 
0.000000 
0.000000 
0.000000 
0.000000 
0.000000 
0.000000 
0.000000 
0.000000 
0.000000 
0.000000 
0.000000 
0.000000 
0.000000 
0.000000 
0.000000 
0.000000 
0.000000 
0.000000 
0.000000 
0.000000 
0.000000 
0.000000 
0.000000 
0.000000 
0.000000 
0.000000 
0.000000 
0.000000 
0.000000 
0.000000 
0.000000 
0.000000 
0.000000 

