# vtk DataFile Version 2.0
Unstructured Grid Example
ASCII
DATASET UNSTRUCTURED_GRID

POINTS 4225 float
0.040929 -0.312343 0.000000 
0.959071 -0.312343 0.000000 
1.000000 1.000000 0.000000 
0.000000 1.000000 0.000000 
0.500000 -0.100000 0.000000 
0.965234 0.281006 0.000000 
0.500000 1.000000 0.000000 
0.034766 0.281006 0.000000 
0.500000 0.293226 0.000000 
0.292338 -0.259666 0.000000 
0.500000 0.042311 0.000000 
0.246345 -0.004605 0.000000 
0.707662 -0.259666 0.000000 
0.753655 -0.004605 0.000000 
0.986666 -0.034979 0.000000 
0.738798 0.279667 0.000000 
0.932258 0.613312 0.000000 
0.719643 0.615289 0.000000 
0.750000 1.000000 0.000000 
0.500000 0.620534 0.000000 
0.250000 1.000000 0.000000 
0.280357 0.615289 0.000000 
0.067742 0.613312 0.000000 
0.261202 0.279667 0.000000 
0.013334 -0.034979 0.000000 
0.165582 -0.292567 0.000000 
0.257369 -0.136527 0.000000 
0.141677 -0.164794 0.000000 
0.500000 -0.050454 0.000000 
0.370102 -0.089205 0.000000 
0.404461 -0.195539 0.000000 
0.372527 0.149933 0.000000 
0.367650 0.025406 0.000000 
0.500000 0.158099 0.000000 
0.595539 -0.195539 0.000000 
0.629898 -0.089205 0.000000 
0.858323 -0.164794 0.000000 
0.742631 -0.136527 0.000000 
0.834418 -0.292567 0.000000 
0.632350 0.025406 0.000000 
0.627473 0.149933 0.000000 
0.977094 -0.181537 0.000000 
0.870539 -0.026313 0.000000 
0.853570 0.273430 0.000000 
0.867088 0.119836 0.000000 
0.981222 0.121070 0.000000 
0.749636 0.132856 0.000000 
0.620724 0.289093 0.000000 
0.946480 0.444343 0.000000 
0.837374 0.436351 0.000000 
0.831401 0.801844 0.000000 
0.826037 0.611471 0.000000 
0.933070 0.790422 0.000000 
0.726897 0.439691 0.000000 
0.614283 0.445305 0.000000 
0.875000 1.000000 0.000000 
0.724879 0.805369 0.000000 
0.500000 0.807392 0.000000 
0.613587 0.806836 0.000000 
0.625000 1.000000 0.000000 
0.610774 0.619012 0.000000 
0.500000 0.447812 0.000000 
0.375000 1.000000 0.000000 
0.386413 0.806836 0.000000 
0.168599 0.801844 0.000000 
0.275121 0.805369 0.000000 
0.125000 1.000000 0.000000 
0.389226 0.619012 0.000000 
0.385717 0.445305 0.000000 
0.066930 0.790422 0.000000 
0.173963 0.611471 0.000000 
0.146430 0.273430 0.000000 
0.162626 0.436351 0.000000 
0.053520 0.444343 0.000000 
0.273103 0.439691 0.000000 
0.379276 0.289093 0.000000 
0.018778 0.121070 0.000000 
0.132912 0.119836 0.000000 
0.129461 -0.026313 0.000000 
0.022906 -0.181537 0.000000 
0.250364 0.132856 0.000000 
0.102766 -0.303026 0.000000 
0.153109 -0.230252 0.000000 
0.092387 -0.240008 0.000000 
0.271765 -0.200005 0.000000 
0.213229 -0.217530 0.000000 
0.229153 -0.278813 0.000000 
0.191639 -0.085769 0.000000 
0.200157 -0.152825 0.000000 
0.249315 -0.071154 0.000000 
0.500000 -0.083377 0.000000 
0.434501 -0.109121 0.000000 
0.447911 -0.152089 0.000000 
0.431253 -0.015083 0.000000 
0.430986 -0.063673 0.000000 
0.500000 -0.007486 0.000000 
0.352765 -0.232799 0.000000 
0.380218 -0.144278 0.000000 
0.327464 -0.175925 0.000000 
0.437598 0.221788 0.000000 
0.435791 0.155912 0.000000 
0.500000 0.223322 0.000000 
0.305915 0.010195 0.000000 
0.369684 0.086066 0.000000 
0.307446 0.074804 0.000000 
0.500000 0.097688 0.000000 
0.434070 0.094516 0.000000 
0.432504 0.037541 0.000000 
0.313465 -0.115065 0.000000 
0.367190 -0.032735 0.000000 
0.307272 -0.052910 0.000000 
0.552089 -0.152089 0.000000 
0.565499 -0.109121 0.000000 
0.672536 -0.175925 0.000000 
0.619782 -0.144278 0.000000 
0.647235 -0.232799 0.000000 
0.569014 -0.063673 0.000000 
0.568747 -0.015083 0.000000 
0.907613 -0.240008 0.000000 
0.846891 -0.230252 0.000000 
0.897234 -0.303026 0.000000 
0.750685 -0.071154 0.000000 
0.799843 -0.152825 0.000000 
0.808361 -0.085769 0.000000 
0.770847 -0.278813 0.000000 
0.786771 -0.217530 0.000000 
0.728235 -0.200005 0.000000 
0.564209 0.155912 0.000000 
0.562402 0.221788 0.000000 
0.567496 0.037541 0.000000 
0.565930 0.094516 0.000000 
0.692554 0.074804 0.000000 
0.630316 0.086066 0.000000 
0.694085 0.010195 0.000000 
0.686535 -0.115065 0.000000 
0.692728 -0.052910 0.000000 
0.632810 -0.032735 0.000000 
0.968308 -0.248874 0.000000 
0.917634 -0.173783 0.000000 
0.928812 -0.032290 0.000000 
0.925114 -0.104401 0.000000 
0.983668 -0.109986 0.000000 
0.866498 -0.096647 0.000000 
0.812221 -0.017035 0.000000 
0.909805 0.274720 0.000000 
0.918064 0.195629 0.000000 
0.974073 0.200654 0.000000 
0.803348 0.199122 0.000000 
0.861124 0.195616 0.000000 
0.796578 0.275536 0.000000 
0.985708 0.042353 0.000000 
0.924614 0.118057 0.000000 
0.928484 0.042009 0.000000 
0.624191 0.217491 0.000000 
0.560568 0.292240 0.000000 
0.752925 0.063237 0.000000 
0.689286 0.141653 0.000000 
0.680179 0.284570 0.000000 
0.684989 0.211400 0.000000 
0.744682 0.204822 0.000000 
0.870522 0.045884 0.000000 
0.808803 0.125149 0.000000 
0.812069 0.053212 0.000000 
0.955775 0.362094 0.000000 
0.900832 0.355486 0.000000 
0.884349 0.523224 0.000000 
0.892036 0.438200 0.000000 
0.938290 0.527991 0.000000 
0.845360 0.353562 0.000000 
0.789319 0.354790 0.000000 
0.899556 0.898270 0.000000 
0.882302 0.797477 0.000000 
0.946558 0.884301 0.000000 
0.773087 0.613182 0.000000 
0.825477 0.704633 0.000000 
0.773234 0.706943 0.000000 
0.929782 0.700617 0.000000 
0.877307 0.702108 0.000000 
0.878904 0.610995 0.000000 
0.617313 0.364979 0.000000 
0.558795 0.367348 0.000000 
0.732650 0.357835 0.000000 
0.675307 0.361553 0.000000 
0.667393 0.527923 0.000000 
0.670865 0.442629 0.000000 
0.722269 0.525485 0.000000 
0.830548 0.522182 0.000000 
0.776606 0.523309 0.000000 
0.782372 0.437266 0.000000 
0.937500 1.000000 0.000000 
0.847373 0.901916 0.000000 
0.734901 0.903175 0.000000 
0.791943 0.902857 0.000000 
0.812500 1.000000 0.000000 
0.778906 0.804087 0.000000 
0.720105 0.708857 0.000000 
0.500000 0.903590 0.000000 
0.559231 0.903529 0.000000 
0.562500 1.000000 0.000000 
0.555731 0.712345 0.000000 
0.556937 0.807223 0.000000 
0.500000 0.712638 0.000000 
0.687500 1.000000 0.000000 
0.618262 0.903449 0.000000 
0.676896 0.903337 0.000000 
0.557260 0.447149 0.000000 
0.500000 0.368181 0.000000 
0.665532 0.617331 0.000000 
0.611967 0.530064 0.000000 
0.500000 0.532045 0.000000 
0.556103 0.531516 0.000000 
0.555520 0.620123 0.000000 
0.669666 0.806229 0.000000 
0.611169 0.711588 0.000000 
0.666037 0.710409 0.000000 
0.437500 1.000000 0.000000 
0.440769 0.903529 0.000000 
0.323104 0.903337 0.000000 
0.381738 0.903449 0.000000 
0.312500 1.000000 0.000000 
0.443063 0.807223 0.000000 
0.444269 0.712345 0.000000 
0.100444 0.898270 0.000000 
0.152627 0.901916 0.000000 
0.062500 1.000000 0.000000 
0.279895 0.708857 0.000000 
0.221094 0.804087 0.000000 
0.226766 0.706943 0.000000 
0.187500 1.000000 0.000000 
0.208057 0.902857 0.000000 
0.265099 0.903175 0.000000 
0.442740 0.447149 0.000000 
0.441205 0.367348 0.000000 
0.444480 0.620123 0.000000 
0.443897 0.531516 0.000000 
0.332607 0.527923 0.000000 
0.388033 0.530064 0.000000 
0.334468 0.617331 0.000000 
0.330334 0.806229 0.000000 
0.333963 0.710409 0.000000 
0.388831 0.711588 0.000000 
0.053442 0.884301 0.000000 
0.117698 0.797477 0.000000 
0.121096 0.610995 0.000000 
0.122693 0.702108 0.000000 
0.070218 0.700617 0.000000 
0.174523 0.704633 0.000000 
0.226913 0.613182 0.000000 
0.090195 0.274720 0.000000 
0.099168 0.355486 0.000000 
0.044225 0.362094 0.000000 
0.210681 0.354790 0.000000 
0.154640 0.353562 0.000000 
0.203422 0.275536 0.000000 
0.061710 0.527991 0.000000 
0.107964 0.438200 0.000000 
0.115651 0.523224 0.000000 
0.382687 0.364979 0.000000 
0.439432 0.292240 0.000000 
0.277731 0.525485 0.000000 
0.329135 0.442629 0.000000 
0.319821 0.284570 0.000000 
0.324693 0.361553 0.000000 
0.267350 0.357835 0.000000 
0.169452 0.522182 0.000000 
0.217628 0.437266 0.000000 
0.223394 0.523309 0.000000 
0.025927 0.200654 0.000000 
0.081936 0.195629 0.000000 
0.071516 0.042009 0.000000 
0.075386 0.118057 0.000000 
0.014292 0.042353 0.000000 
0.138876 0.195616 0.000000 
0.196652 0.199122 0.000000 
0.082366 -0.173783 0.000000 
0.031692 -0.248874 0.000000 
0.187779 -0.017035 0.000000 
0.133502 -0.096647 0.000000 
0.016332 -0.109986 0.000000 
0.074886 -0.104401 0.000000 
0.071188 -0.032290 0.000000 
0.375809 0.217491 0.000000 
0.255318 0.204822 0.000000 
0.315011 0.211400 0.000000 
0.310714 0.141653 0.000000 
0.247075 0.063237 0.000000 
0.129478 0.045884 0.000000 
0.187931 0.053212 0.000000 
0.191197 0.125149 0.000000 
0.071762 -0.307689 0.000000 
0.097699 -0.271894 0.000000 
0.066964 -0.276443 0.000000 
0.159415 -0.261818 0.000000 
0.128527 -0.267111 0.000000 
0.134041 -0.298076 0.000000 
0.117191 -0.202855 0.000000 
0.122777 -0.235378 0.000000 
0.147089 -0.197893 0.000000 
0.281415 -0.230469 0.000000 
0.251478 -0.240320 0.000000 
0.260901 -0.270049 0.000000 
0.235190 -0.177731 0.000000 
0.242771 -0.209478 0.000000 
0.263726 -0.168595 0.000000 
0.197324 -0.286232 0.000000 
0.221030 -0.248666 0.000000 
0.190288 -0.255752 0.000000 
0.218197 -0.045228 0.000000 
0.220509 -0.078946 0.000000 
0.247285 -0.038020 0.000000 
0.171055 -0.159274 0.000000 
0.195296 -0.119536 0.000000 
0.166309 -0.125731 0.000000 
0.252616 -0.104007 0.000000 
0.224055 -0.112320 0.000000 
0.228934 -0.145287 0.000000 
0.183296 -0.224381 0.000000 
0.206180 -0.185535 0.000000 
0.176783 -0.192190 0.000000 
0.500000 -0.093978 0.000000 
0.467158 -0.110530 0.000000 
0.472498 -0.127502 0.000000 
0.464270 -0.074384 0.000000 
0.464767 -0.093063 0.000000 
0.500000 -0.068526 0.000000 
0.425887 -0.174113 0.000000 
0.439758 -0.130822 0.000000 
0.414417 -0.150933 0.000000 
0.465613 0.015105 0.000000 
0.465190 -0.009500 0.000000 
0.500000 0.016661 0.000000 
0.399726 -0.075888 0.000000 
0.430906 -0.039840 0.000000 
0.398727 -0.049803 0.000000 
0.500000 -0.029951 0.000000 
0.464783 -0.032656 0.000000 
0.464430 -0.054289 0.000000 
0.323130 -0.247361 0.000000 
0.338518 -0.205188 0.000000 
0.310549 -0.218853 0.000000 
0.389890 -0.170744 0.000000 
0.364962 -0.189182 0.000000 
0.380382 -0.215630 0.000000 
0.346514 -0.131966 0.000000 
0.354062 -0.160989 0.000000 
0.373920 -0.116970 0.000000 
0.431923 -0.086727 0.000000 
0.402137 -0.101522 0.000000 
[...]
POINT_DATA 4225

SCALARS u_h float 2
LOOKUP_TABLE default
0.040929 -0.312343 
-0.040929 -0.312343 
0.000000 0.000000 
0.000000 0.000000 
0.000000 -0.100000 
-0.034766 -0.218994 
0.000000 0.000000 
0.034766 -0.218994 
0.000000 -0.206774 
0.042338 -0.259666 
0.000000 -0.207689 
-0.003655 -0.254605 
-0.042338 -0.259666 
0.003655 -0.254605 
-0.013334 -0.284979 
-0.011202 -0.220333 
-0.067742 -0.136688 
-0.030357 -0.134711 
0.000000 0.000000 
0.000000 -0.129466 
0.000000 0.000000 
0.030357 -0.134711 
0.067742 -0.136688 
0.011202 -0.220333 
0.013334 -0.284979 
0.040582 -0.292567 
0.007369 -0.261527 
0.016677 -0.289794 
0.000000 -0.175454 
-0.004898 -0.214205 
0.029461 -0.195539 
-0.002473 -0.225067 
-0.007350 -0.224594 
0.000000 -0.216901 
-0.029461 -0.195539 
0.004898 -0.214205 
-0.016677 -0.289794 
-0.007369 -0.261527 
-0.040582 -0.292567 
0.007350 -0.224594 
0.002473 -0.225067 
-0.022906 -0.306537 
-0.004461 -0.276313 
-0.021430 -0.226570 
-0.007912 -0.255164 
-0.018778 -0.253930 
-0.000364 -0.242144 
-0.004276 -0.210907 
-0.053520 -0.180657 
-0.037626 -0.188649 
-0.043599 -0.073156 
-0.048963 -0.138529 
-0.066930 -0.084578 
-0.023103 -0.185309 
-0.010717 -0.179695 
0.000000 0.000000 
-0.025121 -0.069631 
0.000000 -0.067608 
-0.011413 -0.068164 
0.000000 0.000000 
-0.014226 -0.130988 
0.000000 -0.177188 
0.000000 0.000000 
0.011413 -0.068164 
0.043599 -0.073156 
0.025121 -0.069631 
0.000000 0.000000 
0.014226 -0.130988 
0.010717 -0.179695 
0.066930 -0.084578 
0.048963 -0.138529 
0.021430 -0.226570 
0.037626 -0.188649 
0.053520 -0.180657 
0.023103 -0.185309 
0.004276 -0.210907 
0.018778 -0.253930 
0.007912 -0.255164 
0.004461 -0.276313 
0.022906 -0.306537 
0.000364 -0.242144 
0.040266 -0.303026 
0.028109 -0.292752 
0.029887 -0.302508 
0.021765 -0.262505 
0.025729 -0.280030 
0.041653 -0.278813 
0.004139 -0.273269 
0.012657 -0.277825 
-0.000685 -0.258654 
0.000000 -0.145877 
-0.002999 -0.171621 
0.010411 -0.152089 
-0.006247 -0.202583 
-0.006514 -0.188673 
0.000000 -0.194986 
0.040265 -0.232799 
0.005218 -0.206778 
0.014964 -0.238425 
0.000098 -0.215712 
-0.001709 -0.219088 
0.000000 -0.214178 
-0.006585 -0.239805 
-0.005316 -0.226434 
-0.005054 -0.237696 
0.000000 -0.214812 
-0.003430 -0.217984 
-0.004996 -0.212459 
0.000965 -0.240065 
-0.007810 -0.220235 
-0.005228 -0.240410 
-0.010411 -0.152089 
0.002999 -0.171621 
-0.014964 -0.238425 
-0.005218 -0.206778 
-0.040265 -0.232799 
0.006514 -0.188673 
0.006247 -0.202583 
-0.029887 -0.302508 
-0.028109 -0.292752 
-0.040266 -0.303026 
0.000685 -0.258654 
-0.012657 -0.277825 
-0.004139 -0.273269 
-0.041653 -0.278813 
-0.025729 -0.280030 
-0.021765 -0.262505 
0.001709 -0.219088 
-0.000098 -0.215712 
0.004996 -0.212459 
0.003430 -0.217984 
0.005054 -0.237696 
0.005316 -0.226434 
0.006585 -0.239805 
-0.000965 -0.240065 
0.005228 -0.240410 
0.007810 -0.220235 
-0.031692 -0.311374 
-0.019866 -0.298783 
-0.008688 -0.282290 
-0.012386 -0.291901 
-0.016332 -0.297486 
-0.008502 -0.284147 
-0.000279 -0.267035 
-0.027695 -0.225280 
-0.019436 -0.241871 
-0.025927 -0.236846 
-0.009152 -0.238378 
-0.013876 -0.241884 
-0.015922 -0.224464 
-0.014292 -0.270147 
-0.012886 -0.256943 
-0.009016 -0.270491 
-0.000809 -0.220009 
-0.001932 -0.207760 
0.002925 -0.249263 
0.001786 -0.233347 
-0.007321 -0.215430 
-0.002511 -0.226100 
-0.005318 -0.232678 
-0.004478 -0.266616 
-0.003697 -0.249851 
-0.000431 -0.259288 
-0.044225 -0.200406 
-0.036668 -0.207014 
-0.053151 -0.164276 
-0.045464 -0.186800 
-0.061710 -0.159509 
-0.029640 -0.208938 
-0.023181 -0.207710 
-0.037944 -0.039230 
-0.055198 -0.077523 
-0.053442 -0.053199 
-0.039413 -0.136818 
-0.049523 -0.107867 
-0.039266 -0.105557 
-0.070218 -0.111883 
-0.060193 -0.110392 
-0.058596 -0.139005 
-0.007687 -0.197521 
-0.003705 -0.195152 
-0.017350 -0.204665 
-0.012193 -0.200947 
-0.020107 -0.159577 
-0.016635 -0.182371 
-0.027731 -0.162015 
-0.044452 -0.165318 
-0.035894 -0.164191 
-0.030128 -0.187734 
0.000000 0.000000 
-0.027627 -0.035584 
-0.015099 -0.034325 
-0.020557 -0.034643 
0.000000 0.000000 
-0.033594 -0.070913 
-0.029895 -0.103643 
0.000000 -0.033910 
-0.003269 -0.033971 
0.000000 0.000000 
-0.006769 -0.100155 
-0.005563 -0.067777 
-0.000000 -0.099862 
0.000000 0.000000 
-0.006738 -0.034051 
-0.010604 -0.034163 
-0.005240 -0.177851 
0.000000 -0.194319 
-0.021968 -0.132669 
-0.013033 -0.157436 
0.000000 -0.155455 
-0.006397 -0.155984 
-0.006980 -0.129877 
-0.017834 -0.068771 
-0.013831 -0.100912 
-0.021463 -0.102091 
0.000000 0.000000 
0.003269 -0.033971 
0.010604 -0.034163 
0.006738 -0.034051 
0.000000 0.000000 
0.005563 -0.067777 
0.006769 -0.100155 
0.037944 -0.039230 
0.027627 -0.035584 
0.000000 0.000000 
0.029895 -0.103643 
0.033594 -0.070913 
0.039266 -0.105557 
0.000000 0.000000 
0.020557 -0.034643 
0.015099 -0.034325 
0.005240 -0.177851 
0.003705 -0.195152 
0.006980 -0.129877 
0.006397 -0.155984 
0.020107 -0.159577 
0.013033 -0.157436 
0.021968 -0.132669 
0.017834 -0.068771 
0.021463 -0.102091 
0.013831 -0.100912 
0.053442 -0.053199 
0.055198 -0.077523 
0.058596 -0.139005 
0.060193 -0.110392 
0.070218 -0.111883 
0.049523 -0.107867 
0.039413 -0.136818 
0.027695 -0.225280 
0.036668 -0.207014 
0.044225 -0.200406 
0.023181 -0.207710 
0.029640 -0.208938 
0.015922 -0.224464 
0.061710 -0.159509 
0.045464 -0.186800 
0.053151 -0.164276 
0.007687 -0.197521 
0.001932 -0.207760 
0.027731 -0.162015 
0.016635 -0.182371 
0.007321 -0.215430 
0.012193 -0.200947 
0.017350 -0.204665 
0.044452 -0.165318 
0.030128 -0.187734 
0.035894 -0.164191 
0.025927 -0.236846 
0.019436 -0.241871 
0.009016 -0.270491 
0.012886 -0.256943 
0.014292 -0.270147 
0.013876 -0.241884 
0.009152 -0.238378 
0.019866 -0.298783 
0.031692 -0.311374 
0.000279 -0.267035 
0.008502 -0.284147 
0.016332 -0.297486 
0.012386 -0.291901 
0.008688 -0.282290 
0.000809 -0.220009 
0.005318 -0.232678 
0.002511 -0.226100 
-0.001786 -0.233347 
-0.002925 -0.249263 
0.004478 -0.266616 
0.000431 -0.259288 
0.003697 -0.249851 
0.040512 -0.307689 
0.035199 -0.303144 
0.035714 -0.307693 
0.034415 -0.293068 
0.034777 -0.298361 
0.040291 -0.298076 
0.023441 -0.296605 
0.029027 -0.297878 
0.022089 -0.291643 
0.031415 -0.261719 
0.032728 -0.271570 
0.042151 -0.270049 
0.016440 -0.271481 
0.024021 -0.271978 
0.013726 -0.262345 
0.041074 -0.286232 
0.033530 -0.279916 
0.034038 -0.287002 
-0.000553 -0.263978 
0.001759 -0.266446 
-0.002715 -0.256770 
0.014805 -0.284274 
0.007796 -0.275786 
0.010059 -0.281981 
0.002616 -0.260257 
0.005305 -0.268570 
0.010184 -0.270287 
0.027046 -0.286881 
0.018680 -0.279285 
0.020533 -0.285940 
0.000000 -0.125228 
-0.001592 -0.141780 
0.003748 -0.127502 
-0.004480 -0.168134 
-0.003983 -0.155563 
0.000000 -0.162276 
0.019637 -0.174113 
0.002258 -0.162072 
0.008167 -0.182183 
-0.003137 -0.203645 
-0.003560 -0.197000 
0.000000 -0.202089 
-0.006524 -0.200888 
-0.006594 -0.196090 
-0.007523 -0.206053 
0.000000 -0.186201 
-0.003967 -0.188906 
-0.004320 -0.179289 
0.041880 -0.247361 
0.026018 -0.236438 
0.029299 -0.250103 
0.014890 -0.201994 
0.021212 -0.220432 
0.036632 -0.215630 
0.002764 -0.225716 
0.010312 -0.223489 
-0.001080 -0.210720 
-0.005577 -0.180477 
-0.004113 -0.195272 
0.000492 -0.189138 
0.000466 -0.211349 
0.000004 -0.214563 
0.000000 -0.211046 
-0.002253 -0.221682 
-0.000812 -0.217965 
-0.000972 -0.220152 
0.000000 -0.216134 
-0.000459 -0.216598 
-0.000920 -0.217457 
-0.005313 -0.247413 
-0.006094 -0.238985 
-0.005084 -0.245696 
-0.006468 -0.225877 
-0.006588 -0.232263 
-0.007314 -0.232069 
-0.004004 -0.230831 
-0.005451 -0.231881 
-0.003968 -0.226185 
0.000000 -0.211904 
-0.002270 -0.212897 
-0.002706 -0.208921 
-0.001377 -0.217136 
-0.001827 -0.215623 
0.000000 -0.216467 
-0.006584 -0.217871 
-0.004238 -0.215772 
-0.005678 -0.220234 
-0.003479 -0.222183 
-0.004630 -0.221688 
-0.002584 -0.219091 
0.018790 -0.251389 
-0.002224 -0.227511 
0.006768 -0.239495 
0.010490 -0.251718 
0.004252 -0.251455 
-0.005681 -0.208056 
-0.007854 -0.222677 
-0.007283 -0.214659 
-0.007662 -0.210684 
-0.006956 -0.217381 
-0.004708 -0.248804 
-0.000176 -0.250823 
-0.003074 -0.249931 
-0.006366 -0.240251 
-0.007486 -0.231400 
-0.005278 -0.229048 
-0.006903 -0.230362 
-0.002898 -0.240344 
-0.003748 -0.127502 
0.001592 -0.141780 
-0.008167 -0.182183 
-0.002258 -0.162072 
-0.019637 -0.174113 
0.003983 -0.155563 
0.004480 -0.168134 
-0.029299 -0.250103 
-0.026018 -0.236438 
-0.041880 -0.247361 
0.001080 -0.210720 
-0.010312 -0.223489 
-0.002764 -0.225716 
-0.036632 -0.215630 
-0.021212 -0.220432 
-0.014890 -0.201994 
0.003560 -0.197000 
0.003137 -0.203645 
0.004320 -0.179289 
0.003967 -0.188906 
0.007523 -0.206053 
0.006594 -0.196090 
0.006524 -0.200888 
-0.000492 -0.189138 
0.004113 -0.195272 
0.005577 -0.180477 
-0.035714 -0.307693 
-0.035199 -0.303144 
-0.040512 -0.307689 
-0.022089 -0.291643 
-0.029027 -0.297878 
-0.023441 -0.296605 
-0.040291 -0.298076 
-0.034777 -0.298361 
-0.034415 -0.293068 
0.002715 -0.256770 
-0.001759 -0.266446 
0.000553 -0.263978 
-0.010184 -0.270287 
-0.005305 -0.268570 
-0.002616 -0.260257 
-0.010059 -0.281981 
-0.007796 -0.275786 
-0.014805 -0.284274 
-0.042151 -0.270049 
-0.032728 -0.271570 
-0.031415 -0.261719 
-0.034038 -0.287002 
-0.033530 -0.279916 
-0.041074 -0.286232 
-0.013726 -0.262345 
-0.024021 -0.271978 
-0.016440 -0.271481 
-0.020533 -0.285940 
-0.018680 -0.279285 
-0.027046 -0.286881 
-0.000004 -0.214563 
-0.000466 -0.211349 
0.000920 -0.217457 
0.000459 -0.216598 
0.000972 -0.220152 
0.000812 -0.217965 
0.002253 -0.221682 
0.002706 -0.208921 
0.002270 -0.212897 
0.005678 -0.220234 
0.004238 -0.215772 
0.006584 -0.217871 
0.001827 -0.215623 
0.001377 -0.217136 
0.005084 -0.245696 
0.006094 -0.238985 
0.005313 -0.247413 
0.003968 -0.226185 
0.005451 -0.231881 
0.004004 -0.230831 
0.007314 -0.232069 
0.006588 -0.232263 
0.006468 -0.225877 
0.002584 -0.219091 
0.004630 -0.221688 
0.003479 -0.222183 
-0.018790 -0.251389 
-0.004252 -0.251455 
-0.010490 -0.251718 
-0.006768 -0.239495 
0.002224 -0.227511 
0.004708 -0.248804 
0.007486 -0.231400 
0.006366 -0.240251 
0.003074 -0.249931 
0.000176 -0.250823 
0.005681 -0.208056 
0.006956 -0.217381 
0.007662 -0.210684 
0.007283 -0.214659 
0.007854 -0.222677 
0.002898 -0.240344 
0.006903 -0.230362 
0.005278 -0.229048 
-0.036323 -0.312266 
-0.030760 -0.306911 
-0.021353 -0.302681 
-0.025883 -0.305251 
-0.027140 -0.309494 
-0.024677 -0.301056 
-0.018338 -0.294563 
-0.010911 -0.284051 
-0.012101 -0.289809 
-0.014339 -0.291595 
-0.008003 -0.284314 
-0.010028 -0.287403 
-0.006560 -0.279712 
-0.019235 -0.302508 
-0.014295 -0.294895 
-0.017424 -0.299213 
-0.001657 -0.270341 
0.001754 -0.261186 
-0.012101 -0.287272 
-0.006393 -0.279147 
-0.002365 -0.272086 
-0.003837 -0.275835 
-0.005952 -0.280478 
-0.015706 -0.295715 
-0.010483 -0.288361 
-0.013962 -0.291796 
-0.031124 -0.222880 
-0.026683 -0.231635 
-0.030191 -0.228024 
-0.020360 -0.234660 
-0.023413 -0.233773 
-0.024467 -0.226442 
-0.022081 -0.245481 
-0.022553 -0.240090 
-0.018849 -0.248256 
-0.010194 -0.229506 
-0.012424 -0.231752 
-0.013460 -0.222571 
-0.010637 -0.248762 
-0.011409 -0.240486 
-0.008318 -0.246942 
-0.018581 -0.225852 
-0.014867 -0.233471 
-0.017513 -0.234498 
-0.013330 -0.277786 
-0.011528 -0.270909 
-0.010734 -0.277720 
-0.015696 -0.256130 
-0.013216 -0.263693 
-0.016142 -0.262169 
-0.008104 -0.263010 
-0.010557 -0.263916 
-0.010301 -0.256567 
-0.016550 -0.242404 
-0.013157 -0.249701 
-0.015886 -0.249593 
-0.001014 -0.212314 
-0.000937 -0.206943 
0.000870 -0.223024 
-0.000348 -0.217563 
-0.003031 -0.209109 
-0.001688 -0.213889 
-0.002535 -0.215981 
0.003675 -0.252121 
0.004185 -0.243575 
0.000880 -0.237788 
0.002746 -0.240967 
0.001540 -0.245961 
0.003586 -0.235846 
0.002322 -0.229031 
-0.009154 -0.217903 
-0.006412 -0.224081 
-0.008186 -0.226896 
-0.003591 -0.218471 
-0.004881 -0.221220 
-0.005699 -0.213054 
-0.002682 -0.237739 
-0.003778 -0.229414 
-0.001323 -0.233961 
0.000463 -0.226410 
-0.000269 -0.230121 
-0.001523 -0.222908 
-0.008366 -0.276633 
-0.005820 -0.261110 
-0.006681 -0.269027 
-0.006138 -0.274604 
-0.003993 -0.271686 
-0.007115 -0.235721 
-0.001904 -0.246221 
-0.004319 -0.241273 
-0.006207 -0.244394 
-0.005708 -0.252879 
0.001979 -0.258056 
-0.001912 -0.267921 
0.000093 -0.263356 
0.001361 -0.254554 
0.000027 -0.250628 
-0.003693 -0.258335 
-0.001734 -0.254800 
-0.002390 -0.263341 
-0.039455 -0.209836 
-0.035720 -0.213812 
-0.045003 -0.194597 
-0.040382 -0.204398 
-0.048951 -0.190689 
-0.032149 -0.216370 
-0.028745 -0.217721 
-0.060718 -0.150709 
-0.057463 -0.162473 
-0.065072 -0.148325 
-0.041511 -0.188159 
-0.049510 -0.175851 
-0.045363 -0.177021 
-0.057814 -0.170274 
-0.053666 -0.173677 
-0.049471 -0.184371 
-0.019540 -0.216467 
-0.016819 -0.214866 
-0.025508 -0.218064 
-0.022438 -0.217587 
-0.030168 -0.198934 
-0.026336 -0.208630 
-0.033716 -0.199148 
-0.041144 -0.197172 
-0.037378 -0.198623 
-0.033086 -0.208461 
-0.027929 -0.022103 
-0.045237 -0.044257 
-0.039199 -0.033644 
-0.049233 -0.074985 
-0.048664 -0.059095 
-0.042520 -0.056252 
-0.061928 -0.069614 
-0.055351 -0.063534 
-0.061241 -0.080819 
-0.034807 -0.135780 
-0.039905 -0.121662 
-0.035150 -0.120620 
-0.049868 -0.123704 
-0.044826 -0.122706 
-0.044147 -0.137762 
-0.042268 -0.089671 
-0.044300 -0.106662 
-0.047578 -0.091000 
-0.069535 -0.124557 
-0.064902 -0.125264 
-0.063265 -0.138329 
-0.064317 -0.096674 
-0.065369 -0.111422 
-0.069488 -0.098595 
-0.053803 -0.138998 
-0.060008 -0.125164 
-0.054961 -0.124570 
-0.053121 -0.092630 
-0.054860 -0.109141 
-0.058771 -0.094565 
-0.002843 -0.202043 
-0.001408 -0.201337 
-0.006010 -0.204763 
-0.004365 -0.203207 
-0.006842 -0.187977 
-0.005643 -0.196166 
-0.009269 -0.189167 
-0.014283 -0.212940 
-0.011936 -0.210834 
-0.017333 -0.193841 
-0.014687 -0.202826 
-0.020320 -0.195467 
-0.009780 -0.208686 
-0.007808 -0.206623 
-0.025244 -0.147721 
-0.023848 -0.160790 
-0.029357 -0.148859 
-0.013612 -0.180959 
-0.018530 -0.171501 
-0.015196 -0.170237 
-0.025608 -0.174165 
-0.021999 -0.172836 
-0.019797 -0.183851 
-0.009864 -0.199145 
-0.014499 -0.192183 
-0.011815 -0.190595 
-0.056238 -0.152016 
-0.047084 -0.152382 
-0.051676 -0.152502 
-0.048802 -0.165154 
-0.041249 -0.177389 
-0.033618 -0.149974 
-0.029352 -0.175396 
-0.031751 -0.163179 
-0.038013 -0.150994 
-0.042514 -0.151834 
-0.020183 -0.206339 
-0.033826 -0.188452 
-0.026745 -0.198148 
-0.023459 -0.196945 
-0.026550 -0.186643 
-0.040138 -0.164946 
-0.033219 -0.176428 
-0.037192 -0.177138 
0.000000 0.000000 
-0.021628 -0.018650 
-0.015093 -0.017110 
-0.017826 -0.017532 
0.000000 0.000000 
-0.032202 -0.036777 
-0.037094 -0.054529 
-0.008109 -0.016898 
-0.009518 -0.016889 
0.000000 0.000000 
-0.024257 -0.052343 
-0.017678 -0.034450 
-0.020791 -0.052004 
0.000000 0.000000 
-0.011103 -0.016897 
-0.012924 -0.016949 
-0.034460 -0.104553 
-0.030588 -0.119614 
-0.038386 -0.071857 
-0.037249 -0.088587 
-0.028120 -0.086923 
-0.032537 -0.087687 
-0.029187 -0.070198 
-0.023825 -0.034974 
-0.028073 -0.052803 
-0.032318 -0.053477 
0.000000 -0.016912 
-0.000860 -0.016928 
0.000000 0.000000 
-0.002260 -0.050903 
-0.001621 -0.033940 
0.000000 -0.050860 
0.000000 0.000000 
-0.001738 -0.016934 
-0.002645 -0.016936 
-0.003476 -0.115163 
-0.003366 -0.099949 
-0.000000 -0.115063 
-0.008435 -0.067943 
-0.006300 -0.084226 
-0.009543 -0.084470 
0.000000 -0.083995 
-0.003131 -0.084067 
-0.002764 -0.067666 
0.000000 0.000000 
-0.005672 -0.016922 
-0.006836 -0.016910 
-0.003593 -0.016934 
-0.004597 -0.016930 
0.000000 0.000000 
-0.011937 -0.051339 
-0.008608 -0.034103 
-0.009358 -0.051188 
-0.004552 -0.050971 
-0.006907 -0.051065 
-0.004967 -0.034007 
-0.001838 -0.194528 
0.000000 -0.201119 
-0.007934 -0.178642 
-0.004509 -0.187084 
0.000000 -0.186341 
-0.002239 -0.186531 
-0.002605 -0.177360 
-0.026076 -0.133661 
-0.021284 -0.146619 
-0.013798 -0.144709 
-0.017473 -0.145601 
-0.018023 -0.131768 
-0.016506 -0.158441 
-0.011988 -0.169110 
0.000000 -0.142960 
-0.003371 -0.143086 
-0.003474 -0.129579 
-0.002924 -0.167037 
-0.003184 -0.155595 
0.000000 -0.166882 
-0.010554 -0.130351 
-0.006774 -0.143429 
-0.010240 -0.143976 
-0.008890 -0.168175 
-0.009671 -0.156605 
-0.005877 -0.167474 
-0.012755 -0.034235 
-0.014534 -0.068440 
-0.014676 -0.051521 
-0.017614 -0.051738 
-0.021350 -0.069164 
-0.006988 -0.115415 
-0.014256 -0.116353 
-0.010570 -0.115815 
-0.010245 -0.100478 
-0.012897 -0.084797 
-0.026226 -0.118665 
-0.023978 -0.086264 
-0.025568 -0.102823 
-0.022061 -0.117794 
-0.018078 -0.117018 
-0.016398 -0.085206 
-0.017560 -0.101453 
-0.020081 -0.085695 
0.000000 0.000000 
0.000860 -0.016928 
0.002645 -0.016936 
0.001738 -0.016934 
0.000000 0.000000 
0.001621 -0.033940 
0.002260 -0.050903 
0.006836 -0.016910 
0.005672 -0.016922 
0.000000 0.000000 
0.009358 -0.051188 
0.008608 -0.034103 
0.011937 -0.051339 
0.000000 0.000000 
0.004597 -0.016930 
0.003593 -0.016934 
0.003366 -0.099949 
0.003476 -0.115163 
0.002764 -0.067666 
0.003131 -0.084067 
0.009543 -0.084470 
0.006300 -0.084226 
0.008435 -0.067943 
0.004967 -0.034007 
0.006907 -0.051065 
0.004552 -0.050971 
0.027929 -0.022103 
0.021628 -0.018650 
0.000000 0.000000 
0.037094 -0.054529 
0.032202 -0.036777 
0.042520 -0.056252 
0.000000 0.000000 
0.017826 -0.017532 
0.015093 -0.017110 
0.030588 -0.119614 
0.034460 -0.104553 
0.035150 -0.120620 
0.029187 -0.070198 
0.032537 -0.087687 
0.028120 -0.086923 
0.042268 -0.089671 
0.037249 -0.088587 
0.038386 -0.071857 
0.000000 0.000000 
0.009518 -0.016889 
0.008109 -0.016898 
0.012924 -0.016949 
0.011103 -0.016897 
0.000000 0.000000 
0.020791 -0.052004 
0.017678 -0.034450 
0.024257 -0.052343 
0.032318 -0.053477 
0.028073 -0.052803 
0.023825 -0.034974 
0.001838 -0.194528 
0.001408 -0.201337 
0.002605 -0.177360 
0.002239 -0.186531 
0.006842 -0.187977 
0.004509 -0.187084 
0.007934 -0.178642 
0.003474 -0.129579 
0.003371 -0.143086 
0.010240 -0.143976 
0.006774 -0.143429 
0.010554 -0.130351 
0.003184 -0.155595 
0.002924 -0.167037 
0.025244 -0.147721 
0.021284 -0.146619 
0.026076 -0.133661 
0.011988 -0.169110 
0.016506 -0.158441 
0.015196 -0.170237 
0.018023 -0.131768 
0.017473 -0.145601 
0.013798 -0.144709 
0.005877 -0.167474 
0.009671 -0.156605 
0.008890 -0.168175 
0.012755 -0.034235 
0.021350 -0.069164 
0.017614 -0.051738 
0.014676 -0.051521 
0.014534 -0.068440 
0.026226 -0.118665 
0.018078 -0.117018 
0.022061 -0.117794 
0.025568 -0.102823 
0.023978 -0.086264 
0.006988 -0.115415 
0.012897 -0.084797 
0.010245 -0.100478 
0.010570 -0.115815 
0.014256 -0.116353 
0.020081 -0.085695 
0.017560 -0.101453 
0.016398 -0.085206 
0.039199 -0.033644 
0.045237 -0.044257 
0.061241 -0.080819 
0.055351 -0.063534 
0.061928 -0.069614 
0.048664 -0.059095 
0.049233 -0.074985 
0.063265 -0.138329 
0.064902 -0.125264 
0.069535 -0.124557 
0.054961 -0.124570 
0.060008 -0.125164 
0.053803 -0.138998 
0.069488 -0.098595 
0.065369 -0.111422 
0.064317 -0.096674 
0.039905 -0.121662 
0.034807 -0.135780 
0.047578 -0.091000 
0.044300 -0.106662 
0.044147 -0.137762 
0.044826 -0.122706 
0.049868 -0.123704 
0.058771 -0.094565 
0.054860 -0.109141 
0.053121 -0.092630 
0.031124 -0.222880 
0.035720 -0.213812 
0.039455 -0.209836 
0.028745 -0.217721 
0.032149 -0.216370 
0.024467 -0.226442 
0.048951 -0.190689 
0.040382 -0.204398 
0.045003 -0.194597 
0.016819 -0.214866 
0.019540 -0.216467 
0.013460 -0.222571 
0.033716 -0.199148 
0.026336 -0.208630 
0.030168 -0.198934 
0.018581 -0.225852 
0.022438 -0.217587 
0.025508 -0.218064 
0.065072 -0.148325 
0.057463 -0.162473 
0.060718 -0.150709 
0.049471 -0.184371 
0.053666 -0.173677 
0.057814 -0.170274 
0.045363 -0.177021 
0.049510 -0.175851 
0.041511 -0.188159 
0.033086 -0.208461 
0.037378 -0.198623 
0.041144 -0.197172 
0.002843 -0.202043 
0.000937 -0.206943 
0.009269 -0.189167 
0.005643 -0.196166 
0.003031 -0.209109 
0.004365 -0.203207 
0.006010 -0.204763 
0.029357 -0.148859 
0.023848 -0.160790 
0.019797 -0.183851 
0.021999 -0.172836 
0.025608 -0.174165 
0.018530 -0.171501 
0.013612 -0.180959 
0.009154 -0.217903 
0.011936 -0.210834 
0.014283 -0.212940 
0.007808 -0.206623 
0.009780 -0.208686 
0.005699 -0.213054 