# vtk DataFile Version 2.0
Unstructured Grid Example
ASCII
DATASET UNSTRUCTURED_GRID

POINTS 16641 float
0.039853 -0.312244 0.000000 
0.960147 -0.312244 0.000000 
1.000000 1.000000 0.000000 
0.000000 1.000000 0.000000 
0.500000 -0.100000 0.000000 
0.965196 0.280829 0.000000 
0.500000 1.000000 0.000000 
0.034804 0.280829 0.000000 
0.500000 0.292745 0.000000 
0.291598 -0.260431 0.000000 
0.500000 0.041386 0.000000 
0.246110 -0.005044 0.000000 
0.708402 -0.260431 0.000000 
0.753890 -0.005044 0.000000 
0.986926 -0.035029 0.000000 
0.738731 0.279248 0.000000 
0.932037 0.613165 0.000000 
0.719487 0.615018 0.000000 
0.750000 1.000000 0.000000 
0.500000 0.620191 0.000000 
0.250000 1.000000 0.000000 
0.280513 0.615018 0.000000 
0.067963 0.613165 0.000000 
0.261269 0.279248 0.000000 
0.013074 -0.035029 0.000000 
0.164683 -0.292956 0.000000 
0.256877 -0.137094 0.000000 
0.141191 -0.165118 0.000000 
0.500000 -0.051693 0.000000 
0.369596 -0.089851 0.000000 
0.403689 -0.196311 0.000000 
0.372545 0.149304 0.000000 
0.367535 0.024754 0.000000 
0.500000 0.157360 0.000000 
0.596311 -0.196311 0.000000 
0.630404 -0.089851 0.000000 
0.858809 -0.165118 0.000000 
0.743123 -0.137094 0.000000 
0.835317 -0.292956 0.000000 
0.632465 0.024754 0.000000 
0.627455 0.149304 0.000000 
0.977622 -0.181555 0.000000 
0.870784 -0.026578 0.000000 
0.853511 0.273154 0.000000 
0.867148 0.119578 0.000000 
0.981293 0.120990 0.000000 
0.749668 0.132428 0.000000 
0.620665 0.288544 0.000000 
0.946315 0.444191 0.000000 
0.837232 0.436083 0.000000 
0.831143 0.801658 0.000000 
0.825838 0.611238 0.000000 
0.932793 0.790250 0.000000 
0.726782 0.439329 0.000000 
0.614222 0.444874 0.000000 
0.875000 1.000000 0.000000 
0.724721 0.805225 0.000000 
0.500000 0.807208 0.000000 
0.613512 0.806697 0.000000 
0.625000 1.000000 0.000000 
0.610691 0.618712 0.000000 
0.500000 0.447349 0.000000 
0.375000 1.000000 0.000000 
0.386488 0.806697 0.000000 
0.168857 0.801658 0.000000 
0.275279 0.805225 0.000000 
0.125000 1.000000 0.000000 
0.389309 0.618712 0.000000 
0.385778 0.444874 0.000000 
0.067207 0.790250 0.000000 
0.174162 0.611238 0.000000 
0.146489 0.273154 0.000000 
0.162768 0.436083 0.000000 
0.053685 0.444191 0.000000 
0.273218 0.439329 0.000000 
0.379335 0.288544 0.000000 
0.018707 0.120990 0.000000 
0.132852 0.119578 0.000000 
0.129216 -0.026578 0.000000 
0.022378 -0.181555 0.000000 
0.250332 0.132428 0.000000 
0.101805 -0.303229 0.000000 
0.152446 -0.230614 0.000000 
0.091687 -0.240191 0.000000 
0.271182 -0.200688 0.000000 
0.212612 -0.218058 0.000000 
0.228317 -0.279386 0.000000 
0.191281 -0.086169 0.000000 
0.199681 -0.153289 0.000000 
0.248947 -0.071635 0.000000 
0.500000 -0.085034 0.000000 
0.433754 -0.109995 0.000000 
0.446458 -0.153542 0.000000 
0.431156 -0.015924 0.000000 
0.430678 -0.064469 0.000000 
0.500000 -0.008529 0.000000 
0.352212 -0.233723 0.000000 
0.379432 -0.145025 0.000000 
0.326816 -0.176697 0.000000 
0.437634 0.221149 0.000000 
0.435814 0.155201 0.000000 
0.500000 0.222681 0.000000 
0.305719 0.009670 0.000000 
0.369654 0.085414 0.000000 
0.307365 0.074276 0.000000 
0.500000 0.096858 0.000000 
0.434076 0.093740 0.000000 
0.432479 0.036714 0.000000 
0.312932 -0.115675 0.000000 
0.366921 -0.033369 0.000000 
0.306917 -0.053450 0.000000 
0.553542 -0.153542 0.000000 
0.566246 -0.109995 0.000000 
0.673184 -0.176697 0.000000 
0.620568 -0.145025 0.000000 
0.647788 -0.233723 0.000000 
0.569322 -0.064469 0.000000 
0.568844 -0.015924 0.000000 
0.908313 -0.240191 0.000000 
0.847554 -0.230614 0.000000 
0.898195 -0.303229 0.000000 
0.751053 -0.071635 0.000000 
0.800319 -0.153289 0.000000 
0.808719 -0.086169 0.000000 
0.771683 -0.279386 0.000000 
0.787388 -0.218058 0.000000 
0.728818 -0.200688 0.000000 
0.564186 0.155201 0.000000 
0.562366 0.221149 0.000000 
0.567521 0.036714 0.000000 
0.565924 0.093740 0.000000 
0.692635 0.074276 0.000000 
0.630346 0.085414 0.000000 
0.694281 0.009670 0.000000 
0.687068 -0.115675 0.000000 
0.693083 -0.053450 0.000000 
0.633079 -0.033369 0.000000 
0.969045 -0.248839 0.000000 
0.918138 -0.173949 0.000000 
0.929062 -0.032448 0.000000 
0.925477 -0.104560 0.000000 
0.984045 -0.110028 0.000000 
0.866853 -0.096936 0.000000 
0.812465 -0.017394 0.000000 
0.909752 0.274509 0.000000 
0.918059 0.195435 0.000000 
0.974074 0.200538 0.000000 
0.803331 0.198778 0.000000 
0.861114 0.195349 0.000000 
0.796514 0.275190 0.000000 
0.985866 0.042295 0.000000 
0.924680 0.117881 0.000000 
0.928636 0.041845 0.000000 
0.624145 0.216899 0.000000 
0.560531 0.291668 0.000000 
0.753045 0.062809 0.000000 
0.689291 0.141127 0.000000 
0.680111 0.284080 0.000000 
0.684948 0.210886 0.000000 
0.744653 0.204395 0.000000 
0.870669 0.045628 0.000000 
0.808853 0.124808 0.000000 
0.812207 0.052870 0.000000 
0.955655 0.361943 0.000000 
0.900725 0.355267 0.000000 
0.884166 0.523016 0.000000 
0.891883 0.437986 0.000000 
0.938094 0.527840 0.000000 
0.845256 0.353285 0.000000 
0.789218 0.354453 0.000000 
0.899200 0.898051 0.000000 
0.882020 0.797265 0.000000 
0.946204 0.883936 0.000000 
0.772905 0.612928 0.000000 
0.825250 0.704421 0.000000 
0.773030 0.706728 0.000000 
0.929537 0.700470 0.000000 
0.877068 0.701904 0.000000 
0.878694 0.610792 0.000000 
0.617259 0.364488 0.000000 
0.558773 0.366842 0.000000 
0.732556 0.357439 0.000000 
0.675229 0.361103 0.000000 
0.667286 0.527577 0.000000 
0.670774 0.442228 0.000000 
0.722134 0.525165 0.000000 
0.830376 0.521930 0.000000 
0.776450 0.523021 0.000000 
0.782241 0.436949 0.000000 
0.937500 1.000000 0.000000 
0.847152 0.901806 0.000000 
0.734807 0.903111 0.000000 
0.791805 0.902782 0.000000 
0.812500 1.000000 0.000000 
0.778697 0.803927 0.000000 
0.719935 0.708643 0.000000 
0.500000 0.903496 0.000000 
0.559207 0.903461 0.000000 
0.562500 1.000000 0.000000 
0.555688 0.712108 0.000000 
0.556899 0.807071 0.000000 
0.500000 0.712370 0.000000 
0.687500 1.000000 0.000000 
0.618217 0.903388 0.000000 
0.676830 0.903276 0.000000 
0.557232 0.446699 0.000000 
0.500000 0.367680 0.000000 
0.665410 0.617046 0.000000 
0.611894 0.529695 0.000000 
0.500000 0.531637 0.000000 
0.556067 0.531128 0.000000 
0.555478 0.619805 0.000000 
0.669551 0.806092 0.000000 
0.611082 0.711366 0.000000 
0.665907 0.710193 0.000000 
0.437500 1.000000 0.000000 
0.440793 0.903461 0.000000 
0.323170 0.903276 0.000000 
0.381783 0.903388 0.000000 
0.312500 1.000000 0.000000 
0.443101 0.807071 0.000000 
0.444312 0.712108 0.000000 
0.100800 0.898051 0.000000 
0.152848 0.901806 0.000000 
0.062500 1.000000 0.000000 
0.280065 0.708643 0.000000 
0.221303 0.803927 0.000000 
0.226970 0.706728 0.000000 
0.187500 1.000000 0.000000 
0.208195 0.902782 0.000000 
0.265193 0.903111 0.000000 
0.442768 0.446699 0.000000 
0.441227 0.366842 0.000000 
0.444522 0.619805 0.000000 
0.443933 0.531128 0.000000 
0.332714 0.527577 0.000000 
0.388106 0.529695 0.000000 
0.334590 0.617046 0.000000 
0.330449 0.806092 0.000000 
0.334093 0.710193 0.000000 
0.388918 0.711366 0.000000 
0.053796 0.883936 0.000000 
0.117980 0.797265 0.000000 
0.121306 0.610792 0.000000 
0.122932 0.701904 0.000000 
0.070463 0.700470 0.000000 
0.174750 0.704421 0.000000 
0.227095 0.612928 0.000000 
0.090248 0.274509 0.000000 
0.099275 0.355267 0.000000 
0.044345 0.361943 0.000000 
0.210782 0.354453 0.000000 
0.154744 0.353285 0.000000 
0.203486 0.275190 0.000000 
0.061906 0.527840 0.000000 
0.108117 0.437986 0.000000 
0.115834 0.523016 0.000000 
0.382741 0.364488 0.000000 
0.439469 0.291668 0.000000 
0.277866 0.525165 0.000000 
0.329226 0.442228 0.000000 
0.319889 0.284080 0.000000 
0.324771 0.361103 0.000000 
0.267444 0.357439 0.000000 
0.169624 0.521930 0.000000 
0.217759 0.436949 0.000000 
0.223550 0.523021 0.000000 
0.025926 0.200538 0.000000 
0.081941 0.195435 0.000000 
0.071364 0.041845 0.000000 
0.075320 0.117881 0.000000 
0.014134 0.042295 0.000000 
0.138886 0.195349 0.000000 
0.196669 0.198778 0.000000 
0.081862 -0.173949 0.000000 
0.030955 -0.248839 0.000000 
0.187535 -0.017394 0.000000 
0.133147 -0.096936 0.000000 
0.015955 -0.110028 0.000000 
0.074523 -0.104560 0.000000 
0.070938 -0.032448 0.000000 
0.375855 0.216899 0.000000 
0.255347 0.204395 0.000000 
0.315052 0.210886 0.000000 
0.310709 0.141127 0.000000 
0.246955 0.062809 0.000000 
0.129331 0.045628 0.000000 
0.187793 0.052870 0.000000 
0.191147 0.124808 0.000000 
0.070754 -0.307780 0.000000 
0.096873 -0.272089 0.000000 
0.066115 -0.276527 0.000000 
0.158640 -0.262195 0.000000 
0.127726 -0.267400 0.000000 
0.133112 -0.298375 0.000000 
0.116610 -0.203116 0.000000 
0.122093 -0.235654 0.000000 
0.146522 -0.198237 0.000000 
0.280780 -0.231199 0.000000 
0.250803 -0.240960 0.000000 
0.260107 -0.270718 0.000000 
0.234655 -0.178297 0.000000 
0.242177 -0.210086 0.000000 
0.263184 -0.169220 0.000000 
0.196456 -0.286712 0.000000 
0.220317 -0.249217 0.000000 
0.189542 -0.256216 0.000000 
0.217896 -0.045646 0.000000 
0.220146 -0.079391 0.000000 
0.246985 -0.038475 0.000000 
0.170576 -0.159672 0.000000 
0.194880 -0.119966 0.000000 
0.165894 -0.126103 0.000000 
0.252183 -0.104525 0.000000 
0.223632 -0.112800 0.000000 
0.228454 -0.145809 0.000000 
0.182655 -0.224826 0.000000 
0.205640 -0.186033 0.000000 
0.176230 -0.192613 0.000000 
0.500000 -0.095398 0.000000 
0.466163 -0.111694 0.000000 
0.470408 -0.129592 0.000000 
0.463995 -0.075344 0.000000 
0.464161 -0.093997 0.000000 
0.500000 -0.069948 0.000000 
0.424749 -0.175251 0.000000 
0.438718 -0.131896 0.000000 
0.413435 -0.151856 0.000000 
0.465604 0.014165 0.000000 
0.465168 -0.010478 0.000000 
0.500000 0.015682 0.000000 
0.399290 -0.076585 0.000000 
0.430731 -0.040663 0.000000 
0.398432 -0.050505 0.000000 
0.500000 -0.031075 0.000000 
0.464734 -0.033662 0.000000 
0.464316 -0.055294 0.000000 
0.322468 -0.248219 0.000000 
0.337906 -0.206061 0.000000 
0.309946 -0.219667 0.000000 
0.388983 -0.171562 0.000000 
0.364232 -0.190051 0.000000 
0.379941 -0.216536 0.000000 
0.345868 -0.132641 0.000000 
0.353326 -0.161746 0.000000 
0.373277 -0.117655 0.000000 
0.431414 -0.087519 0.000000 
0.401535 -0.102247 0.000000 
[...]
POINT_DATA 16641

SCALARS u_h float 2
LOOKUP_TABLE default
0.039853 -0.312244 
-0.039853 -0.312244 
0.000000 0.000000 
0.000000 0.000000 
0.000000 -0.100000 
-0.034804 -0.219171 
0.000000 0.000000 
0.034804 -0.219171 
-0.000000 -0.207255 
0.041598 -0.260431 
0.000000 -0.208614 
-0.003890 -0.255044 
-0.041598 -0.260431 
0.003890 -0.255044 
-0.013074 -0.285029 
-0.011269 -0.220752 
-0.067963 -0.136835 
-0.030513 -0.134982 
0.000000 0.000000 
-0.000000 -0.129809 
0.000000 0.000000 
0.030513 -0.134982 
0.067963 -0.136835 
0.011269 -0.220752 
0.013074 -0.285029 
0.039683 -0.292956 
0.006877 -0.262094 
0.016191 -0.290118 
0.000000 -0.176693 
-0.005404 -0.214851 
0.028689 -0.196311 
-0.002455 -0.225696 
-0.007465 -0.225246 
0.000000 -0.217640 
-0.028689 -0.196311 
0.005404 -0.214851 
-0.016191 -0.290118 
-0.006877 -0.262094 
-0.039683 -0.292956 
0.007465 -0.225246 
0.002455 -0.225696 
-0.022378 -0.306555 
-0.004216 -0.276578 
-0.021489 -0.226846 
-0.007852 -0.255422 
-0.018707 -0.254010 
-0.000332 -0.242572 
-0.004335 -0.211456 
-0.053685 -0.180809 
-0.037768 -0.188917 
-0.043857 -0.073342 
-0.049162 -0.138762 
-0.067207 -0.084750 
-0.023218 -0.185671 
-0.010778 -0.180126 
0.000000 0.000000 
-0.025279 -0.069775 
-0.000000 -0.067792 
-0.011488 -0.068303 
0.000000 0.000000 
-0.014309 -0.131288 
-0.000000 -0.177651 
0.000000 0.000000 
0.011488 -0.068303 
0.043857 -0.073342 
0.025279 -0.069775 
0.000000 0.000000 
0.014309 -0.131288 
0.010778 -0.180126 
0.067207 -0.084750 
0.049162 -0.138762 
0.021489 -0.226846 
0.037768 -0.188917 
0.053685 -0.180809 
0.023218 -0.185671 
0.004335 -0.211456 
0.018707 -0.254010 
0.007852 -0.255422 
0.004216 -0.276578 
0.022378 -0.306555 
0.000332 -0.242572 
0.039305 -0.303229 
0.027446 -0.293114 
0.029187 -0.302691 
0.021182 -0.263188 
0.025112 -0.280558 
0.040817 -0.279386 
0.003781 -0.273669 
0.012181 -0.278289 
-0.001053 -0.259135 
0.000000 -0.147534 
-0.003746 -0.172495 
0.008958 -0.153542 
-0.006344 -0.203424 
-0.006822 -0.189469 
0.000000 -0.196029 
0.039712 -0.233723 
0.004432 -0.207525 
0.014316 -0.239197 
0.000134 -0.216351 
-0.001686 -0.219799 
0.000000 -0.214819 
-0.006781 -0.240330 
-0.005346 -0.227086 
-0.005135 -0.238224 
0.000000 -0.215642 
-0.003424 -0.218760 
-0.005021 -0.213286 
0.000432 -0.240675 
-0.008079 -0.220869 
-0.005583 -0.240950 
-0.008958 -0.153542 
0.003746 -0.172495 
-0.014316 -0.239197 
-0.004432 -0.207525 
-0.039712 -0.233723 
0.006822 -0.189469 
0.006344 -0.203424 
-0.029187 -0.302691 
-0.027446 -0.293114 
-0.039305 -0.303229 
0.001053 -0.259135 
-0.012181 -0.278289 
-0.003781 -0.273669 
-0.040817 -0.279386 
-0.025112 -0.280558 
-0.021182 -0.263188 
0.001686 -0.219799 
-0.000134 -0.216351 
0.005021 -0.213286 
0.003424 -0.218760 
0.005135 -0.238224 
0.005346 -0.227086 
0.006781 -0.240330 
-0.000432 -0.240675 
0.005583 -0.240950 
0.008079 -0.220869 
-0.030955 -0.311339 
-0.019362 -0.298949 
-0.008438 -0.282448 
-0.012023 -0.292060 
-0.015955 -0.297528 
-0.008147 -0.284436 
-0.000035 -0.267394 
-0.027748 -0.225491 
-0.019441 -0.242065 
-0.025926 -0.236962 
-0.009169 -0.238722 
-0.013886 -0.242151 
-0.015986 -0.224810 
-0.014134 -0.270205 
-0.012820 -0.257119 
-0.008864 -0.270655 
-0.000855 -0.220601 
-0.001969 -0.208332 
0.003045 -0.249691 
0.001791 -0.233873 
-0.007389 -0.215920 
-0.002552 -0.226614 
-0.005347 -0.233105 
-0.004331 -0.266872 
-0.003647 -0.250192 
-0.000293 -0.259630 
-0.044345 -0.200557 
-0.036775 -0.207233 
-0.053334 -0.164484 
-0.045617 -0.187014 
-0.061906 -0.159660 
-0.029744 -0.209215 
-0.023282 -0.208047 
-0.038300 -0.039449 
-0.055480 -0.077735 
-0.053796 -0.053564 
-0.039595 -0.137072 
-0.049750 -0.108079 
-0.039470 -0.105772 
-0.070463 -0.112030 
-0.060432 -0.110596 
-0.058806 -0.139208 
-0.007741 -0.198012 
-0.003727 -0.195658 
-0.017444 -0.205061 
-0.012271 -0.201397 
-0.020214 -0.159923 
-0.016726 -0.182772 
-0.027866 -0.162335 
-0.044624 -0.165570 
-0.036050 -0.164479 
-0.030259 -0.188051 
0.000000 0.000000 
-0.027848 -0.035694 
-0.015193 -0.034389 
-0.020695 -0.034718 
0.000000 0.000000 
-0.033803 -0.071073 
-0.030065 -0.103857 
0.000000 -0.034004 
-0.003293 -0.034039 
0.000000 0.000000 
-0.006812 -0.100392 
-0.005601 -0.067929 
-0.000000 -0.100130 
0.000000 0.000000 
-0.006783 -0.034112 
-0.010670 -0.034224 
-0.005268 -0.178301 
-0.000000 -0.194820 
-0.022090 -0.132954 
-0.013106 -0.157805 
-0.000000 -0.155863 
-0.006433 -0.156372 
-0.007022 -0.130195 
-0.017949 -0.068908 
-0.013918 -0.101134 
-0.021593 -0.102307 
0.000000 0.000000 
0.003293 -0.034039 
0.010670 -0.034224 
0.006783 -0.034112 
0.000000 0.000000 
0.005601 -0.067929 
0.006812 -0.100392 
0.038300 -0.039449 
0.027848 -0.035694 
0.000000 0.000000 
0.030065 -0.103857 
0.033803 -0.071073 
0.039470 -0.105772 
0.000000 0.000000 
0.020695 -0.034718 
0.015193 -0.034389 
0.005268 -0.178301 
0.003727 -0.195658 
0.007022 -0.130195 
0.006433 -0.156372 
0.020214 -0.159923 
0.013106 -0.157805 
0.022090 -0.132954 
0.017949 -0.068908 
0.021593 -0.102307 
0.013918 -0.101134 
0.053796 -0.053564 
0.055480 -0.077735 
0.058806 -0.139208 
0.060432 -0.110596 
0.070463 -0.112030 
0.049750 -0.108079 
0.039595 -0.137072 
0.027748 -0.225491 
0.036775 -0.207233 
0.044345 -0.200557 
0.023282 -0.208047 
0.029744 -0.209215 
0.015986 -0.224810 
0.061906 -0.159660 
0.045617 -0.187014 
0.053334 -0.164484 
0.007741 -0.198012 
0.001969 -0.208332 
0.027866 -0.162335 
0.016726 -0.182772 
0.007389 -0.215920 
0.012271 -0.201397 
0.017444 -0.205061 
0.044624 -0.165570 
0.030259 -0.188051 
0.036050 -0.164479 
0.025926 -0.236962 
0.019441 -0.242065 
0.008864 -0.270655 
0.012820 -0.257119 
0.014134 -0.270205 
0.013886 -0.242151 
0.009169 -0.238722 
0.019362 -0.298949 
0.030955 -0.311339 
0.000035 -0.267394 
0.008147 -0.284436 
0.015955 -0.297528 
0.012023 -0.292060 
0.008438 -0.282448 
0.000855 -0.220601 
0.005347 -0.233105 
0.002552 -0.226614 
-0.001791 -0.233873 
-0.003045 -0.249691 
0.004331 -0.266872 
0.000293 -0.259630 
0.003647 -0.250192 
0.039504 -0.307780 
0.034373 -0.303339 
0.034865 -0.307777 
0.033640 -0.293445 
0.033976 -0.298650 
0.039362 -0.298375 
0.022860 -0.296866 
0.028343 -0.298154 
0.021522 -0.291987 
0.030780 -0.262449 
0.032053 -0.272210 
0.041357 -0.270718 
0.015905 -0.272047 
0.023427 -0.272586 
0.013184 -0.262970 
0.040206 -0.286712 
0.032817 -0.280467 
0.033292 -0.287466 
-0.000854 -0.264396 
0.001396 -0.266891 
-0.003015 -0.257225 
0.014326 -0.284672 
0.007380 -0.276216 
0.009644 -0.282353 
0.002183 -0.260775 
0.004882 -0.269050 
0.009704 -0.270809 
0.026405 -0.287326 
0.018140 -0.279783 
0.019980 -0.286363 
0.000000 -0.126648 
-0.002587 -0.142944 
0.001658 -0.129592 
-0.004755 -0.169094 
-0.004589 -0.156497 
0.000000 -0.163698 
0.018499 -0.175251 
0.001218 -0.163146 
0.007185 -0.183106 
-0.003146 -0.204585 
-0.003582 -0.197978 
0.000000 -0.203068 
-0.006960 -0.201585 
-0.006769 -0.196913 
-0.007818 -0.206755 
0.000000 -0.187325 
-0.004016 -0.189912 
-0.004434 -0.180294 
0.041218 -0.248219 
0.025406 -0.237311 
0.028696 -0.250917 
0.013983 -0.202812 
0.020482 -0.221301 
0.036191 -0.216536 
0.002118 -0.226391 
0.009576 -0.224246 
-0.001723 -0.211405 
-0.006086 -0.181269 
-0.004715 -0.195997 
-0.000287 -0.189937 
0.000493 -0.211948 
0.000027 -0.215207 
-0.000000 -0.211623 
-0.002229 -0.222357 
-0.000782 -0.218640 
-0.000937 -0.220801 
0.000000 -0.216827 
-0.000441 -0.217287 
-0.000906 -0.218190 
-0.005534 -0.247892 
-0.006227 -0.239511 
-0.005242 -0.246172 
-0.006534 -0.226533 
-0.006690 -0.232849 
-0.007475 -0.232650 
-0.004024 -0.231416 
-0.005507 -0.232469 
-0.003970 -0.226829 
0.000000 -0.212779 
-0.002267 -0.213754 
-0.002708 -0.209819 
-0.001366 -0.217910 
-0.001820 -0.216439 
0.000000 -0.217251 
-0.006650 -0.218608 
-0.004245 -0.216576 
-0.005709 -0.220966 
-0.003469 -0.222882 
-0.004637 -0.222406 
-0.002568 -0.219836 
0.018195 -0.252133 
-0.002760 -0.228132 
0.006159 -0.240174 
0.009923 -0.252382 
0.003739 -0.252051 
-0.005733 -0.208897 
-0.008035 -0.223321 
-0.007399 -0.215392 
-0.007852 -0.211403 
-0.007334 -0.218012 
-0.005000 -0.249294 
-0.000619 -0.251368 
-0.003441 -0.250441 
-0.006637 -0.240779 
-0.007721 -0.231977 
-0.005704 -0.229638 
-0.007226 -0.230940 
-0.003343 -0.240910 
-0.001658 -0.129592 
0.002587 -0.142944 
-0.007185 -0.183106 
-0.001218 -0.163146 
-0.018499 -0.175251 
0.004589 -0.156497 
0.004755 -0.169094 
-0.028696 -0.250917 
-0.025406 -0.237311 
-0.041218 -0.248219 
0.001723 -0.211405 
-0.009576 -0.224246 
-0.002118 -0.226391 
-0.036191 -0.216536 
-0.020482 -0.221301 
-0.013983 -0.202812 
0.003582 -0.197978 
0.003146 -0.204585 
0.004434 -0.180294 
0.004016 -0.189912 
0.007818 -0.206755 
0.006769 -0.196913 
0.006960 -0.201585 
0.000287 -0.189937 
0.004715 -0.195997 
0.006086 -0.181269 
-0.034865 -0.307777 
-0.034373 -0.303339 
-0.039504 -0.307780 
-0.021522 -0.291987 
-0.028343 -0.298154 
-0.022860 -0.296866 
-0.039362 -0.298375 
-0.033976 -0.298650 
-0.033640 -0.293445 
0.003015 -0.257225 
-0.001396 -0.266891 
0.000854 -0.264396 
-0.009704 -0.270809 
-0.004882 -0.269050 
-0.002183 -0.260775 
-0.009644 -0.282353 
-0.007380 -0.276216 
-0.014326 -0.284672 
-0.041357 -0.270718 
-0.032053 -0.272210 
-0.030780 -0.262449 
-0.033292 -0.287466 
-0.032817 -0.280467 
-0.040206 -0.286712 
-0.013184 -0.262970 
-0.023427 -0.272586 
-0.015905 -0.272047 
-0.019980 -0.286363 
-0.018140 -0.279783 
-0.026405 -0.287326 
-0.000027 -0.215207 
-0.000493 -0.211948 
0.000906 -0.218190 
0.000441 -0.217287 
0.000937 -0.220801 
0.000782 -0.218640 
0.002229 -0.222357 
0.002708 -0.209819 
0.002267 -0.213754 
0.005709 -0.220966 
0.004245 -0.216576 
0.006650 -0.218608 
0.001820 -0.216439 
0.001366 -0.217910 
0.005242 -0.246172 
0.006227 -0.239511 
0.005534 -0.247892 
0.003970 -0.226829 
0.005507 -0.232469 
0.004024 -0.231416 
0.007475 -0.232650 
0.006690 -0.232849 
0.006534 -0.226533 
0.002568 -0.219836 
0.004637 -0.222406 
0.003469 -0.222882 
-0.018195 -0.252133 
-0.003739 -0.252051 
-0.009923 -0.252382 
-0.006159 -0.240174 
0.002760 -0.228132 
0.005000 -0.249294 
0.007721 -0.231977 
0.006637 -0.240779 
0.003441 -0.250441 
0.000619 -0.251368 
0.005733 -0.208897 
0.007334 -0.218012 
0.007852 -0.211403 
0.007399 -0.215392 
0.008035 -0.223321 
0.003343 -0.240910 
0.007226 -0.230940 
0.005704 -0.229638 
-0.035440 -0.312191 
-0.030045 -0.306990 
-0.020838 -0.302767 
-0.025277 -0.305332 
-0.026517 -0.309490 
-0.024083 -0.301229 
-0.017843 -0.294810 
-0.010656 -0.284154 
-0.011791 -0.289909 
-0.014024 -0.291642 
-0.007702 -0.284532 
-0.009723 -0.287561 
-0.006312 -0.279925 
-0.018788 -0.302541 
-0.013924 -0.294991 
-0.016986 -0.299304 
-0.001357 -0.270717 
0.001995 -0.261586 
-0.011684 -0.287578 
-0.006038 -0.279495 
-0.002120 -0.272400 
-0.003538 -0.276163 
-0.005653 -0.280753 
-0.015277 -0.295877 
-0.010125 -0.288586 
-0.013540 -0.292031 
-0.031171 -0.223064 
-0.026713 -0.231806 
-0.030217 -0.228166 
-0.020394 -0.234896 
-0.023445 -0.233975 
-0.024523 -0.226685 
-0.022047 -0.245577 
-0.022555 -0.240247 
-0.018819 -0.248399 
-0.010240 -0.229890 
-0.012467 -0.232098 
-0.013526 -0.222954 
-0.010614 -0.249025 
-0.011422 -0.240791 
-0.008300 -0.247244 
-0.018642 -0.226163 
-0.014906 -0.233779 
-0.017549 -0.234770 
-0.013123 -0.277839 
-0.011373 -0.271022 
-0.010530 -0.277827 
-0.015627 -0.256260 
-0.013106 -0.263814 
-0.016029 -0.262236 
-0.008000 -0.263223 
-0.010450 -0.264085 
-0.010238 -0.256785 
-0.016557 -0.242635 
-0.013131 -0.249925 
-0.015858 -0.249777 
-0.001054 -0.212919 
-0.000958 -0.207501 
0.000836 -0.223636 
-0.000391 -0.218185 
-0.003081 -0.209675 
-0.001736 -0.214484 
-0.002589 -0.216553 
0.003849 -0.252553 
0.004288 -0.244051 
0.000899 -0.238264 
0.002804 -0.241443 
0.001612 -0.246389 
0.003625 -0.236374 
0.002314 -0.229610 
-0.009223 -0.218359 
-0.006466 -0.224545 
-0.008236 -0.227320 
-0.003648 -0.219011 
-0.004937 -0.221724 
-0.005764 -0.213576 
-0.002683 -0.238167 
-0.003813 -0.229884 
-0.001334 -0.234436 
0.000434 -0.226979 
-0.000289 -0.230643 
-0.001568 -0.223463 
-0.008166 -0.276792 
-0.005719 -0.261366 
-0.006532 -0.269238 
-0.005941 -0.274814 
-0.003799 -0.271945 
-0.007138 -0.236106 
-0.001862 -0.246605 
-0.004313 -0.241657 
-0.006193 -0.244736 
-0.005652 -0.253178 
0.002163 -0.258446 
-0.001720 -0.268225 
0.000282 -0.263704 
0.001492 -0.254938 
0.000110 -0.251011 
-0.003596 -0.258633 
-0.001642 -0.255140 
-0.002247 -0.263641 
-0.039542 -0.209993 
-0.035801 -0.214000 
-0.045141 -0.194784 
-0.040494 -0.204586 
-0.049097 -0.190841 
-0.032229 -0.216588 
-0.028826 -0.217968 
-0.060920 -0.150889 
-0.057652 -0.162654 
-0.065280 -0.148474 
-0.041658 -0.188401 
-0.049679 -0.176063 
-0.045527 -0.177258 
-0.057996 -0.170427 
-0.053842 -0.173860 
-0.049630 -0.184555 
-0.019623 -0.216810 
-0.016902 -0.215242 
-0.025590 -0.218342 
-0.022521 -0.217897 
-0.030288 -0.199235 
-0.026438 -0.208937 
-0.033840 -0.199422 
-0.041276 -0.197389 
-0.037506 -0.198869 
-0.033191 -0.208710 
-0.028406 -0.022538 
-0.045615 -0.044559 
-0.039662 -0.034609 
-0.049507 -0.075184 
-0.048980 -0.059313 
-0.042816 -0.056440 
-0.062233 -0.069834 
-0.055671 -0.063787 
-0.061523 -0.081038 
-0.034977 -0.136043 
-0.040098 -0.121897 
-0.035330 -0.120860 
-0.050081 -0.123927 
-0.045031 -0.122936 
-0.044337 -0.138007 
-0.042497 -0.089868 
-0.044518 -0.106877 
-0.047821 -0.091201 
-0.069768 -0.124703 
-0.065129 -0.125445 
-0.063479 -0.138509 
-0.064575 -0.096871 
-0.065610 -0.111609 
-0.069747 -0.098749 
-0.054008 -0.139218 
-0.060231 -0.125366 
-0.055179 -0.124785 
-0.053373 -0.092835 
-0.055094 -0.109350 
-0.059028 -0.094771 
-0.002867 -0.202581 
-0.001414 -0.201864 
-0.006065 -0.205283 
-0.004406 -0.203742 
-0.006882 -0.188449 
-0.005681 -0.196669 
-0.009325 -0.189628 
-0.014365 -0.213349 
-0.012015 -0.211275 
-0.017428 -0.194246 
-0.014774 -0.203250 
-0.020424 -0.195847 
-0.009853 -0.209158 
-0.007874 -0.207122 
-0.025375 -0.148028 
-0.023970 -0.161123 
-0.029503 -0.149155 
-0.013688 -0.181377 
-0.018628 -0.171875 
-0.015279 -0.170626 
-0.025733 -0.174506 
-0.022112 -0.173195 
-0.019901 -0.184233 
-0.009931 -0.199618 
-0.014584 -0.192609 
-0.011887 -0.191040 
-0.056435 -0.152221 
-0.047269 -0.152625 
-0.051867 -0.152727 
-0.048980 -0.165386 
-0.041406 -0.177649 
-0.033777 -0.150258 
-0.029487 -0.175719 
-0.031898 -0.163483 
-0.038182 -0.151266 
-0.042692 -0.152092 
-0.020281 -0.206706 
-0.033962 -0.188745 
-0.026861 -0.198476 
-0.023570 -0.197300 
-0.026673 -0.186982 
-0.040302 -0.165217 
-0.033363 -0.176731 
-0.037343 -0.177420 
0.000000 0.000000 
-0.021898 -0.018816 
-0.015198 -0.017153 
-0.017979 -0.017602 
0.000000 0.000000 
-0.032491 -0.036930 
-0.037355 -0.054689 
-0.008156 -0.016926 
-0.009574 -0.016919 
0.000000 0.000000 
-0.024415 -0.052453 
-0.017792 -0.034518 
-0.020925 -0.052107 
0.000000 0.000000 
-0.011169 -0.016929 
-0.013006 -0.016985 
-0.034648 -0.104767 
-0.030752 -0.119857 
-0.038621 -0.072029 
-0.037460 -0.088778 
-0.028290 -0.087104 
-0.032728 -0.087872 
-0.029370 -0.070349 
-0.023998 -0.035061 
-0.028260 -0.052924 
-0.032540 -0.053614 
0.000000 -0.016960 
-0.000869 -0.016964 
0.000000 0.000000 
-0.002276 -0.051023 
-0.001634 -0.034017 
0.000000 -0.050999 
0.000000 0.000000 
-0.001752 -0.016966 
-0.002663 -0.016965 
-0.003497 -0.115454 
-0.003387 -0.100199 
-0.000000 -0.115369 
-0.008491 -0.068087 
-0.006341 -0.084420 
-0.009605 -0.084656 
-0.000000 -0.084221 
-0.003152 -0.084275 
-0.002783 -0.067830 
0.000000 0.000000 
-0.005706 -0.016949 
-0.006876 -0.016938 
-0.003616 -0.016963 
-0.004625 -0.016958 
0.000000 0.000000 
-0.012014 -0.051436 
-0.008663 -0.034163 
-0.009420 -0.051286 
-0.004584 -0.051079 
-0.006954 -0.051167 
-0.005001 -0.034070 
-0.001846 -0.195032 
-0.000000 -0.201625 
-0.007979 -0.179084 
-0.004533 -0.187562 
-0.000000 -0.186825 
-0.002250 -0.187012 
-0.002618 -0.177816 
-0.026216 -0.133939 
-0.021399 -0.146936 
-0.013876 -0.145044 
-0.017570 -0.145927 
-0.018126 -0.132061 
-0.016596 -0.158799 
-0.012055 -0.169511 
-0.000000 -0.143337 
-0.003390 -0.143452 
-0.003494 -0.129908 
-0.002939 -0.167465 
-0.003201 -0.155994 
-0.000000 -0.167319 
-0.010616 -0.130659 
-0.006813 -0.143783 
-0.010299 -0.144321 
-0.008939 -0.168587 
-0.009726 -0.156984 
-0.005909 -0.167894 
-0.012835 -0.034296 
-0.014629 -0.068576 
-0.014771 -0.051618 
-0.017727 -0.051838 
-0.021486 -0.069303 
-0.007030 -0.115694 
-0.014343 -0.116615 
-0.010634 -0.116085 
-0.010310 -0.100706 
-0.012980 -0.084978 
-0.026373 -0.118912 
-0.024125 -0.086442 
-0.025718 -0.103037 
-0.022189 -0.118045 
-0.018185 -0.117274 
-0.016503 -0.085384 
-0.017669 -0.101670 
-0.020207 -0.085871 
0.000000 0.000000 
0.000869 -0.016964 
0.002663 -0.016965 
0.001752 -0.016966 
0.000000 0.000000 
0.001634 -0.034017 
0.002276 -0.051023 
0.006876 -0.016938 
0.005706 -0.016949 
0.000000 0.000000 
0.009420 -0.051286 
0.008663 -0.034163 
0.012014 -0.051436 
0.000000 0.000000 
0.004625 -0.016958 
0.003616 -0.016963 
0.003387 -0.100199 
0.003497 -0.115454 
0.002783 -0.067830 
0.003152 -0.084275 
0.009605 -0.084656 
0.006341 -0.084420 
0.008491 -0.068087 
0.005001 -0.034070 
0.006954 -0.051167 
0.004584 -0.051079 
0.028406 -0.022538 
0.021898 -0.018816 
0.000000 0.000000 
0.037355 -0.054689 
0.032491 -0.036930 
0.042816 -0.056440 
0.000000 0.000000 
0.017979 -0.017602 
0.015198 -0.017153 
0.030752 -0.119857 
0.034648 -0.104767 
0.035330 -0.120860 
0.029370 -0.070349 
0.032728 -0.087872 
0.028290 -0.087104 
0.042497 -0.089868 
0.037460 -0.088778 
0.038621 -0.072029 
0.000000 0.000000 
0.009574 -0.016919 
0.008156 -0.016926 
0.013006 -0.016985 
0.011169 -0.016929 
0.000000 0.000000 
0.020925 -0.052107 
0.017792 -0.034518 
0.024415 -0.052453 
0.032540 -0.053614 
0.028260 -0.052924 
0.023998 -0.035061 
0.001846 -0.195032 
0.001414 -0.201864 
0.002618 -0.177816 
0.002250 -0.187012 
0.006882 -0.188449 
0.004533 -0.187562 
0.007979 -0.179084 
0.003494 -0.129908 
0.003390 -0.143452 
0.010299 -0.144321 
0.006813 -0.143783 
0.010616 -0.130659 
0.003201 -0.155994 
0.002939 -0.167465 
0.025375 -0.148028 
0.021399 -0.146936 
0.026216 -0.133939 
0.012055 -0.169511 
0.016596 -0.158799 
0.015279 -0.170626 
0.018126 -0.132061 
0.017570 -0.145927 
0.013876 -0.145044 
0.005909 -0.167894 
0.009726 -0.156984 
0.008939 -0.168587 
0.012835 -0.034296 
0.021486 -0.069303 
0.017727 -0.051838 
0.014771 -0.051618 
0.014629 -0.068576 
0.026373 -0.118912 
0.018185 -0.117274 
0.022189 -0.118045 
0.025718 -0.103037 
0.024125 -0.086442 
0.007030 -0.115694 
0.012980 -0.084978 
0.010310 -0.100706 
0.010634 -0.116085 
0.014343 -0.116615 
0.020207 -0.085871 
0.017669 -0.101670 
0.016503 -0.085384 
0.039662 -0.034609 
0.045615 -0.044559 
0.061523 -0.081038 
0.055671 -0.063787 
0.062233 -0.069834 
0.048980 -0.059313 
0.049507 -0.075184 
0.063479 -0.138509 
0.065129 -0.125445 
0.069768 -0.124703 
0.055179 -0.124785 
0.060231 -0.125366 
0.054008 -0.139218 
0.069747 -0.098749 
0.065610 -0.111609 
0.064575 -0.096871 
0.040098 -0.121897 
0.034977 -0.136043 
0.047821 -0.091201 
0.044518 -0.106877 
0.044337 -0.138007 
0.045031 -0.122936 
0.050081 -0.123927 
0.059028 -0.094771 
0.055094 -0.109350 
0.053373 -0.092835 
0.031171 -0.223064 
0.035801 -0.214000 
0.039542 -0.209993 
0.028826 -0.217968 
0.032229 -0.216588 
0.024523 -0.226685 
0.049097 -0.190841 
0.040494 -0.204586 
0.045141 -0.194784 
0.016902 -0.215242 
0.019623 -0.216810 
0.013526 -0.222954 
0.033840 -0.199422 
0.026438 -0.208937 
0.030288 -0.199235 
0.018642 -0.226163 
0.022521 -0.217897 
0.025590 -0.218342 
0.065280 -0.148474 
0.057652 -0.162654 
0.060920 -0.150889 
0.049630 -0.184555 
0.053842 -0.173860 
0.057996 -0.170427 
0.045527 -0.177258 
0.049679 -0.176063 
0.041658 -0.188401 
0.033191 -0.208710 
0.037506 -0.198869 
0.041276 -0.197389 
0.002867 -0.202581 
0.000958 -0.207501 
0.009325 -0.189628 
0.005681 -0.196669 
0.003081 -0.209675 
0.004406 -0.203742 
0.006065 -0.205283 
0.029503 -0.149155 
0.023970 -0.161123 
0.019901 -0.184233 
0.022112 -0.173195 
0.025733 -0.174506 
0.018628 -0.171875 
0.013688 -0.181377 
0.009223 -0.218359 
0.012015 -0.211275 
0.014365 -0.213349 
0.007874 -0.207122 
0.009853 -0.209158 
0.005764 -0.213576 