# vtk DataFile Version 2.0
Unstructured Grid Example
ASCII
DATASET UNSTRUCTURED_GRID

POINTS 9 float
-0.005458 -0.236243 0.000000 
1.005458 -0.236243 0.000000 
1.000000 1.000000 0.000000 
0.000000 1.000000 0.000000 
0.500000 -0.100000 0.000000 
0.964548 0.329789 0.000000 
0.500000 1.000000 0.000000 
0.035452 0.329789 0.000000 
0.500000 0.341801 0.000000 

CELLS 8 32
3  0 4 8 
3  4 1 8 
3  1 5 8 
3  5 2 8 
3  2 6 8 
3  6 3 8 
3  3 7 8 
3  7 0 8 

CELL_TYPES 8
5
5
5
5
5
5
5
5

POINT_DATA 9

SCALARS u_h float 2
LOOKUP_TABLE default
-0.005458 -0.236243 
0.005458 -0.236243 
0.000000 0.000000 
0.000000 0.000000 
-0.000000 -0.100000 
-0.035452 -0.170211 
0.000000 0.000000 
0.035452 -0.170211 
0.000000 -0.158199 

CELL_DATA 8

SCALARS epsilon float 4
LOOKUP_TABLE default
0.010857 -0.076527 0.000000 0.154173
0.010857 -0.076527 0.000000 -0.154173
-0.072225 0.121879 0.000000 -0.053995
-0.070428 0.287679 0.000000 0.026766
0.000000 0.269236 0.000000 -0.000000
0.000000 0.269236 0.000000 -0.000000
-0.070428 0.287679 0.000000 -0.026766
-0.072225 0.121879 0.000000 0.053995

SCALARS sigma float 4
LOOKUP_TABLE default
-0.960281 -3.647252 -1.148699 2.501418
-0.960281 -3.647252 -1.148699 -2.501418
-1.069718 2.011566 0.262176 -0.790678
0.624246 5.158580 1.752972 0.157447
2.692357 5.730491 2.692357 -0.000000
2.692357 5.730491 2.692357 -0.000000
0.624246 5.158580 1.752972 -0.157447
-1.069718 2.011566 0.262176 0.790678

