# vtk DataFile Version 2.0
Unstructured Grid Example
ASCII
DATASET UNSTRUCTURED_GRID

POINTS 8 float
0.000000 15.300645 0.000000 
0.250000 -30.601291 0.000000 
0.250000 -8.853530 0.000000 
0.500000 -28.194876 0.000000 
0.500000 -42.558338 0.000000 
0.750000 19.873393 0.000000 
0.750000 -1.874367 0.000000 
1.000000 0.937184 0.000000 

CELLS 4 12
2  0 1 
2  2 3 
2  4 5 
2  6 7 

CELL_TYPES 4
3
3
3
3

POINT_DATA 8

SCALARS lambda_h float 1
LOOKUP_TABLE default
15.300645 
-30.601291 
-8.853530 
-28.194876 
-42.558338 
19.873393 
-1.874367 
0.937184 

