# vtk DataFile Version 2.0
Unstructured Grid Example
ASCII
DATASET UNSTRUCTURED_GRID

POINTS 16 float
0.000000 3.419149 0.000000 
0.125000 -6.838299 0.000000 
0.125000 10.440747 0.000000 
0.250000 -31.138941 0.000000 
0.250000 -9.060988 0.000000 
0.375000 -33.715160 0.000000 
0.375000 -30.491642 0.000000 
0.500000 -15.508023 0.000000 
0.500000 -36.750211 0.000000 
0.625000 11.992734 0.000000 
0.625000 -8.509829 0.000000 
0.750000 4.254914 0.000000 
0.750000 0.000000 0.000000 
0.875000 0.000000 0.000000 
0.875000 0.000000 0.000000 
1.000000 0.000000 0.000000 

CELLS 8 24
2  0 1 
2  2 3 
2  4 5 
2  6 7 
2  8 9 
2  10 11 
2  12 13 
2  14 15 

CELL_TYPES 8
3
3
3
3
3
3
3
3

POINT_DATA 16

SCALARS lambda_h float 1
LOOKUP_TABLE default
3.419149 
-6.838299 
10.440747 
-31.138941 
-9.060988 
-33.715160 
-30.491642 
-15.508023 
-36.750211 
11.992734 
-8.509829 
4.254914 
0.000000 
0.000000 
0.000000 
0.000000 

