# vtk DataFile Version 2.0
Unstructured Grid Example
ASCII
DATASET UNSTRUCTURED_GRID

POINTS 25 float
-0.312602 -0.402683 0.000000 
1.079422 -0.115663 0.000000 
1.000000 1.000000 0.000000 
0.000000 1.000000 0.000000 
0.405157 -0.074853 0.000000 
0.925810 0.391874 0.000000 
0.500000 1.000000 0.000000 
0.005697 0.156177 0.000000 
0.446791 0.035994 0.000000 
-0.039551 -0.287785 0.000000 
0.451669 -0.157994 0.000000 
0.112530 -0.221911 0.000000 
0.813985 -0.176815 0.000000 
0.742003 0.037455 0.000000 
0.990502 0.131885 0.000000 
0.680628 0.306815 0.000000 
0.885096 0.670353 0.000000 
0.653946 0.635444 0.000000 
0.750000 1.000000 0.000000 
0.440014 0.476114 0.000000 
0.250000 1.000000 0.000000 
0.271748 0.462710 0.000000 
0.092056 0.512193 0.000000 
0.225658 0.049143 0.000000 
-0.138351 -0.154813 0.000000 

CELLS 32 128
3  0 9 11 
3  4 10 9 
3  8 11 10 
3  9 10 11 
3  4 12 10 
3  1 13 12 
3  8 10 13 
3  12 13 10 
3  1 14 13 
3  5 15 14 
3  8 13 15 
3  14 15 13 
3  5 16 15 
3  2 17 16 
3  8 15 17 
3  16 17 15 
3  2 18 17 
3  6 19 18 
3  8 17 19 
3  18 19 17 
3  6 20 19 
3  3 21 20 
3  8 19 21 
3  20 21 19 
3  3 22 21 
3  7 23 22 
3  8 21 23 
3  22 23 21 
3  7 24 23 
3  0 11 24 
3  8 23 11 
3  24 11 23 

CELL_TYPES 32
5
5
5
5
5
5
5
5
5
5
5
5
5
5
5
5
5
5
5
5
5
5
5
5
5
5
5
5
5
5
5
5

POINT_DATA 25

SCALARS u_h float 2
LOOKUP_TABLE default
-0.312602 -0.402683 
0.079422 -0.115663 
0.000000 0.000000 
0.000000 0.000000 
-0.094843 -0.074853 
-0.074190 -0.108126 
0.000000 0.000000 
0.005697 -0.343823 
-0.053209 -0.464006 
-0.289551 -0.287785 
-0.048331 -0.407994 
-0.137470 -0.471911 
0.063985 -0.176815 
-0.007997 -0.212545 
-0.009498 -0.118115 
-0.069372 -0.193185 
-0.114904 -0.079647 
-0.096054 -0.114556 
0.000000 0.000000 
-0.059986 -0.273886 
0.000000 0.000000 
0.021748 -0.287290 
0.092056 -0.237807 
-0.024342 -0.450857 
-0.138351 -0.404813 

CELL_DATA 32

SCALARS epsilon float 4
LOOKUP_TABLE default
3193.290552 10138.134078 0.000000 -5689.484770
0.742272 9.700474 0.000000 -1.426026
0.301948 -0.213496 0.000000 0.146445
4.279630 11.432505 0.000000 -6.667223
0.410232 14.974602 0.000000 -0.530363
0.176851 -0.048377 0.000000 0.005779
0.165225 0.132341 0.000000 0.484135
0.369893 0.254785 0.000000 0.291976
0.171930 0.174605 0.000000 0.011524
0.090533 0.168577 0.000000 0.032781
0.184553 0.662608 0.000000 0.368803
0.099128 0.209141 0.000000 0.053459
0.040073 0.200132 0.000000 0.071321
-0.052436 0.226674 0.000000 0.290545
0.026177 0.675332 0.000000 0.360075
-0.062341 0.285793 0.000000 -0.001288
0.034711 0.363605 0.000000 0.173139
0.006555 0.659456 0.000000 0.087182
-0.143120 0.621985 0.000000 0.163845
-0.277513 0.359472 0.000000 0.393163
0.006555 0.659456 0.000000 0.087182
0.000819 0.677655 0.000000 -0.031061
-0.366574 0.527291 0.000000 -0.004707
-0.363509 0.680634 0.000000 -0.036457
-0.319888 0.576018 0.000000 -0.241720
0.013969 0.487786 0.000000 0.018872
-0.107689 0.479913 0.000000 0.071926
-0.277330 0.512036 0.000000 0.053816
0.167400 0.454086 0.000000 0.117515
0.348060 0.188211 0.000000 0.207527
0.008152 0.106445 0.000000 0.229236
0.178926 0.209412 0.000000 0.096480

SCALARS sigma float 4
LOOKUP_TABLE default
-1179.551486 -1955.508164 -940.517895 499.968245
26.944614 48.598878 22.663048 -5.321680
1.954261 -2.268677 -0.094325 0.858827
-37.095027 -78.735678 -34.749212 16.457117
29.824858 62.172295 27.599146 1.822952
1.215153 -0.390631 0.247356 -0.169952
0.520977 -2.714009 -0.657910 3.199361
4.287517 2.369858 1.997213 1.556371
2.187879 2.161725 1.304881 0.075788
1.488708 1.899909 1.016585 0.282823
3.607121 4.465229 2.421705 2.529789
1.839201 2.390750 1.268985 0.437007
1.238087 2.130626 1.010614 0.594364
-0.755968 1.868007 0.333612 1.995526
2.064130 4.232442 1.888972 2.792243
0.512146 2.950047 1.038658 0.102876
1.812886 4.230068 1.812886 1.013393
3.016138 7.037654 3.016138 0.440393
0.438135 5.005504 1.633092 1.540242
-5.263203 -0.642379 -1.771675 3.917343
3.016138 7.037654 3.016138 0.440393
3.084819 7.197910 3.084819 -0.155685
-4.018248 3.032499 -0.295725 0.085932
-3.381189 4.443198 0.318603 -0.088466
-3.643205 3.487080 -0.046838 -1.637723
1.922620 4.911018 2.050091 -0.227051
0.647604 4.667460 1.594519 0.344058
-2.323777 3.548073 0.367289 -0.042590
2.960277 5.048634 2.402673 0.424588
3.041521 2.963167 1.801406 1.394625
-0.811743 0.751138 -0.018182 1.565014
2.376700 2.889915 1.579985 0.585503

