# vtk DataFile Version 2.0
Unstructured Grid Example
ASCII
DATASET UNSTRUCTURED_GRID

POINTS 81 float
-0.169651 -0.347059 0.000000 
1.297721 -0.058336 0.000000 
1.000000 1.000000 0.000000 
0.000000 1.000000 0.000000 
0.618054 -0.092078 0.000000 
1.067076 0.473259 0.000000 
0.500000 1.000000 0.000000 
0.157293 0.130152 0.000000 
0.620287 0.058191 0.000000 
0.121965 -0.220774 0.000000 
0.678386 -0.158084 0.000000 
0.304018 -0.215079 0.000000 
1.034046 -0.168453 0.000000 
0.950154 0.068498 0.000000 
1.189952 0.202430 0.000000 
0.830298 0.346967 0.000000 
0.960022 0.730919 0.000000 
0.717039 0.665274 0.000000 
0.750000 1.000000 0.000000 
0.503806 0.484623 0.000000 
0.250000 1.000000 0.000000 
0.351377 0.443966 0.000000 
0.187640 0.476722 0.000000 
0.387184 0.021087 0.000000 
0.020855 -0.124633 0.000000 
-0.038143 -0.359511 0.000000 
0.218136 -0.248060 0.000000 
0.053501 -0.280531 0.000000 
0.672236 -0.171194 0.000000 
0.438194 -0.213143 0.000000 
0.362525 -0.111013 0.000000 
0.513477 -0.144142 0.000000 
0.491465 -0.217811 0.000000 
0.660650 -0.075917 0.000000 
0.867776 -0.170257 0.000000 
0.853938 -0.107469 0.000000 
1.121561 0.010350 0.000000 
0.994902 -0.053219 0.000000 
1.171071 -0.114971 0.000000 
0.824427 -0.020202 0.000000 
0.780538 0.095900 0.000000 
1.244929 0.069399 0.000000 
1.069866 0.140616 0.000000 
0.945760 0.416547 0.000000 
1.010016 0.276482 0.000000 
1.128591 0.338622 0.000000 
0.894458 0.201650 0.000000 
0.721553 0.241746 0.000000 
1.003814 0.604651 0.000000 
0.881624 0.558998 0.000000 
0.831722 0.851788 0.000000 
0.837090 0.704000 0.000000 
0.952818 0.857469 0.000000 
0.765055 0.502107 0.000000 
0.655251 0.411444 0.000000 
0.875000 1.000000 0.000000 
0.705552 0.832092 0.000000 
0.469967 0.734731 0.000000 
0.581630 0.798336 0.000000 
0.625000 1.000000 0.000000 
0.602479 0.600176 0.000000 
0.561185 0.257212 0.000000 
0.375000 1.000000 0.000000 
0.385124 0.703550 0.000000 
0.216503 0.731855 0.000000 
0.304526 0.713678 0.000000 
0.125000 1.000000 0.000000 
0.428695 0.427068 0.000000 
0.478014 0.186137 0.000000 
0.144731 0.707570 0.000000 
0.271656 0.474075 0.000000 
0.275490 0.075565 0.000000 
0.288909 0.255106 0.000000 
0.189256 0.285119 0.000000 
0.382695 0.209773 0.000000 
0.505577 -0.005372 0.000000 
0.106102 -0.007221 0.000000 
0.229830 -0.073130 0.000000 
0.152702 -0.189629 0.000000 
-0.081303 -0.233570 0.000000 
0.361084 -0.124150 0.000000 

CELLS 128 512
3  0 25 27 
3  9 26 25 
3  11 27 26 
3  25 26 27 
3  4 28 30 
3  10 29 28 
3  9 30 29 
3  28 29 30 
3  8 31 33 
3  11 32 31 
3  10 33 32 
3  31 32 33 
3  9 29 26 
3  10 32 29 
3  11 26 32 
3  29 32 26 
3  4 34 28 
3  12 35 34 
3  10 28 35 
3  34 35 28 
3  1 36 38 
3  13 37 36 
3  12 38 37 
3  36 37 38 
3  8 33 40 
3  10 39 33 
3  13 40 39 
3  33 39 40 
3  12 37 35 
3  13 39 37 
3  10 35 39 
3  37 39 35 
3  1 41 36 
3  14 42 41 
3  13 36 42 
3  41 42 36 
3  5 43 45 
3  15 44 43 
3  14 45 44 
3  43 44 45 
3  8 40 47 
3  13 46 40 
3  15 47 46 
3  40 46 47 
3  14 44 42 
3  15 46 44 
3  13 42 46 
3  44 46 42 
3  5 48 43 
3  16 49 48 
3  15 43 49 
3  48 49 43 
3  2 50 52 
3  17 51 50 
3  16 52 51 
3  50 51 52 
3  8 47 54 
3  15 53 47 
3  17 54 53 
3  47 53 54 
3  16 51 49 
3  17 53 51 
3  15 49 53 
3  51 53 49 
3  2 55 50 
3  18 56 55 
3  17 50 56 
3  55 56 50 
3  6 57 59 
3  19 58 57 
3  18 59 58 
3  57 58 59 
3  8 54 61 
3  17 60 54 
3  19 61 60 
3  54 60 61 
3  18 58 56 
3  19 60 58 
3  17 56 60 
3  58 60 56 
3  6 62 57 
3  20 63 62 
3  19 57 63 
3  62 63 57 
3  3 64 66 
3  21 65 64 
3  20 66 65 
3  64 65 66 
3  8 61 68 
3  19 67 61 
3  21 68 67 
3  61 67 68 
3  20 65 63 
3  21 67 65 
3  19 63 67 
3  65 67 63 
3  3 69 64 
3  22 70 69 
3  21 64 70 
3  69 70 64 
3  7 71 73 
3  23 72 71 
3  22 73 72 
3  71 72 73 
3  8 68 75 
3  21 74 68 
3  23 75 74 
3  68 74 75 
3  22 72 70 
3  23 74 72 
3  21 70 74 
3  72 74 70 
3  7 76 71 
3  24 77 76 
3  23 71 77 
3  76 77 71 
3  0 27 79 
3  11 78 27 
3  24 79 78 
3  27 78 79 
3  8 75 31 
3  23 80 75 
3  11 31 80 
3  75 80 31 
3  24 78 77 
3  11 80 78 
3  23 77 80 
3  78 80 77 

CELL_TYPES 128
5
5
5
5
5
5
5
5
5
5
5
5
5
5
5
5
5
5
5
5
5
5
5
5
5
5
5
5
5
5
5
5
5
5
5
5
5
5
5
5
5
5
5
5
5
5
5
5
5
5
5
5
5
5
5
5
5
5
5
5
5
5
5
5
5
5
5
5
5
5
5
5
5
5
5
5
5
5
5
5
5
5
5
5
5
5
5
5
5
5
5
5
5
5
5
5
5
5
5
5
5
5
5
5
5
5
5
5
5
5
5
5
5
5
5
5
5
5
5
5
5
5
5
5
5
5
5
5

POINT_DATA 81

SCALARS u_h float 2
LOOKUP_TABLE default
-0.169651 -0.347059 
0.297721 -0.058336 
0.000000 0.000000 
0.000000 0.000000 
0.118054 -0.092078 
0.067076 -0.026741 
0.000000 0.000000 
0.157293 -0.369848 
0.120287 -0.441809 
-0.128035 -0.220774 
0.178386 -0.408084 
0.054018 -0.465079 
0.284046 -0.168453 
0.200154 -0.181502 
0.189952 -0.047570 
0.080298 -0.153033 
-0.039978 -0.019081 
-0.032961 -0.084726 
0.000000 0.000000 
0.003806 -0.265377 
0.000000 0.000000 
0.101377 -0.306034 
0.187640 -0.273278 
0.137184 -0.478913 
0.020855 -0.374633 
-0.163143 -0.359511 
-0.031864 -0.373060 
-0.071499 -0.405531 
0.172236 -0.296194 
0.063194 -0.338143 
-0.012475 -0.111013 
0.138477 -0.519142 
0.116465 -0.467811 
0.160650 -0.450917 
0.242776 -0.170257 
0.228938 -0.232469 
0.246561 -0.114650 
0.244902 -0.178219 
0.296071 -0.114971 
0.199427 -0.270202 
0.155538 -0.279100 
0.244929 -0.055601 
0.194866 -0.109384 
0.070760 -0.083453 
0.135016 -0.098518 
0.128591 -0.036378 
0.144458 -0.173350 
0.096553 -0.258254 
0.003814 -0.020349 
0.006624 -0.066002 
-0.043278 -0.023212 
-0.037910 -0.046000 
-0.047182 -0.017531 
0.015055 -0.122893 
0.030251 -0.213556 
0.000000 0.000000 
-0.044448 -0.042908 
-0.030033 -0.140269 
-0.043370 -0.076664 
0.000000 0.000000 
-0.022521 -0.149824 
0.061185 -0.367788 
0.000000 0.000000 
0.010124 -0.171450 
0.091503 -0.143145 
0.054526 -0.161322 
0.000000 0.000000 
0.053695 -0.322932 
0.103014 -0.438863 
0.144731 -0.167430 
0.146656 -0.275925 
0.150490 -0.424435 
0.163909 -0.369894 
0.189256 -0.339881 
0.132695 -0.415227 
0.130577 -0.505372 
0.106102 -0.382221 
0.104830 -0.448130 
0.027702 -0.439629 
-0.081303 -0.358570 
0.111084 -0.499150 

CELL_DATA 128

SCALARS epsilon float 4
LOOKUP_TABLE default
0.647645 -0.326144 0.000000 0.207998
1.363750 4.877846 0.000000 -1.947135
7.857502 17.455333 0.000000 -11.434417
0.668131 -0.416700 0.000000 0.175602
0.728087 5.644039 0.000000 -0.644024
0.541185 36.608513 0.000000 0.171455
0.840116 3.834840 0.000000 -0.755632
0.729200 4.263313 0.000000 -0.686037
0.312244 0.270501 0.000000 0.105285
0.412178 -0.451465 0.000000 0.014357
0.453626 -0.230220 0.000000 0.273553
0.057595 -0.082721 0.000000 0.467439
1.662122 11.801080 0.000000 -3.551593
2.571280 31.327331 0.000000 -8.083973
1.820905 0.865174 0.000000 -1.417620
3.775688 67.077591 0.000000 -14.651041
0.523865 7.742908 0.000000 -0.446112
0.294913 -0.499671 0.000000 0.012314
0.266788 51.810709 0.000000 0.536492
0.436637 -0.278428 0.000000 0.430478
0.229112 0.235764 0.000000 0.029163
0.227659 0.236513 0.000000 0.080344
0.250903 0.113003 0.000000 0.080694
0.244895 0.268918 0.000000 0.055776
0.332475 0.845125 0.000000 0.445491
0.342510 0.482831 0.000000 0.712472
0.282258 0.341082 0.000000 0.193701
0.408814 0.847982 0.000000 0.496008
0.274532 0.109654 0.000000 0.085819
0.274821 0.367046 0.000000 0.176321
0.436957 0.443331 0.000000 0.592256
0.273754 -0.112705 0.000000 0.199225
0.227091 0.276228 0.000000 0.018856
0.214618 0.330084 0.000000 0.010365
0.225583 0.359836 0.000000 0.065034
0.216627 0.286824 0.000000 0.019987
0.237612 0.326529 0.000000 -0.033728
0.239089 0.434858 0.000000 -0.010418
0.231828 0.366352 0.000000 -0.018391
0.237414 0.390962 0.000000 -0.032800
0.370650 1.034971 0.000000 0.360342
0.286250 0.573219 0.000000 0.160825
0.276755 0.646262 0.000000 0.099890
0.274738 0.615182 0.000000 0.125591
0.232810 0.355807 0.000000 -0.011358
0.240378 0.479696 0.000000 0.003802
0.240616 0.383488 0.000000 0.045283
0.239641 0.431989 0.000000 0.030430
0.253555 0.314288 0.000000 -0.037356
0.148135 0.184853 0.000000 0.002708
0.232950 0.444263 0.000000 -0.012243
0.209757 0.319205 0.000000 -0.088426
0.012891 0.115992 0.000000 0.212377
-0.028048 0.213798 0.000000 0.109152
-0.002657 0.047527 0.000000 0.077071
-0.029318 0.168526 0.000000 -0.002423
0.355711 1.036006 0.000000 0.277761
0.258747 0.672137 0.000000 0.082556
0.123998 0.586756 0.000000 0.089397
0.205520 0.646947 0.000000 0.019306
0.091184 0.226390 0.000000 -0.081821
0.089400 0.370902 0.000000 -0.063559
0.186362 0.439651 0.000000 -0.067972
0.110744 0.348580 0.000000 0.016229
0.042633 0.168879 0.000000 0.168867
0.035037 0.288199 0.000000 0.166180
0.022278 0.298794 0.000000 0.016535
0.008612 0.132615 0.000000 0.235537
0.006409 0.668584 0.000000 0.086542
-0.028683 0.714544 0.000000 0.018964
0.023126 0.452417 0.000000 0.148410
-0.200075 0.417680 0.000000 0.323170
0.147164 0.984236 0.000000 0.173756
0.094831 0.573028 0.000000 -0.016166
0.052817 0.864867 0.000000 0.059551
0.125267 0.972073 0.000000 0.208454
-0.041882 0.241118 0.000000 0.272083
-0.112625 0.750759 0.000000 0.201457
-0.046177 0.401737 0.000000 0.148392
0.024922 0.475517 0.000000 0.013602
0.006409 0.668584 0.000000 0.086542
0.000583 0.745585 0.000000 -0.026951
-0.304079 0.676430 0.000000 -0.092501
-0.350280 0.765560 0.000000 0.002356
0.058224 0.676324 0.000000 -0.261706
-0.328361 0.659063 0.000000 -0.220524
0.018133 0.722154 0.000000 -0.148867
-0.252591 0.628107 0.000000 -0.415061
-0.115621 0.715209 0.000000 -0.095304
-0.254823 0.747149 0.000000 -0.163991
-0.392689 0.568294 0.000000 -0.270622
-0.205915 0.785543 0.000000 -0.068032
-0.369730 0.707056 0.000000 -0.246472
-0.406357 0.658089 0.000000 -0.238425
-0.339954 0.822347 0.000000 -0.107192
-0.381651 0.685566 0.000000 -0.203947
-0.098302 0.842427 0.000000 -0.571681
-0.334589 0.559137 0.000000 -0.206739
-0.390124 0.603920 0.000000 -0.298004
-0.368961 0.709585 0.000000 -0.240152
0.054841 0.356094 0.000000 -0.050096
-0.073327 0.435818 0.000000 -0.097151
-0.224321 0.425189 0.000000 -0.080263
-0.196825 0.391046 0.000000 -0.018812
0.001369 0.529809 0.000000 0.064589
-0.276412 0.557647 0.000000 -0.175367
-0.059238 0.400828 0.000000 -0.086693
-0.275991 0.389423 0.000000 -0.183201
-0.363814 0.519359 0.000000 -0.088476
-0.287148 0.436674 0.000000 -0.126882
-0.414843 0.556262 0.000000 -0.195769
-0.305294 0.530324 0.000000 -0.164903
0.159017 0.312964 0.000000 0.008932
0.448229 0.342891 0.000000 0.065919
0.071670 0.368587 0.000000 0.006564
0.175961 0.390099 0.000000 -0.047474
0.468375 0.188021 0.000000 0.130092
0.637726 -0.129658 0.000000 0.191990
0.598315 0.313301 0.000000 0.108022
0.650770 0.063912 0.000000 0.137449
-0.052991 0.251878 0.000000 0.194415
0.001713 0.204560 0.000000 0.015873
0.384573 -0.219762 0.000000 0.070086
0.189751 0.103815 0.000000 -0.095558
0.437864 0.288811 0.000000 0.025554
0.394693 -0.191944 0.000000 0.046388
0.128652 0.263546 0.000000 -0.077901
0.397722 0.212407 0.000000 0.081410

SCALARS sigma float 4
LOOKUP_TABLE default
-0.524884 -4.906233 -1.629335 3.302742
23.157707 33.331358 16.946719 -6.376615
-46.736666 -94.668754 -42.421626 21.544672
-5.863815 -14.077569 -5.982415 5.950931
21.638666 36.786509 17.527552 -1.654817
-48.679167 -124.273729 -51.885869 8.229025
19.280248 29.303655 14.575171 -2.711844
19.117244 31.055103 15.051704 -2.088384
4.478313 3.919743 2.519417 0.595568
0.546205 -7.341903 -2.038709 0.668297
2.599038 -3.535981 -0.281083 1.229640
-5.403771 -12.970572 -5.512303 4.644635
31.277343 56.680398 26.387322 -6.731580
50.541228 95.978861 43.956027 -13.399544
-10.484281 -33.630837 -13.234535 6.229886
71.473297 146.311983 65.335584 -14.684261
22.256409 42.628120 19.465359 0.743320
-2.323654 -11.832149 -4.246741 -0.552915
-57.696918 -139.153789 -59.055212 16.880217
-0.027086 -9.330388 -2.807242 1.951407
3.048925 2.980509 1.808830 0.183422
3.013094 2.752825 1.729776 0.495508
2.862629 1.691020 1.366095 0.385456
3.341608 3.273961 1.984671 0.355353
5.668065 6.262219 3.579085 2.746208
2.368461 -1.883299 0.145549 3.998733
3.761264 3.260767 2.106609 1.165134
6.098454 5.928830 3.608185 2.865956
3.139249 1.792334 1.479475 0.395421
3.898779 3.698704 2.279245 1.096440
4.233264 0.872125 1.531617 3.098776
1.356263 -2.357503 -0.300372 0.855552
3.130415 3.352863 1.944983 0.159373
3.206275 3.848778 2.116516 0.169652
3.418750 3.943926 2.208803 0.508149
3.116060 3.462877 1.973681 0.184886
3.387961 4.034118 2.226624 -0.116522
3.779963 4.925990 2.611786 0.123986
3.466808 4.315381 2.334657 0.018790
3.639564 4.642582 2.484644 -0.049369
6.789825 8.464473 4.576289 2.339765
4.689937 5.568085 3.077407 1.142729
4.911648 6.470869 3.414755 0.875285
4.896703 6.240030 3.341020 0.983826
3.481649 4.239747 2.316419 0.047168
4.047702 5.372863 2.826170 0.237598
3.677771 4.325322 2.400928 0.395616
3.771408 4.739101 2.553153 0.356932
3.428535 3.924700 2.205970 -0.161263
1.983290 2.208285 1.257473 0.051326
3.785343 5.026435 2.643534 0.125164
3.109123 4.067203 2.152898 -0.437009
-0.023442 1.189517 0.349822 1.495739
0.553383 2.039225 0.777782 0.893469
0.082944 0.303797 0.116022 0.601755
0.487517 1.919167 0.722005 0.008410
7.015445 9.256953 4.881720 1.920368
4.928427 6.807896 3.520897 0.809761
3.346119 5.650188 2.698892 0.920692
4.430988 6.767808 3.359639 0.475244
1.745354 2.860811 1.381850 -0.445159
2.392865 4.325864 2.015619 -0.208237
3.396965 5.098528 2.548648 -0.184215
2.352150 3.758783 1.833280 0.305662
0.903547 2.108276 0.903547 1.123085
1.474308 3.440051 1.474308 1.018128
1.758800 3.596058 1.606457 0.185525
0.158930 1.346503 0.451630 1.696392
3.050653 7.118191 3.050653 0.435451
2.562541 6.988088 2.865189 0.475751
2.193215 5.117502 2.193215 0.827163
-2.017669 2.361925 0.103277 2.602779
4.763194 8.388556 3.945525 1.643019
3.259130 6.105481 2.809383 0.236489
3.619331 7.877574 3.449072 0.962106
4.345589 7.861092 3.662004 1.883894
-0.031647 2.158918 0.638181 1.947329
0.808305 5.163927 1.791670 2.073126
0.935343 3.465637 1.320294 1.297902
2.492666 5.318507 2.343352 0.245636
3.050653 7.118191 3.050653 0.435451
3.336602 7.785404 3.336602 -0.131351
-2.409604 4.724349 0.694423 -0.057351
-2.758918 5.230476 0.741467 0.397518
3.079815 7.186235 3.079815 -1.312480
-3.370277 4.262187 0.267573 -1.365861
3.250547 7.584609 3.250547 -0.732446
-4.228258 3.665861 -0.168719 -2.403434
0.203974 5.571497 1.732641 0.277373
-2.199704 4.984640 0.835481 0.004155
-6.685416 2.155474 -1.358982 -1.789056
-0.536294 5.906699 1.611122 0.444248
-4.739093 4.042849 -0.208873 -1.379993
-6.170911 3.050407 -0.936151 -1.527746
-3.085472 5.233738 0.644480 0.288879
-4.729599 3.893430 -0.250851 -1.181952
-2.963424 5.695483 0.819618 -2.363223
-4.057739 3.264576 -0.237949 -1.135910
-6.775373 2.288159 -1.346164 -2.170001
-5.240094 3.774297 -0.439739 -0.747967
1.983652 3.746043 1.718909 -0.542193
0.820088 3.958791 1.433664 -0.949724
-1.471048 3.171176 0.510038 -0.798417
-1.211178 2.987579 0.532920 -0.436071
2.157567 5.270803 2.228511 0.729675
-2.212786 3.974174 0.528417 -1.224104
1.099663 4.141387 1.572315 -0.669606
-2.980779 2.273415 -0.212209 -1.398328
-4.148868 2.922166 -0.368011 -0.521337
-2.786263 2.430213 -0.106815 -1.369330
-6.242188 2.136463 -1.231718 -1.665896
-2.845269 3.248083 0.120844 -1.523211
2.605891 3.574787 1.854203 -0.085792
4.994746 4.693246 2.906398 0.461513
1.909854 3.773004 1.704857 -0.222026
3.374598 4.496056 2.361196 -0.454772
4.412458 3.358620 2.331323 1.023120
3.131990 -0.436283 0.808712 2.177999
5.975950 4.927112 3.270918 0.850649
4.438519 1.942559 1.914323 1.485011
-0.027682 1.381276 0.406078 1.629765
0.793198 2.236342 0.908862 -0.009661
1.701227 -2.239349 -0.161437 1.188460
2.870034 2.245995 1.534809 -0.638852
4.941649 4.217255 2.747671 0.286307
1.998412 -1.818774 0.053892 0.999254
2.606529 3.265835 1.761709 -0.587453
4.111357 3.373423 2.245434 0.652882

