# vtk DataFile Version 2.0
Unstructured Grid Example
ASCII
DATASET UNSTRUCTURED_GRID

POINTS 9 float
-0.268556 -0.551189 0.000000 
0.970284 -0.096135 0.000000 
1.000000 1.000000 0.000000 
0.000000 1.000000 0.000000 
0.385649 -0.038430 0.000000 
0.854509 0.366536 0.000000 
0.500000 1.000000 0.000000 
-0.067618 0.110300 0.000000 
0.337786 0.082505 0.000000 

CELLS 8 32
3  0 4 8 
3  4 1 8 
3  1 5 8 
3  5 2 8 
3  2 6 8 
3  6 3 8 
3  3 7 8 
3  7 0 8 

CELL_TYPES 8
5
5
5
5
5
5
5
5

POINT_DATA 9

SCALARS u_h float 2
LOOKUP_TABLE default
-0.268556 -0.551189 
-0.029716 -0.096135 
0.000000 0.000000 
0.000000 0.000000 
-0.114351 -0.038430 
-0.145491 -0.133464 
0.000000 0.000000 
-0.067618 -0.389700 
-0.162214 -0.417495 

CELL_DATA 8

SCALARS epsilon float 4
LOOKUP_TABLE default
0.530126 3.226301 0.000000 1.885322
0.178086 2.241023 0.000000 0.169839
0.183176 0.187584 0.000000 0.188351
-0.069328 0.224596 0.000000 0.361068
0.015629 0.558568 0.000000 0.128626
0.015629 0.558568 0.000000 0.128626
-0.196845 0.538869 0.000000 0.052367
-0.119161 0.294522 0.000000 0.211030

SCALARS sigma float 4
LOOKUP_TABLE default
-6.827031 -26.613545 -10.032173 8.624747
-17.572386 -43.822697 -18.418525 -2.988138
2.299098 1.534651 1.150125 1.189784
-0.888856 0.681074 -0.062334 2.888108
2.625220 6.125513 2.625220 0.680005
2.625220 6.125513 2.625220 0.680005
-0.511217 4.626249 1.234509 0.211223
-1.304956 2.292932 0.296393 1.216292

