# vtk DataFile Version 2.0
Unstructured Grid Example
ASCII
DATASET UNSTRUCTURED_GRID

POINTS 32 float
0.000000 0.000000 0.000000 
0.062500 0.000000 0.000000 
0.062500 0.000000 0.000000 
0.125000 0.000000 0.000000 
0.125000 0.000000 0.000000 
0.187500 0.000000 0.000000 
0.187500 0.000000 0.000000 
0.250000 0.000000 0.000000 
0.375000 -10.059774 0.000000 
0.437500 -6.350309 0.000000 
0.437500 -7.710597 0.000000 
0.500000 -7.339199 0.000000 
0.250000 15.873552 0.000000 
0.312500 -31.747104 0.000000 
0.312500 -22.923819 0.000000 
0.375000 -1.773019 0.000000 
0.500000 -7.339199 0.000000 
0.562500 -7.710597 0.000000 
0.562500 -6.350309 0.000000 
0.625000 -10.059774 0.000000 
0.625000 -1.773019 0.000000 
0.687500 -22.923819 0.000000 
0.687500 -31.747104 0.000000 
0.750000 15.873552 0.000000 
0.875000 0.000000 0.000000 
0.937500 0.000000 0.000000 
0.937500 0.000000 0.000000 
1.000000 0.000000 0.000000 
0.750000 0.000000 0.000000 
0.812500 0.000000 0.000000 
0.812500 0.000000 0.000000 
0.875000 0.000000 0.000000 

CELLS 16 48
2  0 1 
2  2 3 
2  4 5 
2  6 7 
2  8 9 
2  10 11 
2  12 13 
2  14 15 
2  16 17 
2  18 19 
2  20 21 
2  22 23 
2  24 25 
2  26 27 
2  28 29 
2  30 31 

CELL_TYPES 16
3
3
3
3
3
3
3
3
3
3
3
3
3
3
3
3

POINT_DATA 32

SCALARS lambda_h float 1
LOOKUP_TABLE default
0.000000 
0.000000 
0.000000 
0.000000 
0.000000 
0.000000 
0.000000 
0.000000 
-10.059774 
-6.350309 
-7.710597 
-7.339199 
15.873552 
-31.747104 
-22.923819 
-1.773019 
-7.339199 
-7.710597 
-6.350309 
-10.059774 
-1.773019 
-22.923819 
-31.747104 
15.873552 
0.000000 
0.000000 
0.000000 
0.000000 
0.000000 
0.000000 
0.000000 
0.000000 

