# vtk DataFile Version 2.0
Unstructured Grid Example
ASCII
DATASET UNSTRUCTURED_GRID

POINTS 256 float
0.000000 0.000000 0.000000 
0.007812 0.000000 0.000000 
0.007812 0.000000 0.000000 
0.015625 0.000000 0.000000 
0.015625 0.000000 0.000000 
0.023438 0.000000 0.000000 
0.023438 0.000000 0.000000 
0.031250 0.000000 0.000000 
0.046875 0.000000 0.000000 
0.054688 0.000000 0.000000 
0.054688 0.000000 0.000000 
0.062500 0.000000 0.000000 
0.031250 0.000000 0.000000 
0.039062 0.000000 0.000000 
0.039062 0.000000 0.000000 
0.046875 0.000000 0.000000 
0.109375 0.000000 0.000000 
0.117188 0.000000 0.000000 
0.117188 0.000000 0.000000 
0.125000 0.000000 0.000000 
0.093750 0.000000 0.000000 
0.101562 0.000000 0.000000 
0.101562 0.000000 0.000000 
0.109375 0.000000 0.000000 
0.062500 0.000000 0.000000 
0.070312 0.000000 0.000000 
0.070312 0.000000 0.000000 
0.078125 0.000000 0.000000 
0.078125 0.000000 0.000000 
0.085938 0.000000 0.000000 
0.085938 0.000000 0.000000 
0.093750 0.000000 0.000000 
0.234375 0.000000 0.000000 
0.242188 0.000000 0.000000 
0.242188 0.000000 0.000000 
0.250000 0.000000 0.000000 
0.218750 0.000000 0.000000 
0.226562 0.000000 0.000000 
0.226562 0.000000 0.000000 
0.234375 0.000000 0.000000 
0.187500 0.000000 0.000000 
0.195312 0.000000 0.000000 
0.195312 0.000000 0.000000 
0.203125 0.000000 0.000000 
0.203125 0.000000 0.000000 
0.210938 0.000000 0.000000 
0.210938 0.000000 0.000000 
0.218750 0.000000 0.000000 
0.125000 0.000000 0.000000 
0.132812 0.000000 0.000000 
0.132812 0.000000 0.000000 
0.140625 0.000000 0.000000 
0.140625 0.000000 0.000000 
0.148438 0.000000 0.000000 
0.148438 0.000000 0.000000 
0.156250 0.000000 0.000000 
0.171875 0.000000 0.000000 
0.179688 0.000000 0.000000 
0.179688 0.000000 0.000000 
0.187500 0.000000 0.000000 
0.156250 0.000000 0.000000 
0.164062 0.000000 0.000000 
0.164062 0.000000 0.000000 
0.171875 0.000000 0.000000 
0.484375 -6.986279 0.000000 
0.492188 -6.968892 0.000000 
0.492188 -6.992142 0.000000 
0.500000 -6.939777 0.000000 
0.468750 -7.025580 0.000000 
0.476562 -6.975108 0.000000 
0.476562 -7.003381 0.000000 
0.484375 -6.969034 0.000000 
0.437500 -7.173078 0.000000 
0.445312 -7.052552 0.000000 
0.445312 -7.126556 0.000000 
0.453125 -7.025070 0.000000 
0.453125 -7.086787 0.000000 
0.460938 -7.003123 0.000000 
0.460938 -7.053265 0.000000 
0.468750 -6.986501 0.000000 
0.375000 -7.899528 0.000000 
0.382812 -7.530029 0.000000 
0.382812 -7.760749 0.000000 
0.390625 -7.438088 0.000000 
0.390625 -7.639722 0.000000 
0.398438 -7.357481 0.000000 
0.398438 -7.533893 0.000000 
0.406250 -7.286897 0.000000 
0.421875 -7.288983 0.000000 
0.429688 -7.125413 0.000000 
0.429688 -7.226970 0.000000 
0.437500 -7.085869 0.000000 
0.406250 -7.441214 0.000000 
0.414062 -7.225259 0.000000 
0.414062 -7.360028 0.000000 
0.421875 -7.171675 0.000000 
0.250000 30.821766 0.000000 
0.257812 -61.643532 0.000000 
0.257812 -40.921186 0.000000 
0.265625 -10.622925 0.000000 
0.265625 -25.435050 0.000000 
0.273438 -11.296936 0.000000 
0.273438 -18.327969 0.000000 
0.281250 -11.372984 0.000000 
0.296875 -11.977850 0.000000 
0.304688 -9.726652 0.000000 
0.304688 -11.056491 0.000000 
0.312500 -9.318173 0.000000 
0.281250 -15.142935 0.000000 
0.289062 -10.788069 0.000000 
0.289062 -13.251931 0.000000 
0.296875 -10.215211 0.000000 
0.359375 -8.244123 0.000000 
0.367188 -7.754670 0.000000 
0.367188 -8.059281 0.000000 
0.375000 -7.634902 0.000000 
0.343750 -8.712182 0.000000 
0.351562 -8.049188 0.000000 
0.351562 -8.459400 0.000000 
0.359375 -7.891758 0.000000 
0.312500 -10.358470 0.000000 
0.320312 -8.975898 0.000000 
0.320312 -9.811617 0.000000 
0.328125 -8.687033 0.000000 
0.328125 -9.372184 0.000000 
0.335938 -8.441315 0.000000 
0.335938 -9.012025 0.000000 
0.343750 -8.230764 0.000000 
0.500000 -6.939777 0.000000 
0.507812 -6.992142 0.000000 
0.507812 -6.968892 0.000000 
0.515625 -6.986279 0.000000 
0.515625 -6.969034 0.000000 
0.523438 -7.003381 0.000000 
0.523438 -6.975108 0.000000 
0.531250 -7.025580 0.000000 
0.546875 -7.025070 0.000000 
0.554688 -7.126556 0.000000 
0.554688 -7.052552 0.000000 
0.562500 -7.173078 0.000000 
0.531250 -6.986501 0.000000 
0.539062 -7.053265 0.000000 
0.539062 -7.003123 0.000000 
0.546875 -7.086787 0.000000 
0.609375 -7.438088 0.000000 
0.617188 -7.760749 0.000000 
0.617188 -7.530029 0.000000 
0.625000 -7.899528 0.000000 
0.593750 -7.286897 0.000000 
0.601562 -7.533893 0.000000 
0.601562 -7.357481 0.000000 
0.609375 -7.639722 0.000000 
0.562500 -7.085869 0.000000 
0.570312 -7.226970 0.000000 
0.570312 -7.125413 0.000000 
0.578125 -7.288983 0.000000 
0.578125 -7.171675 0.000000 
0.585938 -7.360028 0.000000 
0.585938 -7.225259 0.000000 
0.593750 -7.441214 0.000000 
0.734375 -10.622925 0.000000 
0.742188 -40.921186 0.000000 
0.742188 -61.643532 0.000000 
0.750000 30.821766 0.000000 
0.718750 -11.372984 0.000000 
0.726562 -18.327969 0.000000 
0.726562 -11.296936 0.000000 
0.734375 -25.435050 0.000000 
0.687500 -9.318173 0.000000 
0.695312 -11.056491 0.000000 
0.695312 -9.726652 0.000000 
0.703125 -11.977850 0.000000 
0.703125 -10.215211 0.000000 
0.710938 -13.251931 0.000000 
0.710938 -10.788069 0.000000 
0.718750 -15.142935 0.000000 
0.625000 -7.634902 0.000000 
0.632812 -8.059281 0.000000 
0.632812 -7.754670 0.000000 
0.640625 -8.244123 0.000000 
0.640625 -7.891758 0.000000 
0.648438 -8.459400 0.000000 
0.648438 -8.049188 0.000000 
0.656250 -8.712182 0.000000 
0.671875 -8.687033 0.000000 
0.679688 -9.811617 0.000000 
0.679688 -8.975898 0.000000 
0.687500 -10.358470 0.000000 
0.656250 -8.230764 0.000000 
0.664062 -9.012025 0.000000 
0.664062 -8.441315 0.000000 
0.671875 -9.372184 0.000000 
0.984375 0.000000 0.000000 
0.992188 0.000000 0.000000 
0.992188 0.000000 0.000000 
1.000000 0.000000 0.000000 
0.968750 0.000000 0.000000 
0.976562 0.000000 0.000000 
0.976562 0.000000 0.000000 
0.984375 0.000000 0.000000 
0.937500 0.000000 0.000000 
0.945312 0.000000 0.000000 
0.945312 0.000000 0.000000 
0.953125 0.000000 0.000000 
0.953125 0.000000 0.000000 
0.960938 0.000000 0.000000 
0.960938 0.000000 0.000000 
0.968750 0.000000 0.000000 
0.875000 0.000000 0.000000 
0.882812 0.000000 0.000000 
0.882812 0.000000 0.000000 
0.890625 0.000000 0.000000 
0.890625 0.000000 0.000000 
0.898438 0.000000 0.000000 
0.898438 0.000000 0.000000 
0.906250 0.000000 0.000000 
0.921875 0.000000 0.000000 
0.929688 0.000000 0.000000 
0.929688 0.000000 0.000000 
0.937500 0.000000 0.000000 
0.906250 0.000000 0.000000 
0.914062 0.000000 0.000000 
0.914062 0.000000 0.000000 
0.921875 0.000000 0.000000 
0.750000 0.000000 0.000000 
0.757812 0.000000 0.000000 
0.757812 0.000000 0.000000 
0.765625 0.000000 0.000000 
0.765625 0.000000 0.000000 
0.773438 0.000000 0.000000 
0.773438 0.000000 0.000000 
0.781250 0.000000 0.000000 
0.796875 0.000000 0.000000 
0.804688 0.000000 0.000000 
0.804688 0.000000 0.000000 
0.812500 0.000000 0.000000 
0.781250 0.000000 0.000000 
0.789062 0.000000 0.000000 
0.789062 0.000000 0.000000 
0.796875 0.000000 0.000000 
0.859375 0.000000 0.000000 
0.867188 0.000000 0.000000 
0.867188 0.000000 0.000000 
0.875000 0.000000 0.000000 
0.843750 0.000000 0.000000 
0.851562 0.000000 0.000000 
0.851562 0.000000 0.000000 
0.859375 0.000000 0.000000 
0.812500 0.000000 0.000000 
0.820312 0.000000 0.000000 
0.820312 0.000000 0.000000 
0.828125 0.000000 0.000000 
0.828125 0.000000 0.000000 
0.835938 0.000000 0.000000 
0.835938 0.000000 0.000000 
0.843750 0.000000 0.000000 

CELLS 128 384
2  0 1 
2  2 3 
2  4 5 
2  6 7 
2  8 9 
2  10 11 
2  12 13 
2  14 15 
2  16 17 
2  18 19 
2  20 21 
2  22 23 
2  24 25 
2  26 27 
2  28 29 
2  30 31 
2  32 33 
2  34 35 
2  36 37 
2  38 39 
2  40 41 
2  42 43 
2  44 45 
2  46 47 
2  48 49 
2  50 51 
2  52 53 
2  54 55 
2  56 57 
2  58 59 
2  60 61 
2  62 63 
2  64 65 
2  66 67 
2  68 69 
2  70 71 
2  72 73 
2  74 75 
2  76 77 
2  78 79 
2  80 81 
2  82 83 
2  84 85 
2  86 87 
2  88 89 
2  90 91 
2  92 93 
2  94 95 
2  96 97 
2  98 99 
2  100 101 
2  102 103 
2  104 105 
2  106 107 
2  108 109 
2  110 111 
2  112 113 
2  114 115 
2  116 117 
2  118 119 
2  120 121 
2  122 123 
2  124 125 
2  126 127 
2  128 129 
2  130 131 
2  132 133 
2  134 135 
2  136 137 
2  138 139 
2  140 141 
2  142 143 
2  144 145 
2  146 147 
2  148 149 
2  150 151 
2  152 153 
2  154 155 
2  156 157 
2  158 159 
2  160 161 
2  162 163 
2  164 165 
2  166 167 
2  168 169 
2  170 171 
2  172 173 
2  174 175 
2  176 177 
2  178 179 
2  180 181 
2  182 183 
2  184 185 
2  186 187 
2  188 189 
2  190 191 
2  192 193 
2  194 195 
2  196 197 
2  198 199 
2  200 201 
2  202 203 
2  204 205 
2  206 207 
2  208 209 
2  210 211 
2  212 213 
2  214 215 
2  216 217 
2  218 219 
2  220 221 
2  222 223 
2  224 225 
2  226 227 
2  228 229 
2  230 231 
2  232 233 
2  234 235 
2  236 237 
2  238 239 
2  240 241 
2  242 243 
2  244 245 
2  246 247 
2  248 249 
2  250 251 
2  252 253 
2  254 255 

CELL_TYPES 128
3
3
3
3
3
3
3
3
3
3
3
3
3
3
3
3
3
3
3
3
3
3
3
3
3
3
3
3
3
3
3
3
3
3
3
3
3
3
3
3
3
3
3
3
3
3
3
3
3
3
3
3
3
3
3
3
3
3
3
3
3
3
3
3
3
3
3
3
3
3
3
3
3
3
3
3
3
3
3
3
3
3
3
3
3
3
3
3
3
3
3
3
3
3
3
3
3
3
3
3
3
3
3
3
3
3
3
3
3
3
3
3
3
3
3
3
3
3
3
3
3
3
3
3
3
3
3
3

POINT_DATA 256

SCALARS lambda_h float 1
LOOKUP_TABLE default
0.000000 
0.000000 
0.000000 
0.000000 
0.000000 
0.000000 
0.000000 
0.000000 
0.000000 
0.000000 
0.000000 
0.000000 
0.000000 
0.000000 
0.000000 
0.000000 
0.000000 
0.000000 
0.000000 
0.000000 
0.000000 
0.000000 
0.000000 
0.000000 
0.000000 
0.000000 
0.000000 
0.000000 
0.000000 
0.000000 
0.000000 
0.000000 
0.000000 
0.000000 
0.000000 
0.000000 
0.000000 
0.000000 
0.000000 
0.000000 
0.000000 
0.000000 
0.000000 
0.000000 
0.000000 
0.000000 
0.000000 
0.000000 
0.000000 
0.000000 
0.000000 
0.000000 
0.000000 
0.000000 
0.000000 
0.000000 
0.000000 
0.000000 
0.000000 
0.000000 
0.000000 
0.000000 
0.000000 
0.000000 
-6.986279 
-6.968892 
-6.992142 
-6.939777 
-7.025580 
-6.975108 
-7.003381 
-6.969034 
-7.173078 
-7.052552 
-7.126556 
-7.025070 
-7.086787 
-7.003123 
-7.053265 
-6.986501 
-7.899528 
-7.530029 
-7.760749 
-7.438088 
-7.639722 
-7.357481 
-7.533893 
-7.286897 
-7.288983 
-7.125413 
-7.226970 
-7.085869 
-7.441214 
-7.225259 
-7.360028 
-7.171675 
30.821766 
-61.643532 
-40.921186 
-10.622925 
-25.435050 
-11.296936 
-18.327969 
-11.372984 
-11.977850 
-9.726652 
-11.056491 
-9.318173 
-15.142935 
-10.788069 
-13.251931 
-10.215211 
-8.244123 
-7.754670 
-8.059281 
-7.634902 
-8.712182 
-8.049188 
-8.459400 
-7.891758 
-10.358470 
-8.975898 
-9.811617 
-8.687033 
-9.372184 
-8.441315 
-9.012025 
-8.230764 
-6.939777 
-6.992142 
-6.968892 
-6.986279 
-6.969034 
-7.003381 
-6.975108 
-7.025580 
-7.025070 
-7.126556 
-7.052552 
-7.173078 
-6.986501 
-7.053265 
-7.003123 
-7.086787 
-7.438088 
-7.760749 
-7.530029 
-7.899528 
-7.286897 
-7.533893 
-7.357481 
-7.639722 
-7.085869 
-7.226970 
-7.125413 
-7.288983 
-7.171675 
-7.360028 
-7.225259 
-7.441214 
-10.622925 
-40.921186 
-61.643532 
30.821766 
-11.372984 
-18.327969 
-11.296936 
-25.435050 
-9.318173 
-11.056491 
-9.726652 
-11.977850 
-10.215211 
-13.251931 
-10.788069 
-15.142935 
-7.634902 
-8.059281 
-7.754670 
-8.244123 
-7.891758 
-8.459400 
-8.049188 
-8.712182 
-8.687033 
-9.811617 
-8.975898 
-10.358470 
-8.230764 
-9.012025 
-8.441315 
-9.372184 
0.000000 
0.000000 
0.000000 
0.000000 
0.000000 
0.000000 
0.000000 
0.000000 
0.000000 
0.000000 
0.000000 
0.000000 
0.000000 
0.000000 
0.000000 
0.000000 
0.000000 
0.000000 
0.000000 
0.000000 
0.000000 
0.000000 
0.000000 
0.000000 
0.000000 
0.000000 
0.000000 
0.000000 
0.000000 
0.000000 
0.000000 
0.000000 
0.000000 
0.000000 
0.000000 
0.000000 
0.000000 
0.000000 
0.000000 
0.000000 
0.000000 
0.000000 
0.000000 
0.000000 
0.000000 
0.000000 
0.000000 
0.000000 
0.000000 
0.000000 
0.000000 
0.000000 
0.000000 
0.000000 
0.000000 
0.000000 
0.000000 
0.000000 
0.000000 
0.000000 
0.000000 
0.000000 
0.000000 
0.000000 

