# vtk DataFile Version 2.0
Unstructured Grid Example
ASCII
DATASET UNSTRUCTURED_GRID

POINTS 64 float
0.000000 0.000000 0.000000 
0.031250 0.000000 0.000000 
0.031250 0.000000 0.000000 
0.062500 0.000000 0.000000 
0.062500 0.000000 0.000000 
0.093750 0.000000 0.000000 
0.093750 0.000000 0.000000 
0.125000 0.000000 0.000000 
0.187500 0.000000 0.000000 
0.218750 0.000000 0.000000 
0.218750 0.000000 0.000000 
0.250000 0.000000 0.000000 
0.125000 0.000000 0.000000 
0.156250 0.000000 0.000000 
0.156250 0.000000 0.000000 
0.187500 0.000000 0.000000 
0.437500 -7.494219 0.000000 
0.468750 -7.069704 0.000000 
0.468750 -7.261765 0.000000 
0.500000 -7.110098 0.000000 
0.375000 -8.667193 0.000000 
0.406250 -7.131530 0.000000 
0.406250 -7.934121 0.000000 
0.437500 -7.062011 0.000000 
0.250000 20.035652 0.000000 
0.281250 -40.071304 0.000000 
0.281250 -28.818362 0.000000 
0.312500 -2.470233 0.000000 
0.312500 -13.406090 0.000000 
0.343750 -6.946648 0.000000 
0.343750 -10.044285 0.000000 
0.375000 -7.210816 0.000000 
0.500000 -7.110098 0.000000 
0.531250 -7.261765 0.000000 
0.531250 -7.069704 0.000000 
0.562500 -7.494219 0.000000 
0.562500 -7.062011 0.000000 
0.593750 -7.934121 0.000000 
0.593750 -7.131530 0.000000 
0.625000 -8.667193 0.000000 
0.687500 -2.470233 0.000000 
0.718750 -28.818362 0.000000 
0.718750 -40.071304 0.000000 
0.750000 20.035652 0.000000 
0.625000 -7.210816 0.000000 
0.656250 -10.044285 0.000000 
0.656250 -6.946648 0.000000 
0.687500 -13.406090 0.000000 
0.937500 0.000000 0.000000 
0.968750 0.000000 0.000000 
0.968750 0.000000 0.000000 
1.000000 0.000000 0.000000 
0.875000 0.000000 0.000000 
0.906250 0.000000 0.000000 
0.906250 0.000000 0.000000 
0.937500 0.000000 0.000000 
0.750000 0.000000 0.000000 
0.781250 0.000000 0.000000 
0.781250 0.000000 0.000000 
0.812500 0.000000 0.000000 
0.812500 0.000000 0.000000 
0.843750 0.000000 0.000000 
0.843750 0.000000 0.000000 
0.875000 0.000000 0.000000 

CELLS 32 96
2  0 1 
2  2 3 
2  4 5 
2  6 7 
2  8 9 
2  10 11 
2  12 13 
2  14 15 
2  16 17 
2  18 19 
2  20 21 
2  22 23 
2  24 25 
2  26 27 
2  28 29 
2  30 31 
2  32 33 
2  34 35 
2  36 37 
2  38 39 
2  40 41 
2  42 43 
2  44 45 
2  46 47 
2  48 49 
2  50 51 
2  52 53 
2  54 55 
2  56 57 
2  58 59 
2  60 61 
2  62 63 

CELL_TYPES 32
3
3
3
3
3
3
3
3
3
3
3
3
3
3
3
3
3
3
3
3
3
3
3
3
3
3
3
3
3
3
3
3

POINT_DATA 64

SCALARS lambda_h float 1
LOOKUP_TABLE default
0.000000 
0.000000 
0.000000 
0.000000 
0.000000 
0.000000 
0.000000 
0.000000 
0.000000 
0.000000 
0.000000 
0.000000 
0.000000 
0.000000 
0.000000 
0.000000 
-7.494219 
-7.069704 
-7.261765 
-7.110098 
-8.667193 
-7.131530 
-7.934121 
-7.062011 
20.035652 
-40.071304 
-28.818362 
-2.470233 
-13.406090 
-6.946648 
-10.044285 
-7.210816 
-7.110098 
-7.261765 
-7.069704 
-7.494219 
-7.062011 
-7.934121 
-7.131530 
-8.667193 
-2.470233 
-28.818362 
-40.071304 
20.035652 
-7.210816 
-10.044285 
-6.946648 
-13.406090 
0.000000 
0.000000 
0.000000 
0.000000 
0.000000 
0.000000 
0.000000 
0.000000 
0.000000 
0.000000 
0.000000 
0.000000 
0.000000 
0.000000 
0.000000 
0.000000 

