# vtk DataFile Version 2.0
Unstructured Grid Example
ASCII
DATASET UNSTRUCTURED_GRID

POINTS 128 float
0.000000 0.000000 0.000000 
0.015625 0.000000 0.000000 
0.015625 0.000000 0.000000 
0.031250 0.000000 0.000000 
0.031250 0.000000 0.000000 
0.046875 0.000000 0.000000 
0.046875 0.000000 0.000000 
0.062500 0.000000 0.000000 
0.093750 0.000000 0.000000 
0.109375 0.000000 0.000000 
0.109375 0.000000 0.000000 
0.125000 0.000000 0.000000 
0.062500 0.000000 0.000000 
0.078125 0.000000 0.000000 
0.078125 0.000000 0.000000 
0.093750 0.000000 0.000000 
0.218750 0.000000 0.000000 
0.234375 0.000000 0.000000 
0.234375 0.000000 0.000000 
0.250000 0.000000 0.000000 
0.187500 0.000000 0.000000 
0.203125 0.000000 0.000000 
0.203125 0.000000 0.000000 
0.218750 0.000000 0.000000 
0.125000 0.000000 0.000000 
0.140625 0.000000 0.000000 
0.140625 0.000000 0.000000 
0.156250 0.000000 0.000000 
0.156250 0.000000 0.000000 
0.171875 0.000000 0.000000 
0.171875 0.000000 0.000000 
0.187500 0.000000 0.000000 
0.468750 -7.106272 0.000000 
0.484375 -7.025492 0.000000 
0.484375 -7.083410 0.000000 
0.500000 -6.990436 0.000000 
0.437500 -7.292157 0.000000 
0.453125 -7.052478 0.000000 
0.453125 -7.185397 0.000000 
0.468750 -7.026319 0.000000 
0.375000 -8.169501 0.000000 
0.390625 -7.409413 0.000000 
0.390625 -7.855853 0.000000 
0.406250 -7.276621 0.000000 
0.406250 -7.616739 0.000000 
0.421875 -7.175618 0.000000 
0.421875 -7.433052 0.000000 
0.437500 -7.101870 0.000000 
0.250000 25.115354 0.000000 
0.265625 -50.230709 0.000000 
0.265625 -35.152281 0.000000 
0.281250 -5.041500 0.000000 
0.281250 -18.319990 0.000000 
0.296875 -8.595301 0.000000 
0.296875 -13.389677 0.000000 
0.312500 -8.731239 0.000000 
0.343750 -9.160437 0.000000 
0.359375 -7.797677 0.000000 
0.359375 -8.587722 0.000000 
0.375000 -7.580346 0.000000 
0.312500 -11.226114 0.000000 
0.328125 -8.399927 0.000000 
0.328125 -9.977794 0.000000 
0.343750 -8.070378 0.000000 
0.500000 -6.990436 0.000000 
0.515625 -7.083410 0.000000 
0.515625 -7.025492 0.000000 
0.531250 -7.106272 0.000000 
0.531250 -7.026319 0.000000 
0.546875 -7.185397 0.000000 
0.546875 -7.052478 0.000000 
0.562500 -7.292157 0.000000 
0.593750 -7.276621 0.000000 
0.609375 -7.855853 0.000000 
0.609375 -7.409413 0.000000 
0.625000 -8.169501 0.000000 
0.562500 -7.101870 0.000000 
0.578125 -7.433052 0.000000 
0.578125 -7.175618 0.000000 
0.593750 -7.616739 0.000000 
0.718750 -5.041500 0.000000 
0.734375 -35.152281 0.000000 
0.734375 -50.230709 0.000000 
0.750000 25.115354 0.000000 
0.687500 -8.731239 0.000000 
0.703125 -13.389677 0.000000 
0.703125 -8.595301 0.000000 
0.718750 -18.319990 0.000000 
0.625000 -7.580346 0.000000 
0.640625 -8.587722 0.000000 
0.640625 -7.797677 0.000000 
0.656250 -9.160437 0.000000 
0.656250 -8.070378 0.000000 
0.671875 -9.977794 0.000000 
0.671875 -8.399927 0.000000 
0.687500 -11.226114 0.000000 
0.968750 0.000000 0.000000 
0.984375 0.000000 0.000000 
0.984375 0.000000 0.000000 
1.000000 0.000000 0.000000 
0.937500 0.000000 0.000000 
0.953125 0.000000 0.000000 
0.953125 0.000000 0.000000 
0.968750 0.000000 0.000000 
0.875000 0.000000 0.000000 
0.890625 0.000000 0.000000 
0.890625 0.000000 0.000000 
0.906250 0.000000 0.000000 
0.906250 0.000000 0.000000 
0.921875 0.000000 0.000000 
0.921875 0.000000 0.000000 
0.937500 0.000000 0.000000 
0.750000 0.000000 0.000000 
0.765625 0.000000 0.000000 
0.765625 0.000000 0.000000 
0.781250 0.000000 0.000000 
0.781250 0.000000 0.000000 
0.796875 0.000000 0.000000 
0.796875 0.000000 0.000000 
0.812500 0.000000 0.000000 
0.843750 0.000000 0.000000 
0.859375 0.000000 0.000000 
0.859375 0.000000 0.000000 
0.875000 0.000000 0.000000 
0.812500 0.000000 0.000000 
0.828125 0.000000 0.000000 
0.828125 0.000000 0.000000 
0.843750 0.000000 0.000000 

CELLS 64 192
2  0 1 
2  2 3 
2  4 5 
2  6 7 
2  8 9 
2  10 11 
2  12 13 
2  14 15 
2  16 17 
2  18 19 
2  20 21 
2  22 23 
2  24 25 
2  26 27 
2  28 29 
2  30 31 
2  32 33 
2  34 35 
2  36 37 
2  38 39 
2  40 41 
2  42 43 
2  44 45 
2  46 47 
2  48 49 
2  50 51 
2  52 53 
2  54 55 
2  56 57 
2  58 59 
2  60 61 
2  62 63 
2  64 65 
2  66 67 
2  68 69 
2  70 71 
2  72 73 
2  74 75 
2  76 77 
2  78 79 
2  80 81 
2  82 83 
2  84 85 
2  86 87 
2  88 89 
2  90 91 
2  92 93 
2  94 95 
2  96 97 
2  98 99 
2  100 101 
2  102 103 
2  104 105 
2  106 107 
2  108 109 
2  110 111 
2  112 113 
2  114 115 
2  116 117 
2  118 119 
2  120 121 
2  122 123 
2  124 125 
2  126 127 

CELL_TYPES 64
3
3
3
3
3
3
3
3
3
3
3
3
3
3
3
3
3
3
3
3
3
3
3
3
3
3
3
3
3
3
3
3
3
3
3
3
3
3
3
3
3
3
3
3
3
3
3
3
3
3
3
3
3
3
3
3
3
3
3
3
3
3
3
3

POINT_DATA 128

SCALARS lambda_h float 1
LOOKUP_TABLE default
0.000000 
0.000000 
0.000000 
0.000000 
0.000000 
0.000000 
0.000000 
0.000000 
0.000000 
0.000000 
0.000000 
0.000000 
0.000000 
0.000000 
0.000000 
0.000000 
0.000000 
0.000000 
0.000000 
0.000000 
0.000000 
0.000000 
0.000000 
0.000000 
0.000000 
0.000000 
0.000000 
0.000000 
0.000000 
0.000000 
0.000000 
0.000000 
-7.106272 
-7.025492 
-7.083410 
-6.990436 
-7.292157 
-7.052478 
-7.185397 
-7.026319 
-8.169501 
-7.409413 
-7.855853 
-7.276621 
-7.616739 
-7.175618 
-7.433052 
-7.101870 
25.115354 
-50.230709 
-35.152281 
-5.041500 
-18.319990 
-8.595301 
-13.389677 
-8.731239 
-9.160437 
-7.797677 
-8.587722 
-7.580346 
-11.226114 
-8.399927 
-9.977794 
-8.070378 
-6.990436 
-7.083410 
-7.025492 
-7.106272 
-7.026319 
-7.185397 
-7.052478 
-7.292157 
-7.276621 
-7.855853 
-7.409413 
-8.169501 
-7.101870 
-7.433052 
-7.175618 
-7.616739 
-5.041500 
-35.152281 
-50.230709 
25.115354 
-8.731239 
-13.389677 
-8.595301 
-18.319990 
-7.580346 
-8.587722 
-7.797677 
-9.160437 
-8.070378 
-9.977794 
-8.399927 
-11.226114 
0.000000 
0.000000 
0.000000 
0.000000 
0.000000 
0.000000 
0.000000 
0.000000 
0.000000 
0.000000 
0.000000 
0.000000 
0.000000 
0.000000 
0.000000 
0.000000 
0.000000 
0.000000 
0.000000 
0.000000 
0.000000 
0.000000 
0.000000 
0.000000 
0.000000 
0.000000 
0.000000 
0.000000 
0.000000 
0.000000 
0.000000 
0.000000 

