# vtk DataFile Version 2.0
Unstructured Grid Example
ASCII
DATASET UNSTRUCTURED_GRID

POINTS 81 float
0.039791 -0.254824 0.000000 
0.960209 -0.254824 0.000000 
1.000000 1.000000 0.000000 
0.000000 1.000000 0.000000 
0.500000 -0.100000 0.000000 
0.975490 0.319503 0.000000 
0.500000 1.000000 0.000000 
0.024510 0.319503 0.000000 
0.500000 0.334241 0.000000 
0.283394 -0.180510 0.000000 
0.500000 0.097252 0.000000 
0.242622 0.053669 0.000000 
0.716606 -0.180510 0.000000 
0.757378 0.053669 0.000000 
0.995927 0.017839 0.000000 
0.744432 0.322724 0.000000 
0.949191 0.633656 0.000000 
0.728728 0.639126 0.000000 
0.750000 1.000000 0.000000 
0.500000 0.645409 0.000000 
0.250000 1.000000 0.000000 
0.271272 0.639126 0.000000 
0.050809 0.633656 0.000000 
0.255568 0.322724 0.000000 
0.004073 0.017839 0.000000 
0.162449 -0.226792 0.000000 
0.251889 -0.067753 0.000000 
0.133390 -0.103314 0.000000 
0.500000 -0.002712 0.000000 
0.371414 -0.017646 0.000000 
0.396018 -0.100000 0.000000 
0.369980 0.202118 0.000000 
0.367261 0.085388 0.000000 
0.500000 0.208828 0.000000 
0.603982 -0.100000 0.000000 
0.628586 -0.017646 0.000000 
0.866610 -0.103314 0.000000 
0.748111 -0.067753 0.000000 
0.837551 -0.226792 0.000000 
0.632739 0.085388 0.000000 
0.630020 0.202118 0.000000 
0.986267 -0.124205 0.000000 
0.877676 0.028659 0.000000 
0.861269 0.314634 0.000000 
0.873984 0.167883 0.000000 
0.990273 0.166520 0.000000 
0.754228 0.183130 0.000000 
0.624139 0.333282 0.000000 
0.961187 0.473352 0.000000 
0.848132 0.469058 0.000000 
0.845245 0.815229 0.000000 
0.839062 0.634504 0.000000 
0.949603 0.804284 0.000000 
0.734178 0.473926 0.000000 
0.617666 0.479939 0.000000 
0.875000 1.000000 0.000000 
0.732800 0.817055 0.000000 
0.500000 0.820050 0.000000 
0.617139 0.818259 0.000000 
0.625000 1.000000 0.000000 
0.615166 0.642858 0.000000 
0.500000 0.482401 0.000000 
0.375000 1.000000 0.000000 
0.382861 0.818259 0.000000 
0.154755 0.815229 0.000000 
0.267200 0.817055 0.000000 
0.125000 1.000000 0.000000 
0.384834 0.642858 0.000000 
0.382334 0.479939 0.000000 
0.050397 0.804284 0.000000 
0.160938 0.634504 0.000000 
0.138731 0.314634 0.000000 
0.151868 0.469058 0.000000 
0.038813 0.473352 0.000000 
0.265822 0.473926 0.000000 
0.375861 0.333282 0.000000 
0.009727 0.166520 0.000000 
0.126016 0.167883 0.000000 
0.122324 0.028659 0.000000 
0.013733 -0.124205 0.000000 
0.245772 0.183130 0.000000 

CELLS 128 512
3  0 25 27 
3  9 26 25 
3  11 27 26 
3  25 26 27 
3  4 28 30 
3  10 29 28 
3  9 30 29 
3  28 29 30 
3  8 31 33 
3  11 32 31 
3  10 33 32 
3  31 32 33 
3  9 29 26 
3  10 32 29 
3  11 26 32 
3  29 32 26 
3  4 34 28 
3  12 35 34 
3  10 28 35 
3  34 35 28 
3  1 36 38 
3  13 37 36 
3  12 38 37 
3  36 37 38 
3  8 33 40 
3  10 39 33 
3  13 40 39 
3  33 39 40 
3  12 37 35 
3  13 39 37 
3  10 35 39 
3  37 39 35 
3  1 41 36 
3  14 42 41 
3  13 36 42 
3  41 42 36 
3  5 43 45 
3  15 44 43 
3  14 45 44 
3  43 44 45 
3  8 40 47 
3  13 46 40 
3  15 47 46 
3  40 46 47 
3  14 44 42 
3  15 46 44 
3  13 42 46 
3  44 46 42 
3  5 48 43 
3  16 49 48 
3  15 43 49 
3  48 49 43 
3  2 50 52 
3  17 51 50 
3  16 52 51 
3  50 51 52 
3  8 47 54 
3  15 53 47 
3  17 54 53 
3  47 53 54 
3  16 51 49 
3  17 53 51 
3  15 49 53 
3  51 53 49 
3  2 55 50 
3  18 56 55 
3  17 50 56 
3  55 56 50 
3  6 57 59 
3  19 58 57 
3  18 59 58 
3  57 58 59 
3  8 54 61 
3  17 60 54 
3  19 61 60 
3  54 60 61 
3  18 58 56 
3  19 60 58 
3  17 56 60 
3  58 60 56 
3  6 62 57 
3  20 63 62 
3  19 57 63 
3  62 63 57 
3  3 64 66 
3  21 65 64 
3  20 66 65 
3  64 65 66 
3  8 61 68 
3  19 67 61 
3  21 68 67 
3  61 67 68 
3  20 65 63 
3  21 67 65 
3  19 63 67 
3  65 67 63 
3  3 69 64 
3  22 70 69 
3  21 64 70 
3  69 70 64 
3  7 71 73 
3  23 72 71 
3  22 73 72 
3  71 72 73 
3  8 68 75 
3  21 74 68 
3  23 75 74 
3  68 74 75 
3  22 72 70 
3  23 74 72 
3  21 70 74 
3  72 74 70 
3  7 76 71 
3  24 77 76 
3  23 71 77 
3  76 77 71 
3  0 27 79 
3  11 78 27 
3  24 79 78 
3  27 78 79 
3  8 75 31 
3  23 80 75 
3  11 31 80 
3  75 80 31 
3  24 78 77 
3  11 80 78 
3  23 77 80 
3  78 80 77 

CELL_TYPES 128
5
5
5
5
5
5
5
5
5
5
5
5
5
5
5
5
5
5
5
5
5
5
5
5
5
5
5
5
5
5
5
5
5
5
5
5
5
5
5
5
5
5
5
5
5
5
5
5
5
5
5
5
5
5
5
5
5
5
5
5
5
5
5
5
5
5
5
5
5
5
5
5
5
5
5
5
5
5
5
5
5
5
5
5
5
5
5
5
5
5
5
5
5
5
5
5
5
5
5
5
5
5
5
5
5
5
5
5
5
5
5
5
5
5
5
5
5
5
5
5
5
5
5
5
5
5
5
5

POINT_DATA 81

SCALARS u_h float 2
LOOKUP_TABLE default
0.039791 -0.254824 
-0.039791 -0.254824 
0.000000 0.000000 
0.000000 0.000000 
-0.000000 -0.100000 
-0.024510 -0.180497 
0.000000 0.000000 
0.024510 -0.180497 
-0.000000 -0.165759 
0.033394 -0.180510 
-0.000000 -0.152748 
-0.007378 -0.196331 
-0.033394 -0.180510 
0.007378 -0.196331 
-0.004073 -0.232161 
-0.005568 -0.177276 
-0.050809 -0.116344 
-0.021272 -0.110874 
0.000000 0.000000 
-0.000000 -0.104591 
0.000000 0.000000 
0.021272 -0.110874 
0.050809 -0.116344 
0.005568 -0.177276 
0.004073 -0.232161 
0.037449 -0.226792 
0.001889 -0.192753 
0.008390 -0.228314 
-0.000000 -0.127712 
-0.003586 -0.142646 
0.021018 -0.100000 
-0.005020 -0.172882 
-0.007739 -0.164612 
-0.000000 -0.166172 
-0.021018 -0.100000 
0.003586 -0.142646 
-0.008390 -0.228314 
-0.001889 -0.192753 
-0.037449 -0.226792 
0.007739 -0.164612 
0.005020 -0.172882 
-0.013733 -0.249205 
0.002676 -0.221341 
-0.013731 -0.185366 
-0.001016 -0.207117 
-0.009727 -0.208480 
0.004228 -0.191870 
-0.000861 -0.166718 
-0.038813 -0.151648 
-0.026868 -0.155942 
-0.029755 -0.059771 
-0.035938 -0.115496 
-0.050397 -0.070716 
-0.015822 -0.151074 
-0.007334 -0.145061 
0.000000 0.000000 
-0.017200 -0.057945 
-0.000000 -0.054950 
-0.007861 -0.056741 
0.000000 0.000000 
-0.009834 -0.107142 
-0.000000 -0.142599 
0.000000 0.000000 
0.007861 -0.056741 
0.029755 -0.059771 
0.017200 -0.057945 
0.000000 0.000000 
0.009834 -0.107142 
0.007334 -0.145061 
0.050397 -0.070716 
0.035938 -0.115496 
0.013731 -0.185366 
0.026868 -0.155942 
0.038813 -0.151648 
0.015822 -0.151074 
0.000861 -0.166718 
0.009727 -0.208480 
0.001016 -0.207117 
-0.002676 -0.221341 
0.013733 -0.249205 
-0.004228 -0.191870 

CELL_DATA 128

SCALARS epsilon float 4
LOOKUP_TABLE default
0.059361 0.064216 0.000000 -0.004890
0.102532 0.071942 0.000000 0.074082
-0.027658 0.039209 0.000000 0.107193
0.041714 0.096196 0.000000 0.021714
-0.181703 -0.244278 0.000000 -0.000000
0.028273 -0.208540 0.000000 0.074639
0.126412 0.180404 0.000000 0.382876
0.101704 -0.343410 0.000000 0.015527
0.039352 0.004620 0.000000 0.026712
-0.008560 -0.036672 0.000000 0.146699
0.060001 -0.108062 0.000000 0.052986
0.038402 -0.068002 0.000000 0.039104
0.100102 0.094216 0.000000 0.089500
0.064299 -0.181193 0.000000 0.042393
0.019162 0.023217 0.000000 0.093412
-0.027156 -0.049332 0.000000 0.226235
-0.181703 -0.244278 0.000000 0.000000
0.126412 0.180404 0.000000 -0.382876
0.028273 -0.208540 0.000000 -0.074639
0.101704 -0.343410 0.000000 -0.015527
0.059361 0.064216 0.000000 0.004890
-0.027658 0.039209 0.000000 -0.107193
0.102532 0.071942 0.000000 -0.074082
0.041714 0.096196 0.000000 -0.021714
0.039352 0.004620 0.000000 -0.026712
0.060001 -0.108062 0.000000 -0.052986
-0.008560 -0.036672 0.000000 -0.146699
0.038402 -0.068002 0.000000 -0.039104
0.100102 0.094216 0.000000 -0.089500
0.019162 0.023217 0.000000 -0.093412
0.064299 -0.181193 0.000000 -0.042393
-0.027156 -0.049332 0.000000 -0.226235
0.010824 0.091088 0.000000 0.028306
-0.046706 0.136501 0.000000 0.002214
-0.017393 0.090177 0.000000 -0.048938
-0.025424 0.081993 0.000000 -0.033046
-0.080293 0.204218 0.000000 -0.046679
-0.069065 0.155074 0.000000 -0.080702
-0.071714 0.171570 0.000000 -0.028256
-0.068771 0.158259 0.000000 -0.058101
-0.006238 0.047780 0.000000 -0.027289
-0.009781 0.042308 0.000000 -0.085997
-0.041836 0.107026 0.000000 -0.078052
-0.012201 0.051994 0.000000 -0.096004
-0.057470 0.108372 0.000000 -0.054174
-0.049049 0.107746 0.000000 -0.094973
-0.043065 0.050341 0.000000 -0.109484
-0.045816 0.110616 0.000000 -0.069897
-0.080857 0.209503 0.000000 -0.044640
-0.093862 0.247619 0.000000 -0.037177
-0.069114 0.204582 0.000000 -0.080323
-0.092486 0.212268 0.000000 -0.042176
-0.107373 0.451728 0.000000 0.179749
-0.121934 0.357596 0.000000 0.012770
-0.125892 0.303199 0.000000 -0.000701
-0.173955 0.361732 0.000000 -0.002386
-0.006264 0.158264 0.000000 -0.028774
-0.041807 0.185173 0.000000 -0.076255
-0.071263 0.272111 0.000000 -0.040117
-0.071338 0.157316 0.000000 -0.047573
-0.124391 0.273966 0.000000 -0.041239
-0.124749 0.272152 0.000000 -0.036987
-0.092329 0.186116 0.000000 -0.059615
-0.092744 0.272664 0.000000 -0.052019
0.012967 0.375808 0.000000 0.106566
0.004420 0.366896 0.000000 0.061898
-0.104732 0.342119 0.000000 0.011435
-0.086902 0.378205 0.000000 0.113431
0.000000 0.351985 0.000000 0.000000
-0.064860 0.324703 0.000000 -0.005105
0.000936 0.360944 0.000000 0.028380
-0.063138 0.361596 0.000000 0.025370
-0.060386 0.168690 0.000000 -0.008275
-0.096003 0.259675 0.000000 -0.021750
-0.081745 0.260498 0.000000 -0.007768
-0.060572 0.259660 0.000000 -0.017575
-0.071357 0.367801 0.000000 0.063594
-0.081423 0.328983 0.000000 0.000638
-0.094585 0.342667 0.000000 0.005953
-0.077291 0.328765 0.000000 0.004413
0.000000 0.351985 0.000000 0.000000
0.000936 0.360944 0.000000 -0.028380
-0.064860 0.324703 0.000000 0.005105
-0.063138 0.361596 0.000000 -0.025370
0.012967 0.375808 0.000000 -0.106566
-0.104732 0.342119 0.000000 -0.011435
0.004420 0.366896 0.000000 -0.061898
-0.086902 0.378205 0.000000 -0.113431
-0.060386 0.168690 0.000000 0.008275
-0.081745 0.260498 0.000000 0.007768
-0.096003 0.259675 0.000000 0.021750
-0.060572 0.259660 0.000000 0.017575
-0.071357 0.367801 0.000000 -0.063594
-0.094585 0.342667 0.000000 -0.005953
-0.081423 0.328983 0.000000 -0.000638
-0.077291 0.328765 0.000000 -0.004413
-0.107373 0.451728 0.000000 -0.179749
-0.125892 0.303199 0.000000 0.000701
-0.121934 0.357596 0.000000 -0.012770
-0.173955 0.361732 0.000000 0.002386
-0.080857 0.209503 0.000000 0.044640
-0.069114 0.204582 0.000000 0.080323
-0.093862 0.247619 0.000000 0.037177
-0.092486 0.212268 0.000000 0.042176
-0.006264 0.158264 0.000000 0.028774
-0.071263 0.272111 0.000000 0.040117
-0.041807 0.185173 0.000000 0.076255
-0.071338 0.157316 0.000000 0.047573
-0.124391 0.273966 0.000000 0.041239
-0.092329 0.186116 0.000000 0.059615
-0.124749 0.272152 0.000000 0.036987
-0.092744 0.272664 0.000000 0.052019
-0.080293 0.204218 0.000000 0.046679
-0.071714 0.171570 0.000000 0.028256
-0.069065 0.155074 0.000000 0.080702
-0.068771 0.158259 0.000000 0.058101
0.010824 0.091088 0.000000 -0.028306
-0.017393 0.090177 0.000000 0.048938
-0.046706 0.136501 0.000000 -0.002214
-0.025424 0.081993 0.000000 0.033046
-0.006238 0.047780 0.000000 0.027289
-0.041836 0.107026 0.000000 0.078052
-0.009781 0.042308 0.000000 0.085997
-0.012201 0.051994 0.000000 0.096004
-0.057470 0.108372 0.000000 0.054174
-0.043065 0.050341 0.000000 0.109484
-0.049049 0.107746 0.000000 0.094973
-0.045816 0.110616 0.000000 0.069897

SCALARS sigma float 4
LOOKUP_TABLE default
2.097595 2.189660 1.311533 0.404819
3.241897 2.312341 1.782508 1.705139
-0.453656 -0.040296 -0.135989 1.811396
2.053942 2.615893 1.449924 0.948697
-7.961220 -10.316994 -3.372085 -0.000000
-1.525784 -7.504488 -2.032008 1.190865
3.510715 -1.663960 0.592372 5.366081
-1.146229 -15.209208 -3.120410 -3.785385
1.034516 0.481569 0.429084 0.421787
-1.095477 -2.339193 -0.876450 2.482868
0.300077 -2.865648 -0.666439 0.821094
0.227280 -1.649183 -0.378810 0.653792
3.408559 2.651306 1.971604 2.031575
-0.328203 -5.635390 -1.437891 0.454080
0.664867 0.249231 0.258176 1.525929
-2.022000 -5.409443 -1.761733 3.587975
-7.961220 -10.316994 -3.372085 0.000000
3.510715 -1.663960 0.592372 -5.366081
-1.525784 -7.504488 -2.032008 -1.190865
-1.146229 -15.209208 -3.120410 3.785385
2.097595 2.189660 1.311533 -0.404819
-0.453656 -0.040296 -0.135989 -1.811396
3.241897 2.312341 1.782508 -1.705139
2.053942 2.615893 1.449924 -0.948697
1.034516 0.481569 0.429084 -0.421787
0.300077 -2.865648 -0.666439 -0.821094
-1.095477 -2.339193 -0.876450 -2.482868
0.227280 -1.649183 -0.378810 -0.653792
3.408559 2.651306 1.971604 -2.031575
0.664867 0.249231 0.258176 -1.525929
-0.328203 -5.635390 -1.437891 -0.454080
-2.022000 -5.409443 -1.761733 -3.587975
1.090776 2.339552 1.022825 -0.007003
0.002151 2.662076 0.770340 -0.162071
0.430093 1.812859 0.648568 -0.978655
0.131239 1.624273 0.502167 -0.702967
-0.566173 3.567293 0.867731 -0.428362
-0.789076 2.615290 0.515622 -1.168844
-0.493300 3.060376 0.736519 -0.365825
-0.645137 2.786977 0.609692 -0.750034
0.275041 1.122821 0.394566 -0.399740
-0.025305 0.634586 0.169080 -1.409035
-0.348795 1.912010 0.440505 -1.194192
-0.069309 0.792834 0.200906 -1.559213
-0.681521 1.845309 0.325765 -0.889658
-0.648002 1.727519 0.300875 -1.510233
-1.010797 0.230612 -0.210328 -1.872776
-0.348944 1.939277 0.448929 -1.146718
-0.526397 3.659433 0.907816 -0.396995
-0.595230 4.184031 1.045089 -0.294709
-0.317940 3.573764 0.942854 -1.071776
-0.890274 3.572878 0.769601 -0.397250
-0.679354 6.753838 1.827287 1.102991
-0.603326 5.610186 1.481290 -0.008883
-1.219596 4.719773 1.009653 -0.028249
-2.760447 4.981499 0.619158 -0.300729
1.372934 3.553351 1.483607 -0.316215
0.422011 3.528827 1.162527 -1.047928
0.433875 4.855326 1.588475 -0.524973
-0.663357 2.739790 0.590066 -0.703103
-1.496979 4.236185 0.780162 -0.477289
-1.499613 4.197453 0.767663 -0.519321
-1.173527 3.028327 0.523114 -0.835398
-0.359405 4.578988 1.239314 -0.640881
3.758081 7.496362 3.758081 0.540480
3.668958 7.356111 3.668958 0.323524
-0.074969 5.598973 1.654636 0.050788
0.361271 6.195186 1.998350 0.846131
3.519848 7.118638 3.519848 0.000000
1.193071 5.840664 2.176703 -0.089742
3.609445 7.261758 3.609445 0.151325
1.568614 6.434731 2.515107 0.127720
-0.119852 3.149568 0.877942 -0.144722
-0.501642 4.365122 1.128673 -0.314817
0.021659 4.565660 1.360432 -0.139282
0.718081 4.807255 1.670129 -0.223854
1.203255 6.371359 2.358652 0.430488
0.660528 5.696320 1.939847 -0.064559
0.309576 5.739922 1.831881 -0.052052
0.802513 5.746253 2.006134 0.002755
3.519848 7.118638 3.519848 0.000000
3.609445 7.261758 3.609445 -0.151325
1.193071 5.840664 2.176703 0.089742
1.568614 6.434731 2.515107 -0.127720
3.758081 7.496362 3.758081 -0.540480
-0.074969 5.598973 1.654636 -0.050788
3.668958 7.356111 3.668958 -0.323524
0.361271 6.195186 1.998350 -0.846131
-0.119852 3.149568 0.877942 0.144722
0.021659 4.565660 1.360432 0.139282
-0.501642 4.365122 1.128673 0.314817
0.718081 4.807255 1.670129 0.223854
1.203255 6.371359 2.358652 -0.430488
0.309576 5.739922 1.831881 0.052052
0.660528 5.696320 1.939847 0.064559
0.802513 5.746253 2.006134 -0.002755
-0.679354 6.753838 1.827287 -1.102991
-1.219596 4.719773 1.009653 0.028249
-0.603326 5.610186 1.481290 0.008883
-2.760447 4.981499 0.619158 0.300729
-0.526397 3.659433 0.907816 0.396995
-0.317940 3.573764 0.942854 1.071776
-0.595230 4.184031 1.045089 0.294709
-0.890274 3.572878 0.769601 0.397250
1.372934 3.553351 1.483607 0.316215
0.433875 4.855326 1.588475 0.524973
0.422011 3.528827 1.162527 1.047928
-0.663357 2.739790 0.590066 0.703103
-1.496979 4.236185 0.780162 0.477289
-1.173527 3.028327 0.523114 0.835398
-1.499613 4.197453 0.767663 0.519321
-0.359405 4.578988 1.239314 0.640881
-0.566173 3.567293 0.867731 0.428362
-0.493300 3.060376 0.736519 0.365825
-0.789076 2.615290 0.515622 1.168844
-0.645137 2.786977 0.609692 0.750034
1.090776 2.339552 1.022825 0.007003
0.430093 1.812859 0.648568 0.978655
0.002151 2.662076 0.770340 0.162071
0.131239 1.624273 0.502167 0.702967
0.275041 1.122821 0.394566 0.399740
-0.348795 1.912010 0.440505 1.194192
-0.025305 0.634586 0.169080 1.409035
-0.069309 0.792834 0.200906 1.559213
-0.681521 1.845309 0.325765 0.889658
-1.010797 0.230612 -0.210328 1.872776
-0.648002 1.727519 0.300875 1.510233
-0.348944 1.939277 0.448929 1.146718

