# vtk DataFile Version 2.0
Unstructured Grid Example
ASCII
DATASET UNSTRUCTURED_GRID

POINTS 4225 float
0.056005 -0.239662 0.000000 
0.943995 -0.239662 0.000000 
1.000000 1.000000 0.000000 
0.000000 1.000000 0.000000 
0.500000 -0.100000 0.000000 
0.983553 0.334851 0.000000 
0.500000 1.000000 0.000000 
0.016447 0.334851 0.000000 
0.500000 0.346032 0.000000 
0.284606 -0.114938 0.000000 
0.500000 0.105295 0.000000 
0.239822 0.079666 0.000000 
0.715394 -0.114938 0.000000 
0.760178 0.079666 0.000000 
1.002750 0.034600 0.000000 
0.747687 0.334756 0.000000 
0.951168 0.643461 0.000000 
0.729315 0.643178 0.000000 
0.750000 1.000000 0.000000 
0.500000 0.647525 0.000000 
0.250000 1.000000 0.000000 
0.270685 0.643178 0.000000 
0.048832 0.643461 0.000000 
0.252313 0.334756 0.000000 
-0.002750 0.034600 0.000000 
0.176871 -0.196963 0.000000 
0.248020 -0.029337 0.000000 
0.131988 -0.077120 0.000000 
0.500000 0.000242 0.000000 
0.375781 -0.003567 0.000000 
0.383364 -0.100000 0.000000 
0.370717 0.214350 0.000000 
0.369916 0.099520 0.000000 
0.500000 0.219183 0.000000 
0.616636 -0.100000 0.000000 
0.624219 -0.003567 0.000000 
0.868012 -0.077120 0.000000 
0.751980 -0.029337 0.000000 
0.823129 -0.196963 0.000000 
0.630084 0.099520 0.000000 
0.629283 0.214350 0.000000 
0.983015 -0.111759 0.000000 
0.884415 0.051737 0.000000 
0.867613 0.328252 0.000000 
0.880937 0.186486 0.000000 
0.999041 0.184950 0.000000 
0.757159 0.201132 0.000000 
0.624638 0.342845 0.000000 
0.965439 0.486620 0.000000 
0.851972 0.478744 0.000000 
0.842913 0.815983 0.000000 
0.840525 0.640416 0.000000 
0.949580 0.808099 0.000000 
0.736668 0.481704 0.000000 
0.619088 0.486633 0.000000 
0.875000 1.000000 0.000000 
0.732044 0.818337 0.000000 
0.500000 0.819860 0.000000 
0.617030 0.819425 0.000000 
0.625000 1.000000 0.000000 
0.615572 0.646249 0.000000 
0.500000 0.488762 0.000000 
0.375000 1.000000 0.000000 
0.382970 0.819425 0.000000 
0.157087 0.815983 0.000000 
0.267956 0.818337 0.000000 
0.125000 1.000000 0.000000 
0.384428 0.646249 0.000000 
0.380912 0.486633 0.000000 
0.050420 0.808099 0.000000 
0.159475 0.640416 0.000000 
0.132387 0.328252 0.000000 
0.148028 0.478744 0.000000 
0.034561 0.486620 0.000000 
0.263332 0.481704 0.000000 
0.375362 0.342845 0.000000 
0.000959 0.184950 0.000000 
0.119063 0.186486 0.000000 
0.115585 0.051737 0.000000 
0.016985 -0.111759 0.000000 
0.242841 0.201132 0.000000 
0.115583 -0.219750 0.000000 
0.151167 -0.138985 0.000000 
0.093810 -0.159509 0.000000 
0.258519 -0.077588 0.000000 
0.205679 -0.112137 0.000000 
0.237139 -0.165072 0.000000 
0.180236 0.004757 0.000000 
0.188846 -0.054375 0.000000 
0.242223 0.023451 0.000000 
0.500000 -0.050436 0.000000 
0.440427 -0.050747 0.000000 
0.441411 -0.100000 0.000000 
0.436268 0.050785 0.000000 
0.438263 -0.000543 0.000000 
0.500000 0.051984 0.000000 
0.326975 -0.100000 0.000000 
0.380715 -0.052075 0.000000 
0.319921 -0.056756 0.000000 
0.436284 0.279788 0.000000 
0.435306 0.217959 0.000000 
0.500000 0.280814 0.000000 
0.304548 0.091488 0.000000 
0.369643 0.155339 0.000000 
0.304596 0.148367 0.000000 
0.500000 0.160833 0.000000 
0.434842 0.159468 0.000000 
0.435107 0.103911 0.000000 
0.311815 -0.011550 0.000000 
0.371909 0.046670 0.000000 
0.306794 0.038041 0.000000 
0.558589 -0.100000 0.000000 
0.559573 -0.050747 0.000000 
0.680079 -0.056756 0.000000 
0.619285 -0.052075 0.000000 
0.673025 -0.100000 0.000000 
0.561737 -0.000543 0.000000 
0.563732 0.050785 0.000000 
0.906190 -0.159509 0.000000 
0.848833 -0.138985 0.000000 
0.884417 -0.219750 0.000000 
0.757777 0.023451 0.000000 
0.811154 -0.054375 0.000000 
0.819764 0.004757 0.000000 
0.762861 -0.165072 0.000000 
0.794321 -0.112137 0.000000 
0.741481 -0.077588 0.000000 
0.564694 0.217959 0.000000 
0.563716 0.279788 0.000000 
0.564893 0.103911 0.000000 
0.565158 0.159468 0.000000 
0.695404 0.148367 0.000000 
0.630357 0.155339 0.000000 
0.695452 0.091488 0.000000 
0.688185 -0.011550 0.000000 
0.693206 0.038041 0.000000 
0.628091 0.046670 0.000000 
0.964239 -0.178433 0.000000 
0.925382 -0.095503 0.000000 
0.944222 0.040831 0.000000 
0.938212 -0.028391 0.000000 
0.996337 -0.039939 0.000000 
0.879425 -0.013385 0.000000 
0.823229 0.065494 0.000000 
0.926091 0.329009 0.000000 
0.934199 0.255429 0.000000 
0.992118 0.259842 0.000000 
0.814518 0.260648 0.000000 
0.874986 0.256400 0.000000 
0.808118 0.330702 0.000000 
1.003103 0.109850 0.000000 
0.940735 0.182950 0.000000 
0.944549 0.111403 0.000000 
0.627252 0.276777 0.000000 
0.562418 0.345291 0.000000 
0.759781 0.138920 0.000000 
0.693555 0.208550 0.000000 
0.686463 0.339122 0.000000 
0.690408 0.272089 0.000000 
0.752921 0.266364 0.000000 
0.884470 0.118316 0.000000 
0.819707 0.193222 0.000000 
0.822894 0.128233 0.000000 
0.974434 0.410260 0.000000 
0.917392 0.403957 0.000000 
0.901315 0.559343 0.000000 
0.908869 0.480608 0.000000 
0.957387 0.564249 0.000000 
0.859685 0.402271 0.000000 
0.801240 0.403582 0.000000 
0.909189 0.905901 0.000000 
0.896311 0.813008 0.000000 
0.959659 0.895340 0.000000 
0.785192 0.641547 0.000000 
0.839079 0.726353 0.000000 
0.784446 0.727898 0.000000 
0.947957 0.724583 0.000000 
0.893270 0.724879 0.000000 
0.895674 0.640586 0.000000 
0.621788 0.412750 0.000000 
0.560988 0.414713 0.000000 
0.742057 0.406475 0.000000 
0.682200 0.409813 0.000000 
0.674807 0.562678 0.000000 
0.678142 0.484308 0.000000 
0.732172 0.560589 0.000000 
0.845265 0.558003 0.000000 
0.788959 0.558777 0.000000 
0.794605 0.479526 0.000000 
0.937500 1.000000 0.000000 
0.854637 0.908396 0.000000 
0.739151 0.909111 0.000000 
0.797538 0.908949 0.000000 
0.812500 1.000000 0.000000 
0.788139 0.817467 0.000000 
0.728967 0.729294 0.000000 
0.500000 0.909376 0.000000 
0.560216 0.909333 0.000000 
0.562500 1.000000 0.000000 
0.557890 0.732062 0.000000 
0.558641 0.819730 0.000000 
0.500000 0.732299 0.000000 
0.687500 1.000000 0.000000 
0.620263 0.909275 0.000000 
0.679971 0.909200 0.000000 
0.559645 0.488205 0.000000 
0.500000 0.415388 0.000000 
0.672760 0.644846 0.000000 
0.616891 0.564516 0.000000 
0.500000 0.566204 0.000000 
0.558557 0.565757 0.000000 
0.557911 0.647182 0.000000 
0.674916 0.818960 0.000000 
0.615511 0.731443 0.000000 
0.672609 0.730496 0.000000 
0.437500 1.000000 0.000000 
0.439784 0.909333 0.000000 
0.320029 0.909200 0.000000 
0.379737 0.909275 0.000000 
0.312500 1.000000 0.000000 
0.441359 0.819730 0.000000 
0.442110 0.732062 0.000000 
0.090811 0.905901 0.000000 
0.145363 0.908396 0.000000 
0.062500 1.000000 0.000000 
0.271033 0.729294 0.000000 
0.211861 0.817467 0.000000 
0.215554 0.727898 0.000000 
0.187500 1.000000 0.000000 
0.202462 0.908949 0.000000 
0.260849 0.909111 0.000000 
0.440355 0.488205 0.000000 
0.439012 0.414713 0.000000 
0.442089 0.647182 0.000000 
0.441443 0.565757 0.000000 
0.325193 0.562678 0.000000 
0.383109 0.564516 0.000000 
0.327240 0.644846 0.000000 
0.325084 0.818960 0.000000 
0.327391 0.730496 0.000000 
0.384489 0.731443 0.000000 
0.040341 0.895340 0.000000 
0.103689 0.813008 0.000000 
0.104326 0.640586 0.000000 
0.106730 0.724879 0.000000 
0.052043 0.724583 0.000000 
0.160921 0.726353 0.000000 
0.214808 0.641547 0.000000 
0.073909 0.329009 0.000000 
0.082608 0.403957 0.000000 
0.025566 0.410260 0.000000 
0.198760 0.403582 0.000000 
0.140315 0.402271 0.000000 
0.191882 0.330702 0.000000 
0.042613 0.564249 0.000000 
0.091131 0.480608 0.000000 
0.098685 0.559343 0.000000 
0.378212 0.412750 0.000000 
0.437582 0.345291 0.000000 
0.267828 0.560589 0.000000 
0.321858 0.484308 0.000000 
0.313537 0.339122 0.000000 
0.317800 0.409813 0.000000 
0.257943 0.406475 0.000000 
0.154735 0.558003 0.000000 
0.205395 0.479526 0.000000 
0.211041 0.558777 0.000000 
0.007882 0.259842 0.000000 
0.065801 0.255429 0.000000 
0.055451 0.111403 0.000000 
0.059265 0.182950 0.000000 
-0.003103 0.109850 0.000000 
0.125014 0.256400 0.000000 
0.185482 0.260648 0.000000 
0.074618 -0.095503 0.000000 
0.035761 -0.178433 0.000000 
0.176771 0.065494 0.000000 
0.120575 -0.013385 0.000000 
0.003663 -0.039939 0.000000 
0.061788 -0.028391 0.000000 
0.055778 0.040831 0.000000 
0.372748 0.276777 0.000000 
0.247079 0.266364 0.000000 
0.309592 0.272089 0.000000 
0.306445 0.208550 0.000000 
0.240219 0.138920 0.000000 
0.115530 0.118316 0.000000 
0.177106 0.128233 0.000000 
0.180293 0.193222 0.000000 
0.085576 -0.229700 0.000000 
0.104786 -0.190085 0.000000 
0.075277 -0.199736 0.000000 
0.163565 -0.168631 0.000000 
0.134312 -0.179946 0.000000 
0.146087 -0.209083 0.000000 
0.112248 -0.118645 0.000000 
0.122712 -0.149766 0.000000 
0.140561 -0.108370 0.000000 
0.267434 -0.098957 0.000000 
0.244251 -0.120906 0.000000 
0.264185 -0.143097 0.000000 
0.223576 -0.068837 0.000000 
0.231755 -0.095410 0.000000 
0.252504 -0.054153 0.000000 
0.207490 -0.182606 0.000000 
0.219242 -0.139801 0.000000 
0.192094 -0.155477 0.000000 
0.208999 0.043210 0.000000 
0.210854 0.014323 0.000000 
0.240638 0.051165 0.000000 
0.160387 -0.066328 0.000000 
0.183774 -0.024978 0.000000 
0.154439 -0.035618 0.000000 
0.244651 -0.003415 0.000000 
0.213739 -0.013964 0.000000 
0.217852 -0.041676 0.000000 
0.178890 -0.126602 0.000000 
0.195898 -0.083466 0.000000 
0.168403 -0.096720 0.000000 
0.500000 -0.075391 0.000000 
0.470556 -0.075415 0.000000 
0.470672 -0.100000 0.000000 
0.469727 -0.025339 0.000000 
0.470217 -0.050503 0.000000 
0.500000 -0.025215 0.000000 
0.412278 -0.100000 0.000000 
0.441154 -0.075522 0.000000 
0.411834 -0.075733 0.000000 
0.467819 0.078072 0.000000 
0.468177 0.051687 0.000000 
0.500000 0.078402 0.000000 
0.407169 -0.001671 0.000000 
0.437184 0.024941 0.000000 
0.405539 0.023532 0.000000 
0.500000 0.025956 0.000000 
0.468640 0.025709 0.000000 
0.469175 0.000055 0.000000 
0.301012 -0.100000 0.000000 
0.324528 -0.078187 0.000000 
0.294809 -0.082532 0.000000 
0.382634 -0.076104 0.000000 
0.353569 -0.076777 0.000000 
0.354820 -0.100000 0.000000 
0.347152 -0.030381 0.000000 
0.350589 -0.053630 0.000000 
0.378250 -0.027950 0.000000 
0.439398 -0.025753 0.000000 
0.408943 -0.026553 0.000000 
0.410613 -0.051225 0.000000 
[...]
POINT_DATA 4225

SCALARS u_h float 2
LOOKUP_TABLE default
0.056005 -0.239662 
-0.056005 -0.239662 
0.000000 0.000000 
0.000000 0.000000 
0.000000 -0.100000 
-0.016447 -0.165149 
0.000000 0.000000 
0.016447 -0.165149 
0.000000 -0.153968 
0.034606 -0.114938 
0.000000 -0.144705 
-0.010178 -0.170334 
-0.034606 -0.114938 
0.010178 -0.170334 
0.002750 -0.215400 
-0.002313 -0.165244 
-0.048832 -0.106539 
-0.020685 -0.106822 
0.000000 0.000000 
-0.000000 -0.102475 
0.000000 0.000000 
0.020685 -0.106822 
0.048832 -0.106539 
0.002313 -0.165244 
-0.002750 -0.215400 
0.051871 -0.196963 
-0.001980 -0.154337 
0.006988 -0.202120 
0.000000 -0.124758 
0.000781 -0.128567 
0.008364 -0.100000 
-0.004283 -0.160650 
-0.005084 -0.150480 
0.000000 -0.155817 
-0.008364 -0.100000 
-0.000781 -0.128567 
-0.006988 -0.202120 
0.001980 -0.154337 
-0.051871 -0.196963 
0.005084 -0.150480 
0.004283 -0.160650 
-0.016985 -0.236759 
0.009415 -0.198263 
-0.007387 -0.171748 
0.005937 -0.188514 
-0.000959 -0.190050 
0.007159 -0.173868 
-0.000362 -0.157155 
-0.034561 -0.138380 
-0.023028 -0.146256 
-0.032087 -0.059017 
-0.034475 -0.109584 
-0.050420 -0.066901 
-0.013332 -0.143296 
-0.005912 -0.138367 
0.000000 0.000000 
-0.017956 -0.056663 
0.000000 -0.055140 
-0.007970 -0.055575 
0.000000 0.000000 
-0.009428 -0.103751 
0.000000 -0.136238 
0.000000 0.000000 
0.007970 -0.055575 
0.032087 -0.059017 
0.017956 -0.056663 
0.000000 0.000000 
0.009428 -0.103751 
0.005912 -0.138367 
0.050420 -0.066901 
0.034475 -0.109584 
0.007387 -0.171748 
0.023028 -0.146256 
0.034561 -0.138380 
0.013332 -0.143296 
0.000362 -0.157155 
0.000959 -0.190050 
-0.005937 -0.188514 
-0.009415 -0.198263 
0.016985 -0.236759 
-0.007159 -0.173868 
0.053083 -0.219750 
0.026167 -0.201485 
0.031310 -0.222009 
0.008519 -0.140088 
0.018179 -0.174637 
0.049639 -0.165072 
-0.007264 -0.182743 
0.001346 -0.179375 
-0.007777 -0.164049 
0.000000 -0.112936 
0.002927 -0.113247 
0.003911 -0.100000 
-0.001232 -0.136715 
0.000763 -0.125543 
0.000000 -0.135516 
0.014475 -0.100000 
0.005715 -0.114575 
0.007421 -0.119256 
-0.001216 -0.157712 
-0.002194 -0.157041 
0.000000 -0.156686 
-0.007952 -0.158512 
-0.005357 -0.157161 
-0.007904 -0.164133 
0.000000 -0.151667 
-0.002658 -0.153032 
-0.002393 -0.146089 
-0.000685 -0.136550 
-0.003091 -0.140830 
-0.005706 -0.149459 
-0.003911 -0.100000 
-0.002927 -0.113247 
-0.007421 -0.119256 
-0.005715 -0.114575 
-0.014475 -0.100000 
-0.000763 -0.125543 
0.001232 -0.136715 
-0.031310 -0.222009 
-0.026167 -0.201485 
-0.053083 -0.219750 
0.007777 -0.164049 
-0.001346 -0.179375 
0.007264 -0.182743 
-0.049639 -0.165072 
-0.018179 -0.174637 
-0.008519 -0.140088 
0.002194 -0.157041 
0.001216 -0.157712 
0.002393 -0.146089 
0.002658 -0.153032 
0.007904 -0.164133 
0.005357 -0.157161 
0.007952 -0.158512 
0.000685 -0.136550 
0.005706 -0.149459 
0.003091 -0.140830 
-0.035761 -0.240933 
-0.012118 -0.220503 
0.006722 -0.209169 
0.000712 -0.215891 
-0.003663 -0.227439 
0.004425 -0.200885 
0.010729 -0.184506 
-0.011409 -0.170991 
-0.003301 -0.182071 
-0.007882 -0.177658 
0.002018 -0.176852 
-0.000014 -0.181100 
-0.004382 -0.169298 
0.003103 -0.202650 
0.003235 -0.192050 
0.007049 -0.201097 
0.002252 -0.160723 
-0.000082 -0.154709 
0.009781 -0.173580 
0.006055 -0.166450 
-0.001037 -0.160878 
0.002908 -0.165411 
0.002921 -0.171136 
0.009470 -0.194184 
0.007207 -0.181778 
0.010394 -0.184267 
-0.025566 -0.152240 
-0.020108 -0.158543 
-0.036185 -0.128157 
-0.028631 -0.144392 
-0.042613 -0.123251 
-0.015315 -0.160229 
-0.011260 -0.158918 
-0.028311 -0.031599 
-0.041189 -0.061992 
-0.040341 -0.042160 
-0.027308 -0.108453 
-0.035921 -0.086147 
-0.028054 -0.084602 
-0.052043 -0.087917 
-0.044230 -0.087621 
-0.041826 -0.109414 
-0.003212 -0.149750 
-0.001512 -0.147787 
-0.007943 -0.156025 
-0.005300 -0.152687 
-0.012693 -0.124822 
-0.009358 -0.140692 
-0.017828 -0.126911 
-0.029735 -0.129497 
-0.023541 -0.128723 
-0.017895 -0.145474 
0.000000 0.000000 
-0.020363 -0.029104 
-0.010849 -0.028389 
-0.014962 -0.028551 
0.000000 0.000000 
-0.024361 -0.057533 
-0.021033 -0.083206 
-0.000000 -0.028124 
-0.002284 -0.028167 
0.000000 0.000000 
-0.004610 -0.080438 
-0.003859 -0.055270 
0.000000 -0.080201 
0.000000 0.000000 
-0.004737 -0.028225 
-0.007529 -0.028300 
-0.002855 -0.136795 
0.000000 -0.147112 
-0.014740 -0.105154 
-0.008109 -0.122984 
0.000000 -0.121296 
-0.003943 -0.121743 
-0.004589 -0.102818 
-0.012584 -0.056040 
-0.009489 -0.081057 
-0.014891 -0.082004 
0.000000 0.000000 
0.002284 -0.028167 
0.007529 -0.028300 
0.004737 -0.028225 
0.000000 0.000000 
0.003859 -0.055270 
0.004610 -0.080438 
0.028311 -0.031599 
0.020363 -0.029104 
0.000000 0.000000 
0.021033 -0.083206 
0.024361 -0.057533 
0.028054 -0.084602 
0.000000 0.000000 
0.014962 -0.028551 
0.010849 -0.028389 
0.002855 -0.136795 
0.001512 -0.147787 
0.004589 -0.102818 
0.003943 -0.121743 
0.012693 -0.124822 
0.008109 -0.122984 
0.014740 -0.105154 
0.012584 -0.056040 
0.014891 -0.082004 
0.009489 -0.081057 
0.040341 -0.042160 
0.041189 -0.061992 
0.041826 -0.109414 
0.044230 -0.087621 
0.052043 -0.087917 
0.035921 -0.086147 
0.027308 -0.108453 
0.011409 -0.170991 
0.020108 -0.158543 
0.025566 -0.152240 
0.011260 -0.158918 
0.015315 -0.160229 
0.004382 -0.169298 
0.042613 -0.123251 
0.028631 -0.144392 
0.036185 -0.128157 
0.003212 -0.149750 
0.000082 -0.154709 
0.017828 -0.126911 
0.009358 -0.140692 
0.001037 -0.160878 
0.005300 -0.152687 
0.007943 -0.156025 
0.029735 -0.129497 
0.017895 -0.145474 
0.023541 -0.128723 
0.007882 -0.177658 
0.003301 -0.182071 
-0.007049 -0.201097 
-0.003235 -0.192050 
-0.003103 -0.202650 
0.000014 -0.181100 
-0.002018 -0.176852 
0.012118 -0.220503 
0.035761 -0.240933 
-0.010729 -0.184506 
-0.004425 -0.200885 
0.003663 -0.227439 
-0.000712 -0.215891 
-0.006722 -0.209169 
-0.002252 -0.160723 
-0.002921 -0.171136 
-0.002908 -0.165411 
-0.006055 -0.166450 
-0.009781 -0.173580 
-0.009470 -0.194184 
-0.010394 -0.184267 
-0.007207 -0.181778 
0.054326 -0.229700 
0.042286 -0.221335 
0.044027 -0.230986 
0.038565 -0.199881 
0.040562 -0.211196 
0.052337 -0.209083 
0.018498 -0.212395 
0.028962 -0.212266 
0.015561 -0.202120 
0.017434 -0.130207 
0.025501 -0.152156 
0.045435 -0.143097 
0.004826 -0.162587 
0.013005 -0.157910 
0.002504 -0.147903 
0.051240 -0.182606 
0.031742 -0.171051 
0.035844 -0.186727 
-0.009751 -0.175540 
-0.007896 -0.173177 
-0.009362 -0.167585 
0.004137 -0.191328 
-0.003726 -0.181228 
-0.001811 -0.191868 
-0.005349 -0.159665 
-0.005011 -0.170214 
-0.000898 -0.166676 
0.022640 -0.189102 
0.008398 -0.177216 
0.012153 -0.190470 
0.000000 -0.106641 
0.001806 -0.106665 
0.001922 -0.100000 
0.000977 -0.119089 
0.001467 -0.113003 
0.000000 -0.118965 
0.006028 -0.100000 
0.003654 -0.106772 
0.005584 -0.106983 
-0.000931 -0.140678 
-0.000573 -0.135813 
0.000000 -0.140348 
0.000919 -0.126671 
-0.000316 -0.131309 
-0.000711 -0.132718 
0.000000 -0.130294 
-0.000110 -0.130541 
0.000425 -0.124945 
0.019762 -0.100000 
0.012028 -0.109437 
0.013559 -0.113782 
0.007634 -0.107354 
0.009819 -0.108027 
0.011070 -0.100000 
0.003402 -0.124131 
0.006839 -0.116130 
0.003250 -0.121700 
0.001898 -0.119503 
0.002693 -0.120303 
0.004363 -0.113725 
-0.000317 -0.155998 
-0.000622 -0.156943 
0.000000 -0.155783 
-0.003261 -0.158554 
-0.001757 -0.157817 
-0.002589 -0.159209 
0.000000 -0.156686 
-0.000888 -0.156972 
-0.001103 -0.156128 
-0.009218 -0.163994 
-0.008184 -0.161738 
-0.009375 -0.166701 
-0.005414 -0.154206 
-0.006831 -0.157559 
-0.006531 -0.154006 
-0.006122 -0.162216 
-0.006676 -0.160298 
-0.004964 -0.159318 
0.000000 -0.148504 
-0.001301 -0.148856 
-0.001173 -0.145053 
-0.001253 -0.154457 
-0.001323 -0.152013 
0.000000 -0.154126 
-0.003694 -0.147871 
-0.002629 -0.149899 
-0.004002 -0.151667 
-0.003747 -0.157052 
-0.004007 -0.154742 
-0.002504 -0.155431 
0.007268 -0.126156 
0.000245 -0.131648 
0.002996 -0.128450 
0.002268 -0.136007 
-0.001686 -0.144001 
-0.001930 -0.141670 
-0.004322 -0.146010 
-0.003051 -0.143405 
-0.002054 -0.138329 
-0.001378 -0.134989 
-0.008433 -0.160448 
-0.004732 -0.150580 
-0.006958 -0.156009 
-0.007146 -0.154433 
-0.005719 -0.149640 
-0.002358 -0.138452 
-0.004342 -0.144456 
-0.003572 -0.143526 
-0.001922 -0.100000 
-0.001806 -0.106665 
-0.005584 -0.106983 
-0.003654 -0.106772 
-0.006028 -0.100000 
-0.001467 -0.113003 
-0.000977 -0.119089 
-0.013559 -0.113782 
-0.012028 -0.109437 
-0.019762 -0.100000 
-0.003250 -0.121700 
-0.006839 -0.116130 
-0.003402 -0.124131 
-0.011070 -0.100000 
-0.009819 -0.108027 
-0.007634 -0.107354 
0.000573 -0.135813 
0.000931 -0.140678 
-0.000425 -0.124945 
0.000110 -0.130541 
0.000711 -0.132718 
0.000316 -0.131309 
-0.000919 -0.126671 
-0.004363 -0.113725 
-0.002693 -0.120303 
-0.001898 -0.119503 
-0.044027 -0.230986 
-0.042286 -0.221335 
-0.054326 -0.229700 
-0.015561 -0.202120 
-0.028962 -0.212266 
-0.018498 -0.212395 
-0.052337 -0.209083 
-0.040562 -0.211196 
-0.038565 -0.199881 
0.009362 -0.167585 
0.007896 -0.173177 
0.009751 -0.175540 
0.000898 -0.166676 
0.005011 -0.170214 
0.005349 -0.159665 
0.001811 -0.191868 
0.003726 -0.181228 
-0.004137 -0.191328 
-0.045435 -0.143097 
-0.025501 -0.152156 
-0.017434 -0.130207 
-0.035844 -0.186727 
-0.031742 -0.171051 
-0.051240 -0.182606 
-0.002504 -0.147903 
-0.013005 -0.157910 
-0.004826 -0.162587 
-0.012153 -0.190470 
-0.008398 -0.177216 
-0.022640 -0.189102 
0.000622 -0.156943 
0.000317 -0.155998 
0.001103 -0.156128 
0.000888 -0.156972 
0.002589 -0.159209 
0.001757 -0.157817 
0.003261 -0.158554 
0.001173 -0.145053 
0.001301 -0.148856 
0.004002 -0.151667 
0.002629 -0.149899 
0.003694 -0.147871 
0.001323 -0.152013 
0.001253 -0.154457 
0.009375 -0.166701 
0.008184 -0.161738 
0.009218 -0.163994 
0.004964 -0.159318 
0.006676 -0.160298 
0.006122 -0.162216 
0.006531 -0.154006 
0.006831 -0.157559 
0.005414 -0.154206 
0.002504 -0.155431 
0.004007 -0.154742 
0.003747 -0.157052 
-0.007268 -0.126156 
0.001686 -0.144001 
-0.002268 -0.136007 
-0.002996 -0.128450 
-0.000245 -0.131648 
0.008433 -0.160448 
0.005719 -0.149640 
0.007146 -0.154433 
0.006958 -0.156009 
0.004732 -0.150580 
0.001930 -0.141670 
0.001378 -0.134989 
0.002054 -0.138329 
0.003051 -0.143405 
0.004322 -0.146010 
0.003572 -0.143526 
0.004342 -0.144456 
0.002358 -0.138452 
-0.045946 -0.240839 
-0.033491 -0.231331 
-0.014478 -0.228686 
-0.023434 -0.230566 
-0.025906 -0.239596 
-0.021056 -0.221707 
-0.009660 -0.211767 
0.004924 -0.212991 
0.002622 -0.217756 
0.000389 -0.221607 
0.006182 -0.206697 
0.004518 -0.212737 
0.008215 -0.204190 
-0.009480 -0.232602 
-0.001335 -0.222088 
-0.007043 -0.225800 
0.009538 -0.183854 
0.010702 -0.177288 
-0.000383 -0.201682 
0.006032 -0.192120 
0.010277 -0.191611 
0.008786 -0.192050 
0.007627 -0.199749 
-0.004823 -0.218521 
0.002622 -0.208829 
-0.002622 -0.210542 
-0.013805 -0.168836 
-0.009479 -0.174853 
-0.012020 -0.171446 
-0.005254 -0.177208 
-0.007221 -0.176684 
-0.009269 -0.171881 
-0.004147 -0.183843 
-0.005431 -0.180679 
-0.001783 -0.186352 
-0.000224 -0.171106 
-0.001078 -0.173416 
-0.003238 -0.167383 
0.003197 -0.185036 
0.001153 -0.179265 
0.004168 -0.182613 
-0.005760 -0.170817 
-0.002190 -0.175342 
-0.003579 -0.176681 
0.003585 -0.209035 
0.005278 -0.202710 
0.005742 -0.207941 
0.001328 -0.191905 
0.003741 -0.197356 
0.001520 -0.196315 
0.007006 -0.194651 
0.005565 -0.196686 
0.004769 -0.190819 
-0.001496 -0.182120 
0.001888 -0.186649 
0.000229 -0.187184 
0.000597 -0.156688 
-0.000028 -0.154092 
0.003363 -0.161128 
0.001767 -0.158982 
-0.000185 -0.155745 
0.000831 -0.157837 
0.000995 -0.159408 
0.010294 -0.172327 
0.008966 -0.168601 
0.006716 -0.170013 
0.008058 -0.169705 
0.008710 -0.174096 
0.007173 -0.165704 
0.005228 -0.163300 
-0.001587 -0.163032 
0.000790 -0.166044 
0.000390 -0.168595 
0.001062 -0.161349 
0.001004 -0.163591 
-0.000637 -0.158889 
0.005203 -0.172887 
0.003013 -0.168199 
0.005011 -0.169516 
0.004049 -0.163531 
0.004612 -0.166357 
0.002643 -0.162889 
0.007500 -0.205269 
0.008075 -0.191557 
0.008442 -0.198156 
0.008906 -0.201338 
0.009971 -0.196414 
0.002599 -0.174077 
0.007335 -0.177855 
0.005148 -0.176319 
0.004812 -0.179631 
0.006746 -0.185413 
0.010845 -0.178406 
0.010673 -0.190760 
0.010974 -0.184655 
0.010273 -0.178882 
0.009073 -0.178704 
0.008773 -0.187688 
0.009103 -0.183316 
0.010125 -0.189462 
-0.020967 -0.158796 
-0.018255 -0.162592 
-0.027231 -0.149226 
-0.022762 -0.156073 
-0.030131 -0.145448 
-0.015733 -0.164957 
-0.013422 -0.166111 
-0.042712 -0.117630 
-0.039418 -0.126255 
-0.046015 -0.115112 
-0.025779 -0.145744 
-0.032583 -0.136559 
-0.029540 -0.137790 
-0.038757 -0.130994 
-0.035663 -0.134363 
-0.031565 -0.142005 
-0.007807 -0.164476 
-0.006364 -0.162887 
-0.011330 -0.166276 
-0.009460 -0.165666 
-0.016870 -0.153348 
-0.013193 -0.159854 
-0.019245 -0.153569 
-0.024439 -0.151703 
-0.021772 -0.153084 
-0.017621 -0.159859 
-0.020661 -0.017630 
-0.033975 -0.035308 
-0.029239 -0.026549 
-0.036494 -0.060248 
-0.036401 -0.047417 
-0.031587 -0.045418 
-0.046814 -0.055173 
-0.041662 -0.050648 
-0.045956 -0.064289 
-0.023915 -0.107666 
-0.028142 -0.096968 
-0.024592 -0.096201 
-0.035715 -0.098326 
-0.031863 -0.097694 
-0.030841 -0.109120 
-0.030706 -0.072150 
-0.031895 -0.085360 
-0.034821 -0.073032 
-0.050906 -0.097490 
-0.047330 -0.098601 
-0.045405 -0.108433 
-0.047950 -0.076668 
-0.048273 -0.088050 
-0.051995 -0.077754 
-0.038159 -0.109732 
-0.043540 -0.098941 
-0.039636 -0.098785 
-0.039152 -0.074099 
-0.040067 -0.086929 
-0.043590 -0.075348 
-0.000799 -0.151751 
-0.000394 -0.151194 
-0.001784 -0.153943 
-0.001254 -0.152680 
-0.003366 -0.143552 
-0.002325 -0.148621 
-0.004602 -0.144561 
-0.005120 -0.161062 
-0.004059 -0.159141 
-0.008972 -0.148642 
-0.006544 -0.154351 
-0.010707 -0.150110 
-0.003163 -0.157249 
-0.002412 -0.155489 
-0.016636 -0.116378 
-0.015187 -0.125864 
-0.019513 -0.117326 
-0.007576 -0.139460 
-0.011150 -0.133241 
-0.009063 -0.132144 
-0.015735 -0.135567 
-0.013371 -0.134406 
-0.011273 -0.141997 
-0.004196 -0.151126 
-0.007386 -0.147172 
-0.005935 -0.145787 
-0.039314 -0.119129 
-0.032422 -0.119958 
-0.035868 -0.119840 
-0.032945 -0.129173 
-0.026561 -0.138247 
-0.022546 -0.118235 
-0.018244 -0.136641 
-0.020615 -0.127893 
-0.025724 -0.119038 
-0.029027 -0.119647 
-0.009512 -0.157591 
-0.020395 -0.146112 
-0.014653 -0.152595 
-0.012598 -0.151468 
-0.015539 -0.144493 
-0.026590 -0.129299 
-0.020893 -0.137527 
-0.023671 -0.138108 
0.000000 0.000000 
-0.015976 -0.015149 
-0.011084 -0.014145 
-0.013137 -0.014397 
0.000000 0.000000 
-0.023880 -0.029886 
-0.027362 -0.044256 
-0.005827 -0.014109 
-0.006881 -0.014085 
0.000000 0.000000 
-0.017521 -0.042861 
-0.012785 -0.028451 
-0.014916 -0.042645 
0.000000 0.000000 
-0.008073 -0.014066 
-0.009448 -0.014072 
-0.024430 -0.083883 
-0.021232 -0.095430 
-0.028043 -0.058156 
-0.026856 -0.071417 
-0.019974 -0.070241 
-0.023282 -0.070790 
-0.021011 -0.057054 
-0.017452 -0.028734 
-0.020418 -0.043150 
-0.023671 -0.043574 
0.000000 -0.014154 
-0.000600 -0.014164 
0.000000 0.000000 
-0.001572 -0.041852 
-0.001131 -0.028145 
0.000000 -0.041821 
0.000000 0.000000 
-0.001215 -0.014167 
-0.001853 -0.014167 
-0.002328 -0.091815 
-0.002288 -0.080270 
0.000000 -0.091733 
-0.005867 -0.055402 
-0.004337 -0.068153 
-0.006589 -0.068349 
0.000000 -0.067969 
-0.002152 -0.068026 
-0.001914 -0.055183 
0.000000 0.000000 
-0.004029 -0.014147 
-0.004883 -0.014130 
-0.002527 -0.014165 
-0.003248 -0.014158 
0.000000 0.000000 
-0.008412 -0.042184 
-0.006080 -0.028261 
-0.006565 -0.042071 
-0.003172 -0.041904 
-0.004827 -0.041977 
-0.003479 -0.028194 
-0.000747 -0.147279 
0.000000 -0.151025 
-0.004346 -0.137466 
-0.002204 -0.142803 
0.000000 -0.142187 
-0.001091 -0.142343 
-0.001415 -0.136381 
-0.017628 -0.105971 
-0.013915 -0.115450 
-0.008902 -0.113831 
-0.011342 -0.114588 
-0.012013 -0.104404 
-0.010338 -0.123846 
-0.007096 -0.131171 
-0.000000 -0.112349 
-0.002152 -0.112455 
-0.002279 -0.102568 
-0.001708 -0.129399 
-0.001958 -0.121413 
0.000000 -0.129269 
-0.006962 -0.103216 
-0.004333 -0.112744 
-0.006574 -0.113208 
-0.005230 -0.130369 
-0.005985 -0.122273 
-0.003443 -0.129770 
-0.009109 -0.028341 
-0.010199 -0.055789 
-0.010399 -0.042316 
-0.012556 -0.042468 
-0.015159 -0.056330 
-0.004688 -0.092024 
-0.009639 -0.092801 
-0.007115 -0.092356 
-0.006999 -0.080702 
-0.008942 -0.068612 
-0.018067 -0.094682 
-0.016913 -0.069752 
-0.017858 -0.082578 
-0.015091 -0.093981 
-0.012289 -0.093348 
-0.011426 -0.068936 
-0.012110 -0.081494 
-0.014073 -0.069317 
0.000000 0.000000 
0.000600 -0.014164 
0.001853 -0.014167 
0.001215 -0.014167 
0.000000 0.000000 
0.001131 -0.028145 
0.001572 -0.041852 
0.004883 -0.014130 
0.004029 -0.014147 
0.000000 0.000000 
0.006565 -0.042071 
0.006080 -0.028261 
0.008412 -0.042184 
0.000000 0.000000 
0.003248 -0.014158 
0.002527 -0.014165 
0.002288 -0.080270 
0.002328 -0.091815 
0.001914 -0.055183 
0.002152 -0.068026 
0.006589 -0.068349 
0.004337 -0.068153 
0.005867 -0.055402 
0.003479 -0.028194 
0.004827 -0.041977 
0.003172 -0.041904 
0.020661 -0.017630 
0.015976 -0.015149 
0.000000 0.000000 
0.027362 -0.044256 
0.023880 -0.029886 
0.031587 -0.045418 
0.000000 0.000000 
0.013137 -0.014397 
0.011084 -0.014145 
0.021232 -0.095430 
0.024430 -0.083883 
0.024592 -0.096201 
0.021011 -0.057054 
0.023282 -0.070790 
0.019974 -0.070241 
0.030706 -0.072150 
0.026856 -0.071417 
0.028043 -0.058156 
0.000000 0.000000 
0.006881 -0.014085 
0.005827 -0.014109 
0.009448 -0.014072 
0.008073 -0.014066 
0.000000 0.000000 
0.014916 -0.042645 
0.012785 -0.028451 
0.017521 -0.042861 
0.023671 -0.043574 
0.020418 -0.043150 
0.017452 -0.028734 
0.000747 -0.147279 
0.000394 -0.151194 
0.001415 -0.136381 
0.001091 -0.142343 
0.003366 -0.143552 
0.002204 -0.142803 
0.004346 -0.137466 
0.002279 -0.102568 
0.002152 -0.112455 
0.006574 -0.113208 
0.004333 -0.112744 
0.006962 -0.103216 
0.001958 -0.121413 
0.001708 -0.129399 
0.016636 -0.116378 
0.013915 -0.115450 
0.017628 -0.105971 
0.007096 -0.131171 
0.010338 -0.123846 
0.009063 -0.132144 
0.012013 -0.104404 
0.011342 -0.114588 
0.008902 -0.113831 
0.003443 -0.129770 
0.005985 -0.122273 
0.005230 -0.130369 
0.009109 -0.028341 
0.015159 -0.056330 
0.012556 -0.042468 
0.010399 -0.042316 
0.010199 -0.055789 
0.018067 -0.094682 
0.012289 -0.093348 
0.015091 -0.093981 
0.017858 -0.082578 
0.016913 -0.069752 
0.004688 -0.092024 
0.008942 -0.068612 
0.006999 -0.080702 
0.007115 -0.092356 
0.009639 -0.092801 
0.014073 -0.069317 
0.012110 -0.081494 
0.011426 -0.068936 
0.029239 -0.026549 
0.033975 -0.035308 
0.045956 -0.064289 
0.041662 -0.050648 
0.046814 -0.055173 
0.036401 -0.047417 
0.036494 -0.060248 
0.045405 -0.108433 
0.047330 -0.098601 
0.050906 -0.097490 
0.039636 -0.098785 
0.043540 -0.098941 
0.038159 -0.109732 
0.051995 -0.077754 
0.048273 -0.088050 
0.047950 -0.076668 
0.028142 -0.096968 
0.023915 -0.107666 
0.034821 -0.073032 
0.031895 -0.085360 
0.030841 -0.109120 
0.031863 -0.097694 
0.035715 -0.098326 
0.043590 -0.075348 
0.040067 -0.086929 
0.039152 -0.074099 
0.013805 -0.168836 
0.018255 -0.162592 
0.020967 -0.158796 
0.013422 -0.166111 
0.015733 -0.164957 
0.009269 -0.171881 
0.030131 -0.145448 
0.022762 -0.156073 
0.027231 -0.149226 
0.006364 -0.162887 
0.007807 -0.164476 
0.003238 -0.167383 
0.019245 -0.153569 
0.013193 -0.159854 
0.016870 -0.153348 
0.005760 -0.170817 
0.009460 -0.165666 
0.011330 -0.166276 
0.046015 -0.115112 
0.039418 -0.126255 
0.042712 -0.117630 
0.031565 -0.142005 
0.035663 -0.134363 
0.038757 -0.130994 
0.029540 -0.137790 
0.032583 -0.136559 
0.025779 -0.145744 
0.017621 -0.159859 
0.021772 -0.153084 
0.024439 -0.151703 
0.000799 -0.151751 
0.000028 -0.154092 
0.004602 -0.144561 
0.002325 -0.148621 
0.000185 -0.155745 
0.001254 -0.152680 
0.001784 -0.153943 
0.019513 -0.117326 
0.015187 -0.125864 
0.011273 -0.141997 
0.013371 -0.134406 
0.015735 -0.135567 
0.011150 -0.133241 
0.007576 -0.139460 
0.001587 -0.163032 
0.004059 -0.159141 
0.005120 -0.161062 
0.002412 -0.155489 
0.003163 -0.157249 
0.000637 -0.158889 
0.010707 -0.150110 
0.006544 -0.154351 
0.008972 -0.148642 