# vtk DataFile Version 2.0
Unstructured Grid Example
ASCII
DATASET UNSTRUCTURED_GRID

POINTS 1089 float
0.055173 -0.243323 0.000000 
0.944827 -0.243323 0.000000 
1.000000 1.000000 0.000000 
0.000000 1.000000 0.000000 
0.500000 -0.100000 0.000000 
0.982801 0.332374 0.000000 
0.500000 1.000000 0.000000 
0.017199 0.332374 0.000000 
0.500000 0.344398 0.000000 
0.288079 -0.128695 0.000000 
0.500000 0.104284 0.000000 
0.239854 0.076250 0.000000 
0.711921 -0.128695 0.000000 
0.760146 0.076250 0.000000 
1.001525 0.031083 0.000000 
0.747583 0.332910 0.000000 
0.950780 0.642155 0.000000 
0.729212 0.642346 0.000000 
0.750000 1.000000 0.000000 
0.500000 0.646910 0.000000 
0.250000 1.000000 0.000000 
0.270788 0.642346 0.000000 
0.049220 0.642155 0.000000 
0.252417 0.332910 0.000000 
-0.001525 0.031083 0.000000 
0.175853 -0.202127 0.000000 
0.248542 -0.034772 0.000000 
0.133056 -0.081750 0.000000 
0.500000 -0.000173 0.000000 
0.375593 -0.004792 0.000000 
0.384776 -0.100000 0.000000 
0.370539 0.212613 0.000000 
0.369564 0.097741 0.000000 
0.500000 0.217810 0.000000 
0.615224 -0.100000 0.000000 
0.624407 -0.004792 0.000000 
0.866944 -0.081750 0.000000 
0.751458 -0.034772 0.000000 
0.824147 -0.202127 0.000000 
0.630436 0.097741 0.000000 
0.629461 0.212613 0.000000 
0.982708 -0.114713 0.000000 
0.883410 0.047820 0.000000 
0.867195 0.326025 0.000000 
0.880345 0.183481 0.000000 
0.998105 0.181616 0.000000 
0.757107 0.198653 0.000000 
0.624685 0.341345 0.000000 
0.964957 0.484723 0.000000 
0.851643 0.477145 0.000000 
0.842948 0.815654 0.000000 
0.840290 0.639421 0.000000 
0.949428 0.807508 0.000000 
0.736500 0.480366 0.000000 
0.619014 0.485475 0.000000 
0.875000 1.000000 0.000000 
0.732051 0.817986 0.000000 
0.500000 0.819638 0.000000 
0.617027 0.819084 0.000000 
0.625000 1.000000 0.000000 
0.615531 0.645514 0.000000 
0.500000 0.487673 0.000000 
0.375000 1.000000 0.000000 
0.382973 0.819084 0.000000 
0.157052 0.815654 0.000000 
0.267949 0.817986 0.000000 
0.125000 1.000000 0.000000 
0.384469 0.645514 0.000000 
0.380986 0.485475 0.000000 
0.050572 0.807508 0.000000 
0.159710 0.639421 0.000000 
0.132805 0.326025 0.000000 
0.148357 0.477145 0.000000 
0.035043 0.484723 0.000000 
0.263500 0.480366 0.000000 
0.375315 0.341345 0.000000 
0.001895 0.181616 0.000000 
0.119655 0.183481 0.000000 
0.116590 0.047820 0.000000 
0.017292 -0.114713 0.000000 
0.242893 0.198653 0.000000 
0.114756 -0.223902 0.000000 
0.151442 -0.143710 0.000000 
0.093593 -0.163413 0.000000 
0.260630 -0.085368 0.000000 
0.207126 -0.118365 0.000000 
0.235940 -0.172513 0.000000 
0.181138 0.000020 0.000000 
0.190224 -0.059979 0.000000 
0.242337 0.019273 0.000000 
0.500000 -0.050619 0.000000 
0.440761 -0.050946 0.000000 
0.441968 -0.100000 0.000000 
0.436092 0.049824 0.000000 
0.438258 -0.001114 0.000000 
0.500000 0.051262 0.000000 
0.330499 -0.100000 0.000000 
0.381266 -0.052554 0.000000 
0.320052 -0.058989 0.000000 
0.436185 0.278292 0.000000 
0.435177 0.216473 0.000000 
0.500000 0.279331 0.000000 
0.304228 0.088929 0.000000 
0.369380 0.153547 0.000000 
0.304385 0.146049 0.000000 
0.500000 0.159604 0.000000 
0.434674 0.158059 0.000000 
0.434905 0.102668 0.000000 
0.311374 -0.014435 0.000000 
0.371523 0.045035 0.000000 
0.306368 0.035254 0.000000 
0.558032 -0.100000 0.000000 
0.559239 -0.050946 0.000000 
0.679948 -0.058989 0.000000 
0.618734 -0.052554 0.000000 
0.669501 -0.100000 0.000000 
0.561742 -0.001114 0.000000 
0.563908 0.049824 0.000000 
0.906407 -0.163413 0.000000 
0.848558 -0.143710 0.000000 
0.885244 -0.223902 0.000000 
0.757663 0.019273 0.000000 
0.809776 -0.059979 0.000000 
0.818862 0.000020 0.000000 
0.764060 -0.172513 0.000000 
0.792874 -0.118365 0.000000 
0.739370 -0.085368 0.000000 
0.564823 0.216473 0.000000 
0.563815 0.278292 0.000000 
0.565095 0.102668 0.000000 
0.565326 0.158059 0.000000 
0.695615 0.146049 0.000000 
0.630620 0.153547 0.000000 
0.695772 0.088929 0.000000 
0.688626 -0.014435 0.000000 
0.693632 0.035254 0.000000 
0.628477 0.045035 0.000000 
0.964761 -0.181603 0.000000 
0.924731 -0.099331 0.000000 
0.943033 0.037179 0.000000 
0.937074 -0.032167 0.000000 
0.995333 -0.043156 0.000000 
0.878252 -0.017740 0.000000 
0.822634 0.061552 0.000000 
0.925504 0.326627 0.000000 
0.933553 0.252669 0.000000 
0.991323 0.256896 0.000000 
0.814252 0.258246 0.000000 
0.874516 0.253797 0.000000 
0.807869 0.328655 0.000000 
1.001980 0.106293 0.000000 
0.939935 0.179832 0.000000 
0.943535 0.107976 0.000000 
0.627362 0.275141 0.000000 
0.562462 0.343853 0.000000 
0.759748 0.136035 0.000000 
0.693678 0.206460 0.000000 
0.686462 0.337469 0.000000 
0.690462 0.270219 0.000000 
0.752844 0.264221 0.000000 
0.883689 0.114870 0.000000 
0.819389 0.190412 0.000000 
0.822475 0.124925 0.000000 
0.973877 0.408060 0.000000 
0.916917 0.401908 0.000000 
0.900944 0.557906 0.000000 
0.908457 0.478866 0.000000 
0.956948 0.562650 0.000000 
0.859318 0.400373 0.000000 
0.800986 0.401841 0.000000 
0.909531 0.906005 0.000000 
0.896274 0.812615 0.000000 
0.959716 0.895655 0.000000 
0.785032 0.640645 0.000000 
0.838945 0.725683 0.000000 
0.784375 0.727290 0.000000 
0.947655 0.723583 0.000000 
0.893048 0.724106 0.000000 
0.895356 0.639468 0.000000 
0.621742 0.411407 0.000000 
0.560951 0.413405 0.000000 
0.741901 0.404890 0.000000 
0.682116 0.408369 0.000000 
0.674706 0.561668 0.000000 
0.678030 0.483075 0.000000 
0.732023 0.559501 0.000000 
0.844974 0.556701 0.000000 
0.788744 0.557590 0.000000 
0.794361 0.478063 0.000000 
0.937500 1.000000 0.000000 
0.854770 0.908306 0.000000 
0.739147 0.908946 0.000000 
0.797567 0.908799 0.000000 
0.812500 1.000000 0.000000 
0.788166 0.817130 0.000000 
0.728928 0.728716 0.000000 
0.500000 0.909291 0.000000 
0.560219 0.909189 0.000000 
0.562500 1.000000 0.000000 
0.557881 0.731576 0.000000 
0.558641 0.819424 0.000000 
0.500000 0.731895 0.000000 
0.687500 1.000000 0.000000 
0.620258 0.909111 0.000000 
0.679961 0.909032 0.000000 
0.559600 0.487091 0.000000 
0.500000 0.414046 0.000000 
0.672694 0.644067 0.000000 
0.616825 0.563567 0.000000 
0.500000 0.565357 0.000000 
0.558520 0.564858 0.000000 
0.557888 0.646496 0.000000 
0.674913 0.818607 0.000000 
0.615495 0.730913 0.000000 
0.672585 0.729940 0.000000 
0.437500 1.000000 0.000000 
0.439781 0.909189 0.000000 
0.320039 0.909032 0.000000 
0.379742 0.909111 0.000000 
0.312500 1.000000 0.000000 
0.441359 0.819424 0.000000 
0.442119 0.731576 0.000000 
0.090469 0.906005 0.000000 
0.145230 0.908306 0.000000 
0.062500 1.000000 0.000000 
0.271072 0.728716 0.000000 
0.211834 0.817130 0.000000 
0.215625 0.727290 0.000000 
0.187500 1.000000 0.000000 
0.202433 0.908799 0.000000 
0.260853 0.908946 0.000000 
0.440400 0.487091 0.000000 
0.439049 0.413405 0.000000 
0.442112 0.646496 0.000000 
0.441480 0.564858 0.000000 
0.325294 0.561668 0.000000 
0.383175 0.563567 0.000000 
0.327306 0.644067 0.000000 
0.325087 0.818607 0.000000 
0.327415 0.729940 0.000000 
0.384505 0.730913 0.000000 
0.040284 0.895655 0.000000 
0.103726 0.812615 0.000000 
0.104644 0.639468 0.000000 
0.106952 0.724106 0.000000 
0.052345 0.723583 0.000000 
0.161055 0.725683 0.000000 
0.214968 0.640645 0.000000 
0.074496 0.326627 0.000000 
0.083083 0.401908 0.000000 
0.026123 0.408060 0.000000 
0.199014 0.401841 0.000000 
0.140682 0.400373 0.000000 
0.192131 0.328655 0.000000 
0.043052 0.562650 0.000000 
0.091543 0.478866 0.000000 
0.099056 0.557906 0.000000 
0.378258 0.411407 0.000000 
0.437538 0.343853 0.000000 
0.267977 0.559501 0.000000 
0.321970 0.483075 0.000000 
0.313538 0.337469 0.000000 
0.317884 0.408369 0.000000 
0.258099 0.404890 0.000000 
0.155026 0.556701 0.000000 
0.205639 0.478063 0.000000 
0.211256 0.557590 0.000000 
0.008677 0.256896 0.000000 
0.066447 0.252669 0.000000 
0.056465 0.107976 0.000000 
0.060065 0.179832 0.000000 
-0.001980 0.106293 0.000000 
0.125484 0.253797 0.000000 
0.185748 0.258246 0.000000 
0.075269 -0.099331 0.000000 
0.035239 -0.181603 0.000000 
0.177366 0.061552 0.000000 
0.121748 -0.017740 0.000000 
0.004667 -0.043156 0.000000 
0.062926 -0.032167 0.000000 
0.056967 0.037179 0.000000 
0.372638 0.275141 0.000000 
0.247156 0.264221 0.000000 
0.309538 0.270219 0.000000 
0.306322 0.206460 0.000000 
0.240252 0.136035 0.000000 
0.116311 0.114870 0.000000 
0.177525 0.124925 0.000000 
0.180611 0.190412 0.000000 
0.084747 -0.233503 0.000000 
0.104173 -0.194086 0.000000 
0.074585 -0.203423 0.000000 
0.163152 -0.173492 0.000000 
0.133774 -0.184326 0.000000 
0.145199 -0.213666 0.000000 
0.112722 -0.122873 0.000000 
0.122693 -0.154034 0.000000 
0.141345 -0.113051 0.000000 
0.271133 -0.108604 0.000000 
0.246248 -0.128960 0.000000 
0.263731 -0.152931 0.000000 
0.225262 -0.075424 0.000000 
0.233950 -0.102716 0.000000 
0.253574 -0.060576 0.000000 
0.206312 -0.188637 0.000000 
0.219823 -0.146347 0.000000 
0.191977 -0.161014 0.000000 
0.209403 0.039058 0.000000 
0.211408 0.009696 0.000000 
0.240692 0.047407 0.000000 
0.161669 -0.071447 0.000000 
0.184900 -0.030155 0.000000 
0.155662 -0.040510 0.000000 
0.244899 -0.008132 0.000000 
0.214534 -0.019159 0.000000 
0.219020 -0.047533 0.000000 
0.179636 -0.131955 0.000000 
0.197465 -0.089432 0.000000 
0.169579 -0.101983 0.000000 
0.500000 -0.075490 0.000000 
0.470797 -0.075489 0.000000 
0.470928 -0.100000 0.000000 
0.469814 -0.025634 0.000000 
0.470389 -0.050670 0.000000 
0.500000 -0.025501 0.000000 
0.413200 -0.100000 0.000000 
0.441651 -0.075602 0.000000 
0.412610 -0.075838 0.000000 
0.467721 0.077118 0.000000 
0.468096 0.050890 0.000000 
0.500000 0.077528 0.000000 
0.407102 -0.002477 0.000000 
0.437070 0.024165 0.000000 
0.405327 0.022486 0.000000 
0.500000 0.025391 0.000000 
0.468594 0.025082 0.000000 
0.469186 -0.000399 0.000000 
0.306967 -0.100000 0.000000 
0.325987 -0.079128 0.000000 
0.295858 -0.087232 0.000000 
0.383710 -0.076264 0.000000 
0.354933 -0.077087 0.000000 
0.356992 -0.100000 0.000000 
0.347065 -0.031930 0.000000 
0.351068 -0.054583 0.000000 
0.378352 -0.028826 0.000000 
0.439549 -0.026123 0.000000 
0.409111 -0.027090 0.000000 
0.411086 -0.051510 0.000000 
[...]
POINT_DATA 1089

SCALARS u_h float 2
LOOKUP_TABLE default
0.055173 -0.243323 
-0.055173 -0.243323 
0.000000 0.000000 
0.000000 0.000000 
-0.000000 -0.100000 
-0.017199 -0.167626 
0.000000 0.000000 
0.017199 -0.167626 
-0.000000 -0.155602 
0.038079 -0.128695 
-0.000000 -0.145716 
-0.010146 -0.173750 
-0.038079 -0.128695 
0.010146 -0.173750 
0.001525 -0.218917 
-0.002417 -0.167090 
-0.049220 -0.107845 
-0.020788 -0.107654 
0.000000 0.000000 
-0.000000 -0.103090 
0.000000 0.000000 
0.020788 -0.107654 
0.049220 -0.107845 
0.002417 -0.167090 
-0.001525 -0.218917 
0.050853 -0.202127 
-0.001458 -0.159772 
0.008056 -0.206750 
-0.000000 -0.125173 
0.000593 -0.129792 
0.009776 -0.100000 
-0.004461 -0.162387 
-0.005436 -0.152259 
-0.000000 -0.157190 
-0.009776 -0.100000 
-0.000593 -0.129792 
-0.008056 -0.206750 
0.001458 -0.159772 
-0.050853 -0.202127 
0.005436 -0.152259 
0.004461 -0.162387 
-0.017292 -0.239713 
0.008410 -0.202180 
-0.007805 -0.173975 
0.005345 -0.191519 
-0.001895 -0.193384 
0.007107 -0.176347 
-0.000315 -0.158655 
-0.035043 -0.140277 
-0.023357 -0.147855 
-0.032052 -0.059346 
-0.034710 -0.110579 
-0.050572 -0.067492 
-0.013500 -0.144634 
-0.005986 -0.139525 
0.000000 0.000000 
-0.017949 -0.057014 
0.000000 -0.055362 
-0.007973 -0.055916 
0.000000 0.000000 
-0.009469 -0.104486 
-0.000000 -0.137327 
0.000000 0.000000 
0.007973 -0.055916 
0.032052 -0.059346 
0.017949 -0.057014 
0.000000 0.000000 
0.009469 -0.104486 
0.005986 -0.139525 
0.050572 -0.067492 
0.034710 -0.110579 
0.007805 -0.173975 
0.023357 -0.147855 
0.035043 -0.140277 
0.013500 -0.144634 
0.000315 -0.158655 
0.001895 -0.193384 
-0.005345 -0.191519 
-0.008410 -0.202180 
0.017292 -0.239713 
-0.007107 -0.176347 
0.052256 -0.223902 
0.026442 -0.206210 
0.031093 -0.225913 
0.010630 -0.147868 
0.019626 -0.180865 
0.048440 -0.172513 
-0.006362 -0.187480 
0.002724 -0.184979 
-0.007663 -0.168227 
-0.000000 -0.113119 
0.003261 -0.113446 
0.004468 -0.100000 
-0.001408 -0.137676 
0.000758 -0.126114 
-0.000000 -0.136238 
0.017999 -0.100000 
0.006266 -0.115054 
0.007552 -0.121489 
-0.001315 -0.159208 
-0.002323 -0.158527 
-0.000000 -0.158169 
-0.008272 -0.161071 
-0.005620 -0.158953 
-0.008115 -0.166451 
-0.000000 -0.152896 
-0.002826 -0.154441 
-0.002595 -0.147332 
-0.001126 -0.139435 
-0.003477 -0.142465 
-0.006132 -0.152246 
-0.004468 -0.100000 
-0.003261 -0.113446 
-0.007552 -0.121489 
-0.006266 -0.115054 
-0.017999 -0.100000 
-0.000758 -0.126114 
0.001408 -0.137676 
-0.031093 -0.225913 
-0.026442 -0.206210 
-0.052256 -0.223902 
0.007663 -0.168227 
-0.002724 -0.184979 
0.006362 -0.187480 
-0.048440 -0.172513 
-0.019626 -0.180865 
-0.010630 -0.147868 
0.002323 -0.158527 
0.001315 -0.159208 
0.002595 -0.147332 
0.002826 -0.154441 
0.008115 -0.166451 
0.005620 -0.158953 
0.008272 -0.161071 
0.001126 -0.139435 
0.006132 -0.152246 
0.003477 -0.142465 
-0.035239 -0.244103 
-0.012769 -0.224331 
0.005533 -0.212821 
-0.000426 -0.219667 
-0.004667 -0.230656 
0.003252 -0.205240 
0.010134 -0.188448 
-0.011996 -0.173373 
-0.003947 -0.184831 
-0.008677 -0.180604 
0.001752 -0.179254 
-0.000484 -0.183703 
-0.004631 -0.171345 
0.001980 -0.206207 
0.002435 -0.195168 
0.006035 -0.204524 
0.002362 -0.162359 
-0.000038 -0.156147 
0.009748 -0.176465 
0.006178 -0.168540 
-0.001038 -0.162531 
0.002962 -0.167281 
0.002844 -0.173279 
0.008689 -0.197630 
0.006889 -0.184588 
0.009975 -0.187575 
-0.026123 -0.154440 
-0.020583 -0.160592 
-0.036556 -0.129594 
-0.029043 -0.146134 
-0.043052 -0.124850 
-0.015682 -0.162127 
-0.011514 -0.160659 
-0.027969 -0.031495 
-0.041226 -0.062385 
-0.040284 -0.041845 
-0.027468 -0.109355 
-0.036055 -0.086817 
-0.028125 -0.085210 
-0.052345 -0.088917 
-0.044452 -0.088394 
-0.042144 -0.110532 
-0.003258 -0.151093 
-0.001549 -0.149095 
-0.008099 -0.157610 
-0.005384 -0.154131 
-0.012794 -0.125832 
-0.009470 -0.141925 
-0.017977 -0.127999 
-0.030026 -0.130799 
-0.023756 -0.129910 
-0.018139 -0.146937 
0.000000 0.000000 
-0.020230 -0.029194 
-0.010853 -0.028554 
-0.014933 -0.028701 
0.000000 0.000000 
-0.024334 -0.057870 
-0.021072 -0.083784 
0.000000 -0.028209 
-0.002281 -0.028311 
0.000000 0.000000 
-0.004619 -0.080924 
-0.003859 -0.055576 
-0.000000 -0.080605 
0.000000 0.000000 
-0.004742 -0.028389 
-0.007539 -0.028468 
-0.002900 -0.137909 
-0.000000 -0.148454 
-0.014806 -0.105933 
-0.008175 -0.123933 
-0.000000 -0.122143 
-0.003980 -0.122642 
-0.004612 -0.103504 
-0.012587 -0.056393 
-0.009505 -0.081587 
-0.014915 -0.082560 
0.000000 0.000000 
0.002281 -0.028311 
0.007539 -0.028468 
0.004742 -0.028389 
0.000000 0.000000 
0.003859 -0.055576 
0.004619 -0.080924 
0.027969 -0.031495 
0.020230 -0.029194 
0.000000 0.000000 
0.021072 -0.083784 
0.024334 -0.057870 
0.028125 -0.085210 
0.000000 0.000000 
0.014933 -0.028701 
0.010853 -0.028554 
0.002900 -0.137909 
0.001549 -0.149095 
0.004612 -0.103504 
0.003980 -0.122642 
0.012794 -0.125832 
0.008175 -0.123933 
0.014806 -0.105933 
0.012587 -0.056393 
0.014915 -0.082560 
0.009505 -0.081587 
0.040284 -0.041845 
0.041226 -0.062385 
0.042144 -0.110532 
0.044452 -0.088394 
0.052345 -0.088917 
0.036055 -0.086817 
0.027468 -0.109355 
0.011996 -0.173373 
0.020583 -0.160592 
0.026123 -0.154440 
0.011514 -0.160659 
0.015682 -0.162127 
0.004631 -0.171345 
0.043052 -0.124850 
0.029043 -0.146134 
0.036556 -0.129594 
0.003258 -0.151093 
0.000038 -0.156147 
0.017977 -0.127999 
0.009470 -0.141925 
0.001038 -0.162531 
0.005384 -0.154131 
0.008099 -0.157610 
0.030026 -0.130799 
0.018139 -0.146937 
0.023756 -0.129910 
0.008677 -0.180604 
0.003947 -0.184831 
-0.006035 -0.204524 
-0.002435 -0.195168 
-0.001980 -0.206207 
0.000484 -0.183703 
-0.001752 -0.179254 
0.012769 -0.224331 
0.035239 -0.244103 
-0.010134 -0.188448 
-0.003252 -0.205240 
0.004667 -0.230656 
0.000426 -0.219667 
-0.005533 -0.212821 
-0.002362 -0.162359 
-0.002844 -0.173279 
-0.002962 -0.167281 
-0.006178 -0.168540 
-0.009748 -0.176465 
-0.008689 -0.197630 
-0.009975 -0.187575 
-0.006889 -0.184588 
0.053497 -0.233503 
0.041673 -0.225336 
0.043335 -0.234673 
0.038152 -0.204742 
0.040024 -0.215576 
0.051449 -0.213666 
0.018972 -0.216623 
0.028943 -0.216534 
0.016345 -0.206801 
0.021133 -0.139854 
0.027498 -0.160210 
0.044981 -0.152931 
0.006512 -0.169174 
0.015200 -0.165216 
0.003574 -0.154326 
0.050062 -0.188637 
0.032323 -0.177597 
0.035727 -0.192264 
-0.009347 -0.179692 
-0.007342 -0.177804 
-0.009308 -0.171343 
0.005419 -0.196447 
-0.002600 -0.186405 
-0.000588 -0.196760 
-0.005101 -0.164382 
-0.004216 -0.175409 
0.000270 -0.172533 
0.023386 -0.194455 
0.009965 -0.183182 
0.013329 -0.195733 
-0.000000 -0.106740 
0.002047 -0.106739 
0.002178 -0.100000 
0.001064 -0.119384 
0.001639 -0.113170 
-0.000000 -0.119251 
0.006950 -0.100000 
0.004151 -0.106852 
0.006360 -0.107088 
-0.001029 -0.141632 
-0.000654 -0.136610 
-0.000000 -0.141222 
0.000852 -0.127477 
-0.000430 -0.132085 
-0.000923 -0.133764 
-0.000000 -0.130859 
-0.000156 -0.131168 
0.000436 -0.125399 
0.025717 -0.100000 
0.013487 -0.110378 
0.014608 -0.118482 
0.008710 -0.107514 
0.011183 -0.108337 
0.013242 -0.100000 
0.003315 -0.125680 
0.007318 -0.117083 
0.003352 -0.122576 
0.002049 -0.119873 
0.002861 -0.120840 
0.004836 -0.114010 
-0.000379 -0.157488 
-0.000685 -0.158418 
-0.000000 -0.157330 
-0.003426 -0.160149 
-0.001869 -0.159315 
-0.002727 -0.160790 
-0.000000 -0.158115 
-0.000954 -0.158421 
-0.001174 -0.157539 
-0.009408 -0.166983 
-0.008448 -0.164175 
-0.009527 -0.169488 
-0.005723 -0.156003 
-0.007144 -0.159660 
-0.006899 -0.156153 
-0.006331 -0.164193 
-0.006934 -0.162341 
-0.005182 -0.161089 
-0.000000 -0.149633 
-0.001399 -0.150058 
-0.001275 -0.146143 
-0.001333 -0.155817 
-0.001413 -0.153305 
-0.000000 -0.155434 
-0.003984 -0.149345 
-0.002818 -0.151238 
-0.004265 -0.153206 
-0.003943 -0.158646 
-0.004236 -0.156319 
-0.002651 -0.156887 
0.007392 -0.130965 
-0.000104 -0.133556 
0.002685 -0.131196 
0.002115 -0.140457 
-0.001933 -0.148085 
-0.002131 -0.142788 
-0.004705 -0.147740 
-0.003353 -0.144780 
-0.002337 -0.139564 
-0.001712 -0.136463 
-0.008660 -0.163664 
-0.005001 -0.154338 
-0.007214 -0.159479 
-0.007522 -0.157111 
-0.006137 -0.151812 
-0.002800 -0.140540 
-0.004792 -0.146617 
-0.004028 -0.146395 
-0.002178 -0.100000 
-0.002047 -0.106739 
-0.006360 -0.107088 
-0.004151 -0.106852 
-0.006950 -0.100000 
-0.001639 -0.113170 
-0.001064 -0.119384 
-0.014608 -0.118482 
-0.013487 -0.110378 
-0.025717 -0.100000 
-0.003352 -0.122576 
-0.007318 -0.117083 
-0.003315 -0.125680 
-0.013242 -0.100000 
-0.011183 -0.108337 
-0.008710 -0.107514 
0.000654 -0.136610 
0.001029 -0.141632 
-0.000436 -0.125399 
0.000156 -0.131168 
0.000923 -0.133764 
0.000430 -0.132085 
-0.000852 -0.127477 
-0.004836 -0.114010 
-0.002861 -0.120840 
-0.002049 -0.119873 
-0.043335 -0.234673 
-0.041673 -0.225336 
-0.053497 -0.233503 
-0.016345 -0.206801 
-0.028943 -0.216534 
-0.018972 -0.216623 
-0.051449 -0.213666 
-0.040024 -0.215576 
-0.038152 -0.204742 
0.009308 -0.171343 
0.007342 -0.177804 
0.009347 -0.179692 
-0.000270 -0.172533 
0.004216 -0.175409 
0.005101 -0.164382 
0.000588 -0.196760 
0.002600 -0.186405 
-0.005419 -0.196447 
-0.044981 -0.152931 
-0.027498 -0.160210 
-0.021133 -0.139854 
-0.035727 -0.192264 
-0.032323 -0.177597 
-0.050062 -0.188637 
-0.003574 -0.154326 
-0.015200 -0.165216 
-0.006512 -0.169174 
-0.013329 -0.195733 
-0.009965 -0.183182 
-0.023386 -0.194455 
0.000685 -0.158418 
0.000379 -0.157488 
0.001174 -0.157539 
0.000954 -0.158421 
0.002727 -0.160790 
0.001869 -0.159315 
0.003426 -0.160149 
0.001275 -0.146143 
0.001399 -0.150058 
0.004265 -0.153206 
0.002818 -0.151238 
0.003984 -0.149345 
0.001413 -0.153305 
0.001333 -0.155817 
0.009527 -0.169488 
0.008448 -0.164175 
0.009408 -0.166983 
0.005182 -0.161089 
0.006934 -0.162341 
0.006331 -0.164193 
0.006899 -0.156153 
0.007144 -0.159660 
0.005723 -0.156003 
0.002651 -0.156887 
0.004236 -0.156319 
0.003943 -0.158646 
-0.007392 -0.130965 
0.001933 -0.148085 
-0.002115 -0.140457 
-0.002685 -0.131196 
0.000104 -0.133556 
0.008660 -0.163664 
0.006137 -0.151812 
0.007522 -0.157111 
0.007214 -0.159479 
0.005001 -0.154338 
0.002131 -0.142788 
0.001712 -0.136463 
0.002337 -0.139564 
0.003353 -0.144780 
0.004705 -0.147740 
0.004028 -0.146395 
0.004792 -0.146617 
0.002800 -0.140540 
-0.045202 -0.244280 
-0.033111 -0.234899 
-0.014962 -0.232132 
-0.023482 -0.234048 
-0.025767 -0.242584 
-0.021296 -0.225560 
-0.010504 -0.215970 
0.003701 -0.216533 
0.001417 -0.221286 
-0.000782 -0.224996 
0.005003 -0.210639 
0.003311 -0.216464 
0.007096 -0.207981 
-0.010189 -0.235653 
-0.002420 -0.225582 
-0.007888 -0.229257 
0.008812 -0.188174 
0.010389 -0.181041 
-0.001559 -0.206203 
0.004933 -0.196726 
0.009446 -0.195594 
0.007825 -0.196344 
0.006522 -0.203895 
-0.005780 -0.222328 
0.001450 -0.212894 
-0.003694 -0.214695 
-0.014475 -0.171282 
-0.010159 -0.177500 
-0.012780 -0.174163 
-0.005777 -0.179704 
-0.007825 -0.179257 
-0.009772 -0.174189 
-0.005003 -0.186997 
-0.006153 -0.183523 
-0.002570 -0.189382 
-0.000392 -0.173214 
-0.001332 -0.175636 
-0.003410 -0.169330 
0.002675 -0.187836 
0.000784 -0.181776 
0.003761 -0.185324 
-0.006093 -0.172957 
-0.002536 -0.177664 
-0.004015 -0.179094 
0.002387 -0.212610 
0.004198 -0.206158 
0.004570 -0.211458 
0.000454 -0.195102 
0.002766 -0.200696 
0.000491 -0.199788 
0.006201 -0.197904 
0.004662 -0.199967 
0.004062 -0.193882 
-0.002059 -0.184804 
0.001263 -0.189522 
-0.000483 -0.190127 
0.000676 -0.158163 
-0.000001 -0.155570 
0.003506 -0.162819 
0.001879 -0.160532 
-0.000134 -0.157197 
0.000915 -0.159343 
0.001073 -0.160979 
0.010267 -0.175457 
0.009081 -0.171206 
0.006766 -0.172298 
0.008138 -0.172144 
0.008669 -0.176766 
0.007337 -0.167907 
0.005393 -0.165204 
-0.001633 -0.164779 
0.000765 -0.167919 
0.000300 -0.170587 
0.001121 -0.163007 
0.001029 -0.165353 
-0.000608 -0.160458 
0.005139 -0.175192 
0.003010 -0.170204 
0.005034 -0.171657 
0.004175 -0.165358 
0.004699 -0.168336 
0.002734 -0.164633 
0.006384 -0.208821 
0.007395 -0.194777 
0.007527 -0.201596 
0.007881 -0.204958 
0.009079 -0.200094 
0.002433 -0.176355 
0.007157 -0.180514 
0.004979 -0.178779 
0.004525 -0.182228 
0.006286 -0.188337 
0.010591 -0.181823 
0.009959 -0.194446 
0.010479 -0.188260 
0.010055 -0.182011 
0.008880 -0.181583 
0.008244 -0.190844 
0.008741 -0.186361 
0.009512 -0.192872 
-0.021594 -0.161137 
-0.018837 -0.164871 
-0.027709 -0.151196 
-0.023282 -0.158196 
-0.030643 -0.147498 
-0.016258 -0.167166 
-0.013883 -0.168246 
-0.043097 -0.118988 
-0.039826 -0.127769 
-0.046431 -0.116564 
-0.026150 -0.147413 
-0.032974 -0.138150 
-0.029892 -0.139308 
-0.039216 -0.132741 
-0.036090 -0.136030 
-0.032014 -0.143824 
-0.008061 -0.166365 
-0.006555 -0.164688 
-0.011722 -0.168333 
-0.009782 -0.167640 
-0.017168 -0.155021 
-0.013504 -0.161674 
-0.019592 -0.155316 
-0.024878 -0.153598 
-0.022167 -0.154905 
-0.018045 -0.161833 
-0.019903 -0.016904 
-0.033785 -0.035244 
-0.029313 -0.025390 
-0.036486 -0.060600 
-0.036295 -0.047600 
-0.031439 -0.045573 
-0.046863 -0.055427 
-0.041621 -0.050856 
-0.046047 -0.064735 
-0.024044 -0.108530 
-0.028262 -0.097723 
-0.024684 -0.096927 
-0.035907 -0.099161 
-0.032016 -0.098485 
-0.031036 -0.110066 
-0.030738 -0.072626 
-0.031993 -0.085994 
-0.034879 -0.073531 
-0.051257 -0.098648 
-0.047649 -0.099633 
-0.045763 -0.109633 
-0.048143 -0.077329 
-0.048540 -0.088905 
-0.052232 -0.078574 
-0.038435 -0.110783 
-0.043818 -0.099890 
-0.039870 -0.099671 
-0.039249 -0.074636 
-0.040243 -0.087644 
-0.043733 -0.075936 
-0.000810 -0.153133 
-0.000417 -0.152611 
-0.001793 -0.155367 
-0.001259 -0.154069 
-0.003422 -0.144780 
-0.002364 -0.149936 
-0.004669 -0.145815 
-0.005255 -0.162775 
-0.004146 -0.160769 
-0.009104 -0.150039 
-0.006659 -0.155863 
-0.010873 -0.151571 
-0.003214 -0.158798 
-0.002437 -0.156968 
-0.016741 -0.117304 
-0.015310 -0.126910 
-0.019642 -0.118286 
-0.007667 -0.140651 
-0.011260 -0.134364 
-0.009153 -0.133230 
-0.015898 -0.136781 
-0.013505 -0.135571 
-0.011411 -0.143280 
-0.004257 -0.152514 
-0.007490 -0.148512 
-0.006018 -0.147078 
-0.039662 -0.120409 
-0.032689 -0.121109 
-0.036175 -0.121051 
-0.033276 -0.130540 
-0.026872 -0.139698 
-0.022704 -0.119236 
-0.018439 -0.137908 
-0.020796 -0.129028 
-0.025915 -0.120083 
-0.029255 -0.120743 
-0.009714 -0.159254 
-0.020681 -0.147641 
-0.014904 -0.154195 
-0.012805 -0.152997 
-0.015743 -0.145891 
-0.026842 -0.130541 
-0.021125 -0.138852 
-0.023942 -0.139494 
0.000000 0.000000 
-0.015717 -0.014957 
-0.011063 -0.014180 
-0.013053 -0.014370 
0.000000 0.000000 
-0.023647 -0.029899 
-0.027241 -0.044437 
-0.005842 -0.014189 
-0.006896 -0.014162 
0.000000 0.000000 
-0.017497 -0.043108 
-0.012777 -0.028612 
-0.014908 -0.042899 
0.000000 0.000000 
-0.008085 -0.014139 
-0.009450 -0.014133 
-0.024481 -0.084473 
-0.021303 -0.096133 
-0.028006 -0.058485 
-0.026874 -0.071882 
-0.019985 -0.070699 
-0.023294 -0.071251 
-0.020995 -0.057399 
-0.017384 -0.028864 
-0.020371 -0.043383 
-0.023590 -0.043785 
0.000000 -0.014191 
-0.000596 -0.014222 
0.000000 0.000000 
-0.001570 -0.042047 
-0.001127 -0.028268 
0.000000 -0.041968 
0.000000 0.000000 
-0.001212 -0.014237 
-0.001854 -0.014243 
-0.002336 -0.092365 
-0.002293 -0.080721 
-0.000000 -0.092240 
-0.005869 -0.055729 
-0.004341 -0.068546 
-0.006595 -0.068766 
-0.000000 -0.068278 
-0.002154 -0.068384 
-0.001914 -0.055456 
0.000000 0.000000 
-0.004041 -0.014228 
-0.004897 -0.014211 
-0.002532 -0.014243 
-0.003257 -0.014239 
0.000000 0.000000 
-0.008417 -0.042440 
-0.006088 -0.028428 
-0.006568 -0.042321 
-0.003171 -0.042127 
-0.004828 -0.042217 
-0.003480 -0.028350 
-0.000775 -0.148599 
-0.000000 -0.152508 
-0.004406 -0.138598 
-0.002248 -0.144019 
-0.000000 -0.143400 
-0.001118 -0.143555 
-0.001441 -0.137482 
-0.017710 -0.106775 
-0.014000 -0.116345 
-0.008957 -0.114673 
-0.011411 -0.115455 
-0.012065 -0.105161 
-0.010420 -0.124824 
-0.007169 -0.132226 
-0.000000 -0.113079 
-0.002168 -0.113218 
-0.002291 -0.103223 
-0.001731 -0.130386 
-0.001978 -0.122288 
-0.000000 -0.130236 
-0.006994 -0.103928 
-0.004363 -0.113536 
-0.006616 -0.114026 
-0.005288 -0.131398 
-0.006036 -0.123197 
-0.003484 -0.130777 
-0.009118 -0.028509 
-0.010202 -0.056137 
-0.010403 -0.042575 
-0.012556 -0.042726 
-0.015158 -0.056683 
-0.004704 -0.092607 
-0.009666 -0.093432 
-0.007136 -0.092965 
-0.007012 -0.081214 
-0.008949 -0.069045 
-0.018123 -0.095366 
-0.016923 -0.070208 
-0.017889 -0.083144 
-0.015135 -0.094648 
-0.012324 -0.093997 
-0.011434 -0.069380 
-0.012130 -0.082038 
-0.014082 -0.069768 
0.000000 0.000000 
0.000596 -0.014222 
0.001854 -0.014243 
0.001212 -0.014237 
0.000000 0.000000 
0.001127 -0.028268 
0.001570 -0.042047 
0.004897 -0.014211 
0.004041 -0.014228 
0.000000 0.000000 
0.006568 -0.042321 
0.006088 -0.028428 
0.008417 -0.042440 
0.000000 0.000000 
0.003257 -0.014239 
0.002532 -0.014243 
0.002293 -0.080721 
0.002336 -0.092365 
0.001914 -0.055456 
0.002154 -0.068384 
0.006595 -0.068766 
0.004341 -0.068546 
0.005869 -0.055729 
0.003480 -0.028350 
0.004828 -0.042217 
0.003171 -0.042127 
0.019903 -0.016904 
0.015717 -0.014957 
0.000000 0.000000 
0.027241 -0.044437 
0.023647 -0.029899 
0.031439 -0.045573 
0.000000 0.000000 
0.013053 -0.014370 
0.011063 -0.014180 
0.021303 -0.096133 
0.024481 -0.084473 
0.024684 -0.096927 
0.020995 -0.057399 
0.023294 -0.071251 
0.019985 -0.070699 
0.030738 -0.072626 
0.026874 -0.071882 
0.028006 -0.058485 
0.000000 0.000000 
0.006896 -0.014162 
0.005842 -0.014189 
0.009450 -0.014133 
0.008085 -0.014139 
0.000000 0.000000 
0.014908 -0.042899 
0.012777 -0.028612 
0.017497 -0.043108 
0.023590 -0.043785 
0.020371 -0.043383 
0.017384 -0.028864 
0.000775 -0.148599 
0.000417 -0.152611 
0.001441 -0.137482 
0.001118 -0.143555 
0.003422 -0.144780 
0.002248 -0.144019 
0.004406 -0.138598 
0.002291 -0.103223 
0.002168 -0.113218 
0.006616 -0.114026 
0.004363 -0.113536 
0.006994 -0.103928 
0.001978 -0.122288 
0.001731 -0.130386 
0.016741 -0.117304 
0.014000 -0.116345 
0.017710 -0.106775 
0.007169 -0.132226 
0.010420 -0.124824 
0.009153 -0.133230 
0.012065 -0.105161 
0.011411 -0.115455 
0.008957 -0.114673 
0.003484 -0.130777 
0.006036 -0.123197 
0.005288 -0.131398 
0.009118 -0.028509 
0.015158 -0.056683 
0.012556 -0.042726 
0.010403 -0.042575 
0.010202 -0.056137 
0.018123 -0.095366 
0.012324 -0.093997 
0.015135 -0.094648 
0.017889 -0.083144 
0.016923 -0.070208 
0.004704 -0.092607 
0.008949 -0.069045 
0.007012 -0.081214 
0.007136 -0.092965 
0.009666 -0.093432 
0.014082 -0.069768 
0.012130 -0.082038 
0.011434 -0.069380 
0.029313 -0.025390 
0.033785 -0.035244 
0.046047 -0.064735 
0.041621 -0.050856 
0.046863 -0.055427 
0.036295 -0.047600 
0.036486 -0.060600 
0.045763 -0.109633 
0.047649 -0.099633 
0.051257 -0.098648 
0.039870 -0.099671 
0.043818 -0.099890 
0.038435 -0.110783 
0.052232 -0.078574 
0.048540 -0.088905 
0.048143 -0.077329 
0.028262 -0.097723 
0.024044 -0.108530 
0.034879 -0.073531 
0.031993 -0.085994 
0.031036 -0.110066 
0.032016 -0.098485 
0.035907 -0.099161 
0.043733 -0.075936 
0.040243 -0.087644 
0.039249 -0.074636 
0.014475 -0.171282 
0.018837 -0.164871 
0.021594 -0.161137 
0.013883 -0.168246 
0.016258 -0.167166 
0.009772 -0.174189 
0.030643 -0.147498 
0.023282 -0.158196 
0.027709 -0.151196 
0.006555 -0.164688 
0.008061 -0.166365 
0.003410 -0.169330 
0.019592 -0.155316 
0.013504 -0.161674 
0.017168 -0.155021 
0.006093 -0.172957 
0.009782 -0.167640 
0.011722 -0.168333 
0.046431 -0.116564 
0.039826 -0.127769 
0.043097 -0.118988 
0.032014 -0.143824 
0.036090 -0.136030 
0.039216 -0.132741 
0.029892 -0.139308 
0.032974 -0.138150 
0.026150 -0.147413 
0.018045 -0.161833 
0.022167 -0.154905 
0.024878 -0.153598 
0.000810 -0.153133 
0.000001 -0.155570 
0.004669 -0.145815 
0.002364 -0.149936 
0.000134 -0.157197 
0.001259 -0.154069 
0.001793 -0.155367 
0.019642 -0.118286 
0.015310 -0.126910 
0.011411 -0.143280 
0.013505 -0.135571 
0.015898 -0.136781 
0.011260 -0.134364 
0.007667 -0.140651 
0.001633 -0.164779 
0.004146 -0.160769 
0.005255 -0.162775 
0.002437 -0.156968 
0.003214 -0.158798 
0.000608 -0.160458 
0.010873 -0.151571 
0.006659 -0.155863 