# vtk DataFile Version 2.0
Unstructured Grid Example
ASCII
DATASET UNSTRUCTURED_GRID

POINTS 16641 float
0.056158 -0.237500 0.000000 
0.943842 -0.237500 0.000000 
1.000000 1.000000 0.000000 
0.000000 1.000000 0.000000 
0.500000 -0.100000 0.000000 
0.983864 0.336187 0.000000 
0.500000 1.000000 0.000000 
0.016136 0.336187 0.000000 
0.500000 0.346834 0.000000 
0.280578 -0.106569 0.000000 
0.500000 0.105813 0.000000 
0.239839 0.081422 0.000000 
0.719422 -0.106569 0.000000 
0.760161 0.081422 0.000000 
1.003381 0.036661 0.000000 
0.747700 0.335773 0.000000 
0.951409 0.644118 0.000000 
0.729379 0.643665 0.000000 
0.750000 1.000000 0.000000 
0.500000 0.647910 0.000000 
0.250000 1.000000 0.000000 
0.270621 0.643665 0.000000 
0.048591 0.644118 0.000000 
0.252300 0.335773 0.000000 
-0.003381 0.036661 0.000000 
0.177103 -0.194064 0.000000 
0.247867 -0.026715 0.000000 
0.131302 -0.074546 0.000000 
0.500000 0.000456 0.000000 
0.375821 -0.002991 0.000000 
0.382782 -0.100000 0.000000 
0.370819 0.215251 0.000000 
0.370085 0.100409 0.000000 
0.500000 0.219886 0.000000 
0.617218 -0.100000 0.000000 
0.624179 -0.002991 0.000000 
0.868698 -0.074546 0.000000 
0.752133 -0.026715 0.000000 
0.822897 -0.194064 0.000000 
0.629915 0.100409 0.000000 
0.629181 0.215251 0.000000 
0.983395 -0.109892 0.000000 
0.884883 0.053860 0.000000 
0.867760 0.329479 0.000000 
0.881161 0.188116 0.000000 
0.999444 0.186769 0.000000 
0.757142 0.202451 0.000000 
0.624600 0.343649 0.000000 
0.965686 0.487605 0.000000 
0.852117 0.479632 0.000000 
0.842966 0.816201 0.000000 
0.840668 0.640979 0.000000 
0.949739 0.808426 0.000000 
0.736729 0.482459 0.000000 
0.619106 0.487275 0.000000 
0.875000 1.000000 0.000000 
0.732072 0.818555 0.000000 
0.500000 0.820031 0.000000 
0.617042 0.819631 0.000000 
0.625000 1.000000 0.000000 
0.615595 0.646679 0.000000 
0.500000 0.489359 0.000000 
0.375000 1.000000 0.000000 
0.382958 0.819631 0.000000 
0.157034 0.816201 0.000000 
0.267928 0.818555 0.000000 
0.125000 1.000000 0.000000 
0.384405 0.646679 0.000000 
0.380894 0.487275 0.000000 
0.050261 0.808426 0.000000 
0.159332 0.640979 0.000000 
0.132240 0.329479 0.000000 
0.147883 0.479632 0.000000 
0.034314 0.487605 0.000000 
0.263271 0.482459 0.000000 
0.375400 0.343649 0.000000 
0.000556 0.186769 0.000000 
0.118839 0.188116 0.000000 
0.115117 0.053860 0.000000 
0.016605 -0.109892 0.000000 
0.242858 0.202451 0.000000 
0.115754 -0.217352 0.000000 
0.150774 -0.136333 0.000000 
0.093651 -0.157239 0.000000 
0.257716 -0.073828 0.000000 
0.204673 -0.108740 0.000000 
0.237452 -0.160982 0.000000 
0.179822 0.007231 0.000000 
0.188109 -0.051388 0.000000 
0.242205 0.025544 0.000000 
0.500000 -0.050345 0.000000 
0.440259 -0.050638 0.000000 
0.441157 -0.100000 0.000000 
0.436340 0.051258 0.000000 
0.438246 -0.000259 0.000000 
0.500000 0.052354 0.000000 
0.325699 -0.100000 0.000000 
0.380418 -0.051835 0.000000 
0.319733 -0.055852 0.000000 
0.436332 0.280559 0.000000 
0.435372 0.218718 0.000000 
0.500000 0.281558 0.000000 
0.304713 0.092793 0.000000 
0.369781 0.156253 0.000000 
0.304722 0.149571 0.000000 
0.500000 0.161463 0.000000 
0.434927 0.160180 0.000000 
0.435202 0.104530 0.000000 
0.311974 -0.010188 0.000000 
0.372072 0.047464 0.000000 
0.306987 0.039427 0.000000 
0.558843 -0.100000 0.000000 
0.559741 -0.050638 0.000000 
0.680267 -0.055852 0.000000 
0.619582 -0.051835 0.000000 
0.674301 -0.100000 0.000000 
0.561754 -0.000259 0.000000 
0.563660 0.051258 0.000000 
0.906349 -0.157239 0.000000 
0.849226 -0.136333 0.000000 
0.884246 -0.217352 0.000000 
0.757795 0.025544 0.000000 
0.811891 -0.051388 0.000000 
0.820178 0.007231 0.000000 
0.762548 -0.160982 0.000000 
0.795327 -0.108740 0.000000 
0.742284 -0.073828 0.000000 
0.564628 0.218718 0.000000 
0.563668 0.280559 0.000000 
0.564798 0.104530 0.000000 
0.565073 0.160180 0.000000 
0.695278 0.149571 0.000000 
0.630219 0.156253 0.000000 
0.695287 0.092793 0.000000 
0.688026 -0.010188 0.000000 
0.693013 0.039427 0.000000 
0.627928 0.047464 0.000000 
0.964253 -0.176488 0.000000 
0.925901 -0.093283 0.000000 
0.944810 0.042891 0.000000 
0.938865 -0.026225 0.000000 
0.996960 -0.037958 0.000000 
0.880047 -0.011000 0.000000 
0.823472 0.067555 0.000000 
0.926316 0.330314 0.000000 
0.934450 0.256938 0.000000 
0.992446 0.261430 0.000000 
0.814593 0.261953 0.000000 
0.875153 0.257821 0.000000 
0.808192 0.331831 0.000000 
1.003622 0.111847 0.000000 
0.941062 0.184662 0.000000 
0.944999 0.113305 0.000000 
0.627184 0.277639 0.000000 
0.562390 0.346038 0.000000 
0.759758 0.140431 0.000000 
0.693467 0.209653 0.000000 
0.686438 0.340024 0.000000 
0.690353 0.273091 0.000000 
0.752916 0.267524 0.000000 
0.884796 0.120179 0.000000 
0.819805 0.194727 0.000000 
0.823044 0.129981 0.000000 
0.974691 0.411426 0.000000 
0.917593 0.405075 0.000000 
0.901512 0.560119 0.000000 
0.909064 0.481553 0.000000 
0.957634 0.565065 0.000000 
0.859827 0.403323 0.000000 
0.801327 0.404554 0.000000 
0.909122 0.905931 0.000000 
0.896407 0.813245 0.000000 
0.959673 0.895373 0.000000 
0.785291 0.642070 0.000000 
0.839195 0.726745 0.000000 
0.784522 0.728265 0.000000 
0.948174 0.725082 0.000000 
0.893437 0.725307 0.000000 
0.895867 0.641192 0.000000 
0.621787 0.413482 0.000000 
0.560988 0.415407 0.000000 
0.742099 0.407360 0.000000 
0.682211 0.410614 0.000000 
0.674849 0.563255 0.000000 
0.678175 0.485001 0.000000 
0.732241 0.561213 0.000000 
0.845414 0.558730 0.000000 
0.789063 0.559452 0.000000 
0.794703 0.480349 0.000000 
0.937500 1.000000 0.000000 
0.854625 0.908478 0.000000 
0.739167 0.909214 0.000000 
0.797551 0.909048 0.000000 
0.812500 1.000000 0.000000 
0.788176 0.817685 0.000000 
0.729016 0.729642 0.000000 
0.500000 0.909452 0.000000 
0.560218 0.909427 0.000000 
0.562500 1.000000 0.000000 
0.557898 0.732360 0.000000 
0.558646 0.819923 0.000000 
0.500000 0.732574 0.000000 
0.687500 1.000000 0.000000 
0.620270 0.909374 0.000000 
0.679984 0.909303 0.000000 
0.559654 0.488816 0.000000 
0.500000 0.416079 0.000000 
0.672799 0.645302 0.000000 
0.616915 0.565056 0.000000 
0.500000 0.566699 0.000000 
0.558568 0.566270 0.000000 
0.557922 0.647589 0.000000 
0.674936 0.819173 0.000000 
0.615529 0.731760 0.000000 
0.672639 0.730828 0.000000 
0.437500 1.000000 0.000000 
0.439782 0.909427 0.000000 
0.320016 0.909303 0.000000 
0.379730 0.909374 0.000000 
0.312500 1.000000 0.000000 
0.441354 0.819923 0.000000 
0.442102 0.732360 0.000000 
0.090878 0.905931 0.000000 
0.145375 0.908478 0.000000 
0.062500 1.000000 0.000000 
0.270984 0.729642 0.000000 
0.211824 0.817685 0.000000 
0.215478 0.728265 0.000000 
0.187500 1.000000 0.000000 
0.202449 0.909048 0.000000 
0.260833 0.909214 0.000000 
0.440346 0.488816 0.000000 
0.439012 0.415407 0.000000 
0.442078 0.647589 0.000000 
0.441432 0.566270 0.000000 
0.325151 0.563255 0.000000 
0.383085 0.565056 0.000000 
0.327201 0.645302 0.000000 
0.325064 0.819173 0.000000 
0.327361 0.730828 0.000000 
0.384471 0.731760 0.000000 
0.040327 0.895373 0.000000 
0.103593 0.813245 0.000000 
0.104133 0.641192 0.000000 
0.106563 0.725307 0.000000 
0.051826 0.725082 0.000000 
0.160805 0.726745 0.000000 
0.214709 0.642070 0.000000 
0.073684 0.330314 0.000000 
0.082407 0.405075 0.000000 
0.025309 0.411426 0.000000 
0.198673 0.404554 0.000000 
0.140173 0.403323 0.000000 
0.191808 0.331831 0.000000 
0.042366 0.565065 0.000000 
0.090936 0.481553 0.000000 
0.098488 0.560119 0.000000 
0.378213 0.413482 0.000000 
0.437610 0.346038 0.000000 
0.267759 0.561213 0.000000 
0.321825 0.485001 0.000000 
0.313562 0.340024 0.000000 
0.317789 0.410614 0.000000 
0.257901 0.407360 0.000000 
0.154586 0.558730 0.000000 
0.205297 0.480349 0.000000 
0.210937 0.559452 0.000000 
0.007554 0.261430 0.000000 
0.065550 0.256938 0.000000 
0.055001 0.113305 0.000000 
0.058938 0.184662 0.000000 
-0.003622 0.111847 0.000000 
0.124847 0.257821 0.000000 
0.185407 0.261953 0.000000 
0.074099 -0.093283 0.000000 
0.035747 -0.176488 0.000000 
0.176528 0.067555 0.000000 
0.119953 -0.011000 0.000000 
0.003040 -0.037958 0.000000 
0.061135 -0.026225 0.000000 
0.055190 0.042891 0.000000 
0.372816 0.277639 0.000000 
0.247084 0.267524 0.000000 
0.309647 0.273091 0.000000 
0.306533 0.209653 0.000000 
0.240242 0.140431 0.000000 
0.115204 0.120179 0.000000 
0.176956 0.129981 0.000000 
0.180195 0.194727 0.000000 
0.085748 -0.227470 0.000000 
0.104820 -0.187763 0.000000 
0.075352 -0.197564 0.000000 
0.163492 -0.165898 0.000000 
0.134304 -0.177444 0.000000 
0.146276 -0.206473 0.000000 
0.111786 -0.116237 0.000000 
0.122460 -0.147329 0.000000 
0.139957 -0.105752 0.000000 
0.265309 -0.094003 0.000000 
0.242722 -0.116530 0.000000 
0.264150 -0.137508 0.000000 
0.222724 -0.065394 0.000000 
0.230429 -0.091476 0.000000 
0.252163 -0.051097 0.000000 
0.207781 -0.179268 0.000000 
0.218629 -0.136242 0.000000 
0.191872 -0.152419 0.000000 
0.208847 0.045336 0.000000 
0.210634 0.016676 0.000000 
0.240644 0.053074 0.000000 
0.159630 -0.063534 0.000000 
0.183222 -0.022256 0.000000 
0.153780 -0.032976 0.000000 
0.244587 -0.001094 0.000000 
0.213406 -0.011327 0.000000 
0.217326 -0.038679 0.000000 
0.178256 -0.123648 0.000000 
0.194961 -0.080238 0.000000 
0.167619 -0.093825 0.000000 
0.500000 -0.075345 0.000000 
0.470442 -0.075374 0.000000 
0.470552 -0.100000 0.000000 
0.469678 -0.025185 0.000000 
0.470131 -0.050413 0.000000 
0.500000 -0.025069 0.000000 
0.411875 -0.100000 0.000000 
0.440922 -0.075475 0.000000 
0.411474 -0.075669 0.000000 
0.467864 0.078550 0.000000 
0.468211 0.052086 0.000000 
0.500000 0.078849 0.000000 
0.407167 -0.001281 0.000000 
0.437221 0.025323 0.000000 
0.405613 0.024036 0.000000 
0.500000 0.026246 0.000000 
0.468654 0.026023 0.000000 
0.469161 0.000285 0.000000 
0.298472 -0.100000 0.000000 
0.323788 -0.077814 0.000000 
0.294265 -0.081053 0.000000 
0.382136 -0.076006 0.000000 
0.352927 -0.076609 0.000000 
0.353989 -0.100000 0.000000 
0.347114 -0.029686 0.000000 
0.350290 -0.053199 0.000000 
0.378149 -0.027537 0.000000 
0.439309 -0.025563 0.000000 
0.408832 -0.026286 0.000000 
0.410369 -0.051072 0.000000 
[...]
POINT_DATA 16641

SCALARS u_h float 2
LOOKUP_TABLE default
0.056158 -0.237500 
-0.056158 -0.237500 
0.000000 0.000000 
0.000000 0.000000 
-0.000000 -0.100000 
-0.016136 -0.163813 
0.000000 0.000000 
0.016136 -0.163813 
-0.000000 -0.153166 
0.030578 -0.106569 
-0.000000 -0.144187 
-0.010161 -0.168578 
-0.030578 -0.106569 
0.010161 -0.168578 
0.003381 -0.213339 
-0.002300 -0.164227 
-0.048591 -0.105882 
-0.020621 -0.106335 
0.000000 0.000000 
-0.000000 -0.102090 
0.000000 0.000000 
0.020621 -0.106335 
0.048591 -0.105882 
0.002300 -0.164227 
-0.003381 -0.213339 
0.052103 -0.194064 
-0.002133 -0.151715 
0.006302 -0.199546 
-0.000000 -0.124544 
0.000821 -0.127991 
0.007782 -0.100000 
-0.004181 -0.159749 
-0.004915 -0.149591 
-0.000000 -0.155114 
-0.007782 -0.100000 
-0.000821 -0.127991 
-0.006302 -0.199546 
0.002133 -0.151715 
-0.052103 -0.194064 
0.004915 -0.149591 
0.004181 -0.159749 
-0.016605 -0.234892 
0.009883 -0.196140 
-0.007240 -0.170521 
0.006161 -0.186884 
-0.000556 -0.188231 
0.007142 -0.172549 
-0.000400 -0.156351 
-0.034314 -0.137395 
-0.022883 -0.145368 
-0.032034 -0.058799 
-0.034332 -0.109021 
-0.050261 -0.066574 
-0.013271 -0.142541 
-0.005894 -0.137725 
0.000000 0.000000 
-0.017928 -0.056445 
-0.000000 -0.054969 
-0.007958 -0.055369 
0.000000 0.000000 
-0.009405 -0.103321 
-0.000000 -0.135641 
0.000000 0.000000 
0.007958 -0.055369 
0.032034 -0.058799 
0.017928 -0.056445 
0.000000 0.000000 
0.009405 -0.103321 
0.005894 -0.137725 
0.050261 -0.066574 
0.034332 -0.109021 
0.007240 -0.170521 
0.022883 -0.145368 
0.034314 -0.137395 
0.013271 -0.142541 
0.000400 -0.156351 
0.000556 -0.188231 
-0.006161 -0.186884 
-0.009883 -0.196140 
0.016605 -0.234892 
-0.007142 -0.172549 
0.053254 -0.217352 
0.025774 -0.198833 
0.031151 -0.219739 
0.007716 -0.136328 
0.017173 -0.171240 
0.049952 -0.160982 
-0.007678 -0.180269 
0.000609 -0.176388 
-0.007795 -0.161956 
-0.000000 -0.112845 
0.002759 -0.113138 
0.003657 -0.100000 
-0.001160 -0.136242 
0.000746 -0.125259 
-0.000000 -0.135146 
0.013199 -0.100000 
0.005418 -0.114335 
0.007233 -0.118352 
-0.001168 -0.156941 
-0.002128 -0.156282 
-0.000000 -0.155942 
-0.007787 -0.157207 
-0.005219 -0.156247 
-0.007778 -0.162929 
-0.000000 -0.151037 
-0.002573 -0.152320 
-0.002298 -0.145470 
-0.000526 -0.135188 
-0.002928 -0.140036 
-0.005513 -0.148073 
-0.003657 -0.100000 
-0.002759 -0.113138 
-0.007233 -0.118352 
-0.005418 -0.114335 
-0.013199 -0.100000 
-0.000746 -0.125259 
0.001160 -0.136242 
-0.031151 -0.219739 
-0.025774 -0.198833 
-0.053254 -0.217352 
0.007795 -0.161956 
-0.000609 -0.176388 
0.007678 -0.180269 
-0.049952 -0.160982 
-0.017173 -0.171240 
-0.007716 -0.136328 
0.002128 -0.156282 
0.001168 -0.156941 
0.002298 -0.145470 
0.002573 -0.152320 
0.007778 -0.162929 
0.005219 -0.156247 
0.007787 -0.157207 
0.000526 -0.135188 
0.005513 -0.148073 
0.002928 -0.140036 
-0.035747 -0.238988 
-0.011599 -0.218283 
0.007310 -0.207109 
0.001365 -0.213725 
-0.003040 -0.225458 
0.005047 -0.198500 
0.010972 -0.182445 
-0.011184 -0.169686 
-0.003050 -0.180562 
-0.007554 -0.176070 
0.002093 -0.175547 
0.000153 -0.179679 
-0.004308 -0.168169 
0.003622 -0.200653 
0.003562 -0.190338 
0.007499 -0.199195 
0.002184 -0.159861 
-0.000110 -0.153962 
0.009758 -0.172069 
0.005967 -0.165347 
-0.001062 -0.159976 
0.002853 -0.164409 
0.002916 -0.169976 
0.009796 -0.192321 
0.007305 -0.180273 
0.010544 -0.182519 
-0.025309 -0.151074 
-0.019907 -0.157425 
-0.035988 -0.127381 
-0.028436 -0.143447 
-0.042366 -0.122435 
-0.015173 -0.159177 
-0.011173 -0.157946 
-0.028378 -0.031569 
-0.041093 -0.061755 
-0.040327 -0.042127 
-0.027209 -0.107930 
-0.035805 -0.085755 
-0.027978 -0.084235 
-0.051826 -0.087418 
-0.044063 -0.087193 
-0.041633 -0.108808 
-0.003213 -0.149018 
-0.001512 -0.147093 
-0.007901 -0.155140 
-0.005289 -0.151886 
-0.012651 -0.124245 
-0.009325 -0.139999 
-0.017759 -0.126287 
-0.029586 -0.128770 
-0.023437 -0.128048 
-0.017797 -0.144651 
0.000000 0.000000 
-0.020375 -0.029022 
-0.010833 -0.028286 
-0.014949 -0.028452 
0.000000 0.000000 
-0.024324 -0.057315 
-0.020984 -0.082858 
0.000000 -0.028048 
-0.002282 -0.028073 
0.000000 0.000000 
-0.004602 -0.080140 
-0.003854 -0.055077 
-0.000000 -0.079926 
0.000000 0.000000 
-0.004730 -0.028126 
-0.007516 -0.028197 
-0.002846 -0.136184 
-0.000000 -0.146421 
-0.014701 -0.104698 
-0.008085 -0.122444 
-0.000000 -0.120801 
-0.003932 -0.121230 
-0.004578 -0.102411 
-0.012564 -0.055827 
-0.009471 -0.080740 
-0.014861 -0.081672 
0.000000 0.000000 
0.002282 -0.028073 
0.007516 -0.028197 
0.004730 -0.028126 
0.000000 0.000000 
0.003854 -0.055077 
0.004602 -0.080140 
0.028378 -0.031569 
0.020375 -0.029022 
0.000000 0.000000 
0.020984 -0.082858 
0.024324 -0.057315 
0.027978 -0.084235 
0.000000 0.000000 
0.014949 -0.028452 
0.010833 -0.028286 
0.002846 -0.136184 
0.001512 -0.147093 
0.004578 -0.102411 
0.003932 -0.121230 
0.012651 -0.124245 
0.008085 -0.122444 
0.014701 -0.104698 
0.012564 -0.055827 
0.014861 -0.081672 
0.009471 -0.080740 
0.040327 -0.042127 
0.041093 -0.061755 
0.041633 -0.108808 
0.044063 -0.087193 
0.051826 -0.087418 
0.035805 -0.085755 
0.027209 -0.107930 
0.011184 -0.169686 
0.019907 -0.157425 
0.025309 -0.151074 
0.011173 -0.157946 
0.015173 -0.159177 
0.004308 -0.168169 
0.042366 -0.122435 
0.028436 -0.143447 
0.035988 -0.127381 
0.003213 -0.149018 
0.000110 -0.153962 
0.017759 -0.126287 
0.009325 -0.139999 
0.001062 -0.159976 
0.005289 -0.151886 
0.007901 -0.155140 
0.029586 -0.128770 
0.017797 -0.144651 
0.023437 -0.128048 
0.007554 -0.176070 
0.003050 -0.180562 
-0.007499 -0.199195 
-0.003562 -0.190338 
-0.003622 -0.200653 
-0.000153 -0.179679 
-0.002093 -0.175547 
0.011599 -0.218283 
0.035747 -0.238988 
-0.010972 -0.182445 
-0.005047 -0.198500 
0.003040 -0.225458 
-0.001365 -0.213725 
-0.007310 -0.207109 
-0.002184 -0.159861 
-0.002916 -0.169976 
-0.002853 -0.164409 
-0.005967 -0.165347 
-0.009758 -0.172069 
-0.009796 -0.192321 
-0.010544 -0.182519 
-0.007305 -0.180273 
0.054498 -0.227470 
0.042320 -0.219013 
0.044102 -0.228814 
0.038492 -0.197148 
0.040554 -0.208694 
0.052526 -0.206473 
0.018036 -0.209987 
0.028710 -0.209829 
0.014957 -0.199502 
0.015309 -0.125253 
0.023972 -0.147780 
0.045400 -0.137508 
0.003974 -0.159144 
0.011679 -0.153976 
0.002163 -0.144847 
0.051531 -0.179268 
0.031129 -0.167492 
0.035622 -0.183669 
-0.009903 -0.173414 
-0.008116 -0.170824 
-0.009356 -0.165676 
0.003380 -0.188534 
-0.004278 -0.178506 
-0.002470 -0.189226 
-0.005413 -0.157344 
-0.005344 -0.167577 
-0.001424 -0.163679 
0.022006 -0.186148 
0.007461 -0.173988 
0.011369 -0.187575 
-0.000000 -0.106595 
0.001692 -0.106624 
0.001802 -0.100000 
0.000928 -0.118935 
0.001381 -0.112913 
-0.000000 -0.118819 
0.005625 -0.100000 
0.003422 -0.106725 
0.005224 -0.106919 
-0.000886 -0.140200 
-0.000539 -0.135414 
-0.000000 -0.139901 
0.000917 -0.126281 
-0.000279 -0.130927 
-0.000637 -0.132214 
-0.000000 -0.130004 
-0.000096 -0.130227 
0.000411 -0.124715 
0.017222 -0.100000 
0.011288 -0.109064 
0.013015 -0.112303 
0.007136 -0.107256 
0.009177 -0.107859 
0.010239 -0.100000 
0.003364 -0.123436 
0.006540 -0.115699 
0.003149 -0.121287 
0.001809 -0.119313 
0.002582 -0.120036 
0.004119 -0.113572 
-0.000290 -0.155243 
-0.000593 -0.156193 
-0.000000 -0.155018 
-0.003172 -0.157733 
-0.001700 -0.157047 
-0.002514 -0.158391 
-0.000000 -0.155960 
-0.000857 -0.156233 
-0.001067 -0.155408 
-0.009107 -0.162457 
-0.008038 -0.160483 
-0.009277 -0.165256 
-0.005258 -0.153299 
-0.006668 -0.156487 
-0.006349 -0.152923 
-0.006000 -0.161190 
-0.006533 -0.159246 
-0.004844 -0.158407 
-0.000000 -0.147924 
-0.001253 -0.148249 
-0.001125 -0.144505 
-0.001213 -0.153764 
-0.001279 -0.151358 
-0.000000 -0.153455 
-0.003557 -0.147138 
-0.002537 -0.149227 
-0.003872 -0.150894 
-0.003643 -0.156237 
-0.003889 -0.153943 
-0.002428 -0.154690 
0.007208 -0.124117 
0.000351 -0.130762 
0.003060 -0.127224 
0.002331 -0.133937 
-0.001578 -0.142021 
-0.001840 -0.141117 
-0.004148 -0.145157 
-0.002916 -0.142728 
-0.001937 -0.137728 
-0.001255 -0.134285 
-0.008312 -0.158811 
-0.004607 -0.148717 
-0.006831 -0.154262 
-0.006964 -0.153082 
-0.005523 -0.148558 
-0.002185 -0.137452 
-0.004145 -0.143398 
-0.003381 -0.142128 
-0.001802 -0.100000 
-0.001692 -0.106624 
-0.005224 -0.106919 
-0.003422 -0.106725 
-0.005625 -0.100000 
-0.001381 -0.112913 
-0.000928 -0.118935 
-0.013015 -0.112303 
-0.011288 -0.109064 
-0.017222 -0.100000 
-0.003149 -0.121287 
-0.006540 -0.115699 
-0.003364 -0.123436 
-0.010239 -0.100000 
-0.009177 -0.107859 
-0.007136 -0.107256 
0.000539 -0.135414 
0.000886 -0.140200 
-0.000411 -0.124715 
0.000096 -0.130227 
0.000637 -0.132214 
0.000279 -0.130927 
-0.000917 -0.126281 
-0.004119 -0.113572 
-0.002582 -0.120036 
-0.001809 -0.119313 
-0.044102 -0.228814 
-0.042320 -0.219013 
-0.054498 -0.227470 
-0.014957 -0.199502 
-0.028710 -0.209829 
-0.018036 -0.209987 
-0.052526 -0.206473 
-0.040554 -0.208694 
-0.038492 -0.197148 
0.009356 -0.165676 
0.008116 -0.170824 
0.009903 -0.173414 
0.001424 -0.163679 
0.005344 -0.167577 
0.005413 -0.157344 
0.002470 -0.189226 
0.004278 -0.178506 
-0.003380 -0.188534 
-0.045400 -0.137508 
-0.023972 -0.147780 
-0.015309 -0.125253 
-0.035622 -0.183669 
-0.031129 -0.167492 
-0.051531 -0.179268 
-0.002163 -0.144847 
-0.011679 -0.153976 
-0.003974 -0.159144 
-0.011369 -0.187575 
-0.007461 -0.173988 
-0.022006 -0.186148 
0.000593 -0.156193 
0.000290 -0.155243 
0.001067 -0.155408 
0.000857 -0.156233 
0.002514 -0.158391 
0.001700 -0.157047 
0.003172 -0.157733 
0.001125 -0.144505 
0.001253 -0.148249 
0.003872 -0.150894 
0.002537 -0.149227 
0.003557 -0.147138 
0.001279 -0.151358 
0.001213 -0.153764 
0.009277 -0.165256 
0.008038 -0.160483 
0.009107 -0.162457 
0.004844 -0.158407 
0.006533 -0.159246 
0.006000 -0.161190 
0.006349 -0.152923 
0.006668 -0.156487 
0.005258 -0.153299 
0.002428 -0.154690 
0.003889 -0.153943 
0.003643 -0.156237 
-0.007208 -0.124117 
0.001578 -0.142021 
-0.002331 -0.133937 
-0.003060 -0.127224 
-0.000351 -0.130762 
0.008312 -0.158811 
0.005523 -0.148558 
0.006964 -0.153082 
0.006831 -0.154262 
0.004607 -0.148717 
0.001840 -0.141117 
0.001255 -0.134285 
0.001937 -0.137728 
0.002916 -0.142728 
0.004148 -0.145157 
0.003381 -0.142128 
0.004145 -0.143398 
0.002185 -0.137452 
-0.046050 -0.238773 
-0.033407 -0.229210 
-0.014025 -0.226622 
-0.023158 -0.228483 
-0.025714 -0.237723 
-0.020698 -0.219466 
-0.009062 -0.209384 
0.005541 -0.210953 
0.003274 -0.215696 
0.001040 -0.219570 
0.006787 -0.204504 
0.005156 -0.210618 
0.008756 -0.202094 
-0.008947 -0.230688 
-0.000689 -0.220023 
-0.006462 -0.223738 
0.009853 -0.181601 
0.010809 -0.175349 
0.000295 -0.199187 
0.006582 -0.189653 
0.010645 -0.189492 
0.009238 -0.189761 
0.008174 -0.197491 
-0.004205 -0.216323 
0.003272 -0.206553 
-0.001968 -0.208201 
-0.013539 -0.167504 
-0.009209 -0.173414 
-0.011709 -0.169982 
-0.005061 -0.175841 
-0.006989 -0.175278 
-0.009083 -0.170612 
-0.003788 -0.182136 
-0.005142 -0.179131 
-0.001461 -0.184697 
-0.000189 -0.169953 
-0.001005 -0.172201 
-0.003197 -0.166309 
0.003387 -0.183513 
0.001274 -0.177898 
0.004305 -0.181146 
-0.005651 -0.169637 
-0.002078 -0.174070 
-0.003426 -0.175358 
0.004167 -0.206989 
0.005768 -0.200778 
0.006300 -0.205946 
0.001695 -0.190147 
0.004165 -0.195506 
0.001977 -0.194397 
0.007339 -0.192872 
0.005949 -0.194876 
0.005048 -0.189146 
-0.001286 -0.180653 
0.002126 -0.185080 
0.000512 -0.185573 
0.000557 -0.155924 
-0.000043 -0.153346 
0.003279 -0.160243 
0.001705 -0.158173 
-0.000221 -0.154975 
0.000782 -0.157045 
0.000942 -0.158572 
0.010272 -0.170702 
0.008881 -0.167240 
0.006656 -0.168801 
0.007985 -0.168422 
0.008689 -0.172685 
0.007067 -0.164552 
0.005126 -0.162304 
-0.001596 -0.162074 
0.000769 -0.165026 
0.000394 -0.167508 
0.001013 -0.160459 
0.000965 -0.162639 
-0.000672 -0.158040 
0.005191 -0.171650 
0.002979 -0.167118 
0.004964 -0.168371 
0.003966 -0.162568 
0.004542 -0.165305 
0.002577 -0.161960 
0.008022 -0.203283 
0.008344 -0.189813 
0.008839 -0.196270 
0.009374 -0.199345 
0.010364 -0.194424 
0.002632 -0.172842 
0.007372 -0.176436 
0.005181 -0.174996 
0.004895 -0.178230 
0.006908 -0.183838 
0.010924 -0.176626 
0.010972 -0.188797 
0.011164 -0.182760 
0.010331 -0.177239 
0.009118 -0.177179 
0.008970 -0.185995 
0.009223 -0.181696 
0.010368 -0.187641 
-0.020694 -0.157541 
-0.018011 -0.161358 
-0.027008 -0.148172 
-0.022532 -0.154930 
-0.029882 -0.144374 
-0.015522 -0.163748 
-0.013245 -0.164935 
-0.042490 -0.116916 
-0.039196 -0.125457 
-0.045770 -0.114377 
-0.025609 -0.144826 
-0.032387 -0.135699 
-0.029369 -0.136954 
-0.038510 -0.130096 
-0.035441 -0.133481 
-0.031344 -0.141037 
-0.007727 -0.163427 
-0.006312 -0.161887 
-0.011187 -0.165139 
-0.009349 -0.164571 
-0.016753 -0.152414 
-0.013080 -0.158841 
-0.019103 -0.152600 
-0.024243 -0.150673 
-0.021603 -0.152083 
-0.017450 -0.158772 
-0.020905 -0.017815 
-0.034021 -0.035294 
-0.029357 -0.027039 
-0.036424 -0.060024 
-0.036372 -0.047283 
-0.031573 -0.045285 
-0.046711 -0.054956 
-0.041601 -0.050505 
-0.045828 -0.064030 
-0.023835 -0.107162 
-0.028052 -0.096523 
-0.024519 -0.095771 
-0.035582 -0.097848 
-0.031753 -0.097233 
-0.030721 -0.108578 
-0.030635 -0.071854 
-0.031801 -0.084982 
-0.034731 -0.072727 
-0.050674 -0.096912 
-0.047120 -0.098056 
-0.045187 -0.107803 
-0.047782 -0.076306 
-0.048079 -0.087594 
-0.051801 -0.077338 
-0.037991 -0.109148 
-0.043357 -0.098422 
-0.039478 -0.098287 
-0.039040 -0.073782 
-0.039927 -0.086521 
-0.043450 -0.075014 
-0.000808 -0.151026 
-0.000394 -0.150469 
-0.001801 -0.153173 
-0.001269 -0.151939 
-0.003359 -0.142883 
-0.002327 -0.147913 
-0.004592 -0.143872 
-0.005091 -0.160112 
-0.004050 -0.158242 
-0.008936 -0.147859 
-0.006519 -0.153510 
-0.010654 -0.149289 
-0.003168 -0.156398 
-0.002426 -0.154681 
-0.016582 -0.115842 
-0.015133 -0.125264 
-0.019445 -0.116770 
-0.007552 -0.138794 
-0.011111 -0.132605 
-0.009034 -0.131531 
-0.015669 -0.134877 
-0.013320 -0.133743 
-0.011228 -0.141274 
-0.004193 -0.150363 
-0.007362 -0.146424 
-0.005920 -0.145071 
-0.039117 -0.118438 
-0.032275 -0.119313 
-0.035696 -0.119171 
-0.032772 -0.128421 
-0.026414 -0.137439 
-0.022461 -0.117658 
-0.018161 -0.135921 
-0.020530 -0.127244 
-0.025621 -0.118438 
-0.028902 -0.119024 
-0.009449 -0.156662 
-0.020274 -0.145255 
-0.014560 -0.151697 
-0.012527 -0.150609 
-0.015461 -0.143703 
-0.026464 -0.128597 
-0.020791 -0.136777 
-0.023547 -0.137329 
0.000000 0.000000 
-0.016075 -0.015169 
-0.011087 -0.014102 
-0.013166 -0.014367 
0.000000 0.000000 
-0.023921 -0.029826 
-0.027350 -0.044116 
-0.005816 -0.014059 
-0.006869 -0.014036 
0.000000 0.000000 
-0.017499 -0.042704 
-0.012768 -0.028350 
-0.014895 -0.042486 
0.000000 0.000000 
-0.008063 -0.014018 
-0.009441 -0.014025 
-0.024369 -0.083526 
-0.021174 -0.095013 
-0.028000 -0.057939 
-0.026798 -0.071127 
-0.019936 -0.069959 
-0.023235 -0.070505 
-0.020979 -0.056836 
-0.017447 -0.028641 
-0.020397 -0.042996 
-0.023654 -0.043426 
0.000000 -0.014119 
-0.000601 -0.014121 
0.000000 0.000000 
-0.001570 -0.041718 
-0.001130 -0.028057 
-0.000000 -0.041700 
0.000000 0.000000 
-0.001214 -0.014121 
-0.001851 -0.014120 
-0.002323 -0.091473 
-0.002284 -0.079982 
-0.000000 -0.091403 
-0.005859 -0.055201 
-0.004330 -0.067907 
-0.006579 -0.068095 
-0.000000 -0.067748 
-0.002149 -0.067790 
-0.001911 -0.054999 
0.000000 0.000000 
-0.004020 -0.014097 
-0.004873 -0.014081 
-0.002523 -0.014116 
-0.003242 -0.014109 
0.000000 0.000000 
-0.008399 -0.042029 
-0.006070 -0.028160 
-0.006555 -0.041918 
-0.003168 -0.041761 
-0.004821 -0.041828 
-0.003475 -0.028096 
-0.000745 -0.146590 
-0.000000 -0.150286 
-0.004333 -0.136842 
-0.002199 -0.142148 
-0.000000 -0.141542 
-0.001087 -0.141695 
-0.001411 -0.135779 
-0.017577 -0.105500 
-0.013873 -0.114933 
-0.008878 -0.113345 
-0.011310 -0.114088 
-0.011983 -0.103962 
-0.010306 -0.123289 
-0.007074 -0.130578 
-0.000000 -0.111909 
-0.002146 -0.112005 
-0.002273 -0.102172 
-0.001703 -0.128845 
-0.001952 -0.120911 
-0.000000 -0.128722 
-0.006946 -0.102798 
-0.004322 -0.112284 
-0.006557 -0.112736 
-0.005214 -0.129792 
-0.005967 -0.121748 
-0.003432 -0.129207 
-0.009094 -0.028238 
-0.010183 -0.055579 
-0.010383 -0.042159 
-0.012537 -0.042310 
-0.015135 -0.056114 
-0.004679 -0.091671 
-0.009618 -0.092428 
-0.007100 -0.091993 
-0.006987 -0.080394 
-0.008927 -0.068351 
-0.018021 -0.094277 
-0.016882 -0.069475 
-0.017820 -0.082238 
-0.015055 -0.093588 
-0.012261 -0.092965 
-0.011406 -0.068669 
-0.012086 -0.081169 
-0.014048 -0.069045 
0.000000 0.000000 
0.000601 -0.014121 
0.001851 -0.014120 
0.001214 -0.014121 
0.000000 0.000000 
0.001130 -0.028057 
0.001570 -0.041718 
0.004873 -0.014081 
0.004020 -0.014097 
0.000000 0.000000 
0.006555 -0.041918 
0.006070 -0.028160 
0.008399 -0.042029 
0.000000 0.000000 
0.003242 -0.014109 
0.002523 -0.014116 
0.002284 -0.079982 
0.002323 -0.091473 
0.001911 -0.054999 
0.002149 -0.067790 
0.006579 -0.068095 
0.004330 -0.067907 
0.005859 -0.055201 
0.003475 -0.028096 
0.004821 -0.041828 
0.003168 -0.041761 
0.020905 -0.017815 
0.016075 -0.015169 
0.000000 0.000000 
0.027350 -0.044116 
0.023921 -0.029826 
0.031573 -0.045285 
0.000000 0.000000 
0.013166 -0.014367 
0.011087 -0.014102 
0.021174 -0.095013 
0.024369 -0.083526 
0.024519 -0.095771 
0.020979 -0.056836 
0.023235 -0.070505 
0.019936 -0.069959 
0.030635 -0.071854 
0.026798 -0.071127 
0.028000 -0.057939 
0.000000 0.000000 
0.006869 -0.014036 
0.005816 -0.014059 
0.009441 -0.014025 
0.008063 -0.014018 
0.000000 0.000000 
0.014895 -0.042486 
0.012768 -0.028350 
0.017499 -0.042704 
0.023654 -0.043426 
0.020397 -0.042996 
0.017447 -0.028641 
0.000745 -0.146590 
0.000394 -0.150469 
0.001411 -0.135779 
0.001087 -0.141695 
0.003359 -0.142883 
0.002199 -0.142148 
0.004333 -0.136842 
0.002273 -0.102172 
0.002146 -0.112005 
0.006557 -0.112736 
0.004322 -0.112284 
0.006946 -0.102798 
0.001952 -0.120911 
0.001703 -0.128845 
0.016582 -0.115842 
0.013873 -0.114933 
0.017577 -0.105500 
0.007074 -0.130578 
0.010306 -0.123289 
0.009034 -0.131531 
0.011983 -0.103962 
0.011310 -0.114088 
0.008878 -0.113345 
0.003432 -0.129207 
0.005967 -0.121748 
0.005214 -0.129792 
0.009094 -0.028238 
0.015135 -0.056114 
0.012537 -0.042310 
0.010383 -0.042159 
0.010183 -0.055579 
0.018021 -0.094277 
0.012261 -0.092965 
0.015055 -0.093588 
0.017820 -0.082238 
0.016882 -0.069475 
0.004679 -0.091671 
0.008927 -0.068351 
0.006987 -0.080394 
0.007100 -0.091993 
0.009618 -0.092428 
0.014048 -0.069045 
0.012086 -0.081169 
0.011406 -0.068669 
0.029357 -0.027039 
0.034021 -0.035294 
0.045828 -0.064030 
0.041601 -0.050505 
0.046711 -0.054956 
0.036372 -0.047283 
0.036424 -0.060024 
0.045187 -0.107803 
0.047120 -0.098056 
0.050674 -0.096912 
0.039478 -0.098287 
0.043357 -0.098422 
0.037991 -0.109148 
0.051801 -0.077338 
0.048079 -0.087594 
0.047782 -0.076306 
0.028052 -0.096523 
0.023835 -0.107162 
0.034731 -0.072727 
0.031801 -0.084982 
0.030721 -0.108578 
0.031753 -0.097233 
0.035582 -0.097848 
0.043450 -0.075014 
0.039927 -0.086521 
0.039040 -0.073782 
0.013539 -0.167504 
0.018011 -0.161358 
0.020694 -0.157541 
0.013245 -0.164935 
0.015522 -0.163748 
0.009083 -0.170612 
0.029882 -0.144374 
0.022532 -0.154930 
0.027008 -0.148172 
0.006312 -0.161887 
0.007727 -0.163427 
0.003197 -0.166309 
0.019103 -0.152600 
0.013080 -0.158841 
0.016753 -0.152414 
0.005651 -0.169637 
0.009349 -0.164571 
0.011187 -0.165139 
0.045770 -0.114377 
0.039196 -0.125457 
0.042490 -0.116916 
0.031344 -0.141037 
0.035441 -0.133481 
0.038510 -0.130096 
0.029369 -0.136954 
0.032387 -0.135699 
0.025609 -0.144826 
0.017450 -0.158772 
0.021603 -0.152083 
0.024243 -0.150673 
0.000808 -0.151026 
0.000043 -0.153346 
0.004592 -0.143872 
0.002327 -0.147913 
0.000221 -0.154975 
0.001269 -0.151939 
0.001801 -0.153173 
0.019445 -0.116770 
0.015133 -0.125264 
0.011228 -0.141274 
0.013320 -0.133743 
0.015669 -0.134877 
0.011111 -0.132605 
0.007552 -0.138794 
0.001596 -0.162074 
0.004050 -0.158242 
0.005091 -0.160112 
0.002426 -0.154681 
0.003168 -0.156398 
0.000672 -0.158040 
0.010654 -0.149289 
0.006519 -0.153510 