# vtk DataFile Version 2.0
Unstructured Grid Example
ASCII
DATASET UNSTRUCTURED_GRID

POINTS 64 float
0.000000 0.000000 0.000000 
0.031250 0.000000 0.000000 
0.031250 0.000000 0.000000 
0.062500 0.000000 0.000000 
0.062500 0.000000 0.000000 
0.093750 0.000000 0.000000 
0.093750 0.000000 0.000000 
0.125000 0.000000 0.000000 
0.187500 3.985747 0.000000 
0.218750 -7.971494 0.000000 
0.218750 1.288062 0.000000 
0.250000 -14.533366 0.000000 
0.125000 0.000000 0.000000 
0.156250 0.000000 0.000000 
0.156250 0.000000 0.000000 
0.187500 0.000000 0.000000 
0.437500 -5.069787 0.000000 
0.468750 -5.862452 0.000000 
0.468750 -5.751420 0.000000 
0.500000 -5.291852 0.000000 
0.375000 -1.081432 0.000000 
0.406250 -6.229549 0.000000 
0.406250 -3.693010 0.000000 
0.437500 -6.154508 0.000000 
0.250000 -18.524542 0.000000 
0.281250 9.270414 0.000000 
0.281250 0.010277 0.000000 
0.312500 -0.004267 0.000000 
0.312500 -0.032537 0.000000 
0.343750 0.066817 0.000000 
0.343750 2.864868 0.000000 
0.375000 -5.628640 0.000000 
0.500000 -5.291852 0.000000 
0.531250 -5.751420 0.000000 
0.531250 -5.862451 0.000000 
0.562500 -5.069790 0.000000 
0.562500 -6.154515 0.000000 
0.593750 -3.693001 0.000000 
0.593750 -6.229534 0.000000 
0.625000 -1.081449 0.000000 
0.687500 -0.004267 0.000000 
0.718750 0.010277 0.000000 
0.718750 9.270410 0.000000 
0.750000 -18.524533 0.000000 
0.625000 -5.628653 0.000000 
0.656250 2.864875 0.000000 
0.656250 0.066817 0.000000 
0.687500 -0.032537 0.000000 
0.937500 0.000000 0.000000 
0.968750 0.000000 0.000000 
0.968750 0.000000 0.000000 
1.000000 0.000000 0.000000 
0.875000 0.000000 0.000000 
0.906250 0.000000 0.000000 
0.906250 0.000000 0.000000 
0.937500 0.000000 0.000000 
0.750000 -14.533355 0.000000 
0.781250 1.288054 0.000000 
0.781250 -7.971498 0.000000 
0.812500 3.985749 0.000000 
0.812500 0.000000 0.000000 
0.843750 0.000000 0.000000 
0.843750 0.000000 0.000000 
0.875000 0.000000 0.000000 

CELLS 32 96
2  0 1 
2  2 3 
2  4 5 
2  6 7 
2  8 9 
2  10 11 
2  12 13 
2  14 15 
2  16 17 
2  18 19 
2  20 21 
2  22 23 
2  24 25 
2  26 27 
2  28 29 
2  30 31 
2  32 33 
2  34 35 
2  36 37 
2  38 39 
2  40 41 
2  42 43 
2  44 45 
2  46 47 
2  48 49 
2  50 51 
2  52 53 
2  54 55 
2  56 57 
2  58 59 
2  60 61 
2  62 63 

CELL_TYPES 32
3
3
3
3
3
3
3
3
3
3
3
3
3
3
3
3
3
3
3
3
3
3
3
3
3
3
3
3
3
3
3
3

POINT_DATA 64

SCALARS lambda_h float 1
LOOKUP_TABLE default
0.000000 
0.000000 
0.000000 
0.000000 
0.000000 
0.000000 
0.000000 
0.000000 
3.985747 
-7.971494 
1.288062 
-14.533366 
0.000000 
0.000000 
0.000000 
0.000000 
-5.069787 
-5.862452 
-5.751420 
-5.291852 
-1.081432 
-6.229549 
-3.693010 
-6.154508 
-18.524542 
9.270414 
0.010277 
-0.004267 
-0.032537 
0.066817 
2.864868 
-5.628640 
-5.291852 
-5.751420 
-5.862451 
-5.069790 
-6.154515 
-3.693001 
-6.229534 
-1.081449 
-0.004267 
0.010277 
9.270410 
-18.524533 
-5.628653 
2.864875 
0.066817 
-0.032537 
0.000000 
0.000000 
0.000000 
0.000000 
0.000000 
0.000000 
0.000000 
0.000000 
-14.533355 
1.288054 
-7.971498 
3.985749 
0.000000 
0.000000 
0.000000 
0.000000 

