# vtk DataFile Version 2.0
Unstructured Grid Example
ASCII
DATASET UNSTRUCTURED_GRID

POINTS 32 float
0.000000 0.000000 0.000000 
0.062500 0.000000 0.000000 
0.062500 0.000000 0.000000 
0.125000 0.000000 0.000000 
0.125000 0.000000 0.000000 
0.187500 0.000000 0.000000 
0.187500 5.488724 0.000000 
0.250000 -10.977448 0.000000 
0.375000 -5.122107 0.000000 
0.437500 -4.320528 0.000000 
0.437500 -4.673461 0.000000 
0.500000 -4.416241 0.000000 
0.250000 -5.032093 0.000000 
0.312500 -6.401986 0.000000 
0.312500 -7.035796 0.000000 
0.375000 -3.764473 0.000000 
0.500000 -4.416241 0.000000 
0.562500 -4.673461 0.000000 
0.562500 -4.320528 0.000000 
0.625000 -5.122107 0.000000 
0.625000 -3.764473 0.000000 
0.687500 -7.035796 0.000000 
0.687500 -6.401986 0.000000 
0.750000 -5.032093 0.000000 
0.875000 0.000000 0.000000 
0.937500 0.000000 0.000000 
0.937500 0.000000 0.000000 
1.000000 0.000000 0.000000 
0.750000 -10.977448 0.000000 
0.812500 5.488724 0.000000 
0.812500 0.000000 0.000000 
0.875000 0.000000 0.000000 

CELLS 16 48
2  0 1 
2  2 3 
2  4 5 
2  6 7 
2  8 9 
2  10 11 
2  12 13 
2  14 15 
2  16 17 
2  18 19 
2  20 21 
2  22 23 
2  24 25 
2  26 27 
2  28 29 
2  30 31 

CELL_TYPES 16
3
3
3
3
3
3
3
3
3
3
3
3
3
3
3
3

POINT_DATA 32

SCALARS lambda_h float 1
LOOKUP_TABLE default
0.000000 
0.000000 
0.000000 
0.000000 
0.000000 
0.000000 
5.488724 
-10.977448 
-5.122107 
-4.320528 
-4.673461 
-4.416241 
-5.032093 
-6.401986 
-7.035796 
-3.764473 
-4.416241 
-4.673461 
-4.320528 
-5.122107 
-3.764473 
-7.035796 
-6.401986 
-5.032093 
0.000000 
0.000000 
0.000000 
0.000000 
-10.977448 
5.488724 
0.000000 
0.000000 

