# vtk DataFile Version 2.0
Unstructured Grid Example
ASCII
DATASET UNSTRUCTURED_GRID

POINTS 128 float
0.000000 -0.000000 0.000000 
0.015625 0.000000 0.000000 
0.015625 -0.000000 0.000000 
0.031250 0.000002 0.000000 
0.031250 -0.000002 0.000000 
0.046875 0.000006 0.000000 
0.046875 -0.000006 0.000000 
0.062500 0.000022 0.000000 
0.093750 -0.000301 0.000000 
0.109375 0.001123 0.000000 
0.109375 -0.001123 0.000000 
0.125000 0.004192 0.000000 
0.062500 -0.000022 0.000000 
0.078125 0.000081 0.000000 
0.078125 -0.000081 0.000000 
0.093750 0.000301 0.000000 
0.218750 -26.258691 0.000000 
0.234375 5.807584 0.000000 
0.234375 -4.093199 0.000000 
0.250000 -6.457124 0.000000 
0.187500 0.803277 0.000000 
0.203125 -0.197862 0.000000 
0.203125 15.841634 0.000000 
0.218750 -31.275716 0.000000 
0.125000 -0.004192 0.000000 
0.140625 0.015646 0.000000 
0.140625 -0.015646 0.000000 
0.156250 0.058393 0.000000 
0.156250 -0.058393 0.000000 
0.171875 0.217925 0.000000 
0.171875 -0.217925 0.000000 
0.187500 0.813308 0.000000 
0.468750 -5.876206 0.000000 
0.484375 -3.727441 0.000000 
0.484375 -6.024296 0.000000 
0.500000 -1.282496 0.000000 
0.437500 -5.664634 0.000000 
0.453125 -5.358069 0.000000 
0.453125 -5.760564 0.000000 
0.468750 -4.859645 0.000000 
0.375000 -2.610671 0.000000 
0.390625 -4.377205 0.000000 
0.390625 -2.930544 0.000000 
0.406250 -5.503994 0.000000 
0.406250 -3.822409 0.000000 
0.421875 -6.293714 0.000000 
0.421875 -5.377446 0.000000 
0.437500 -5.654946 0.000000 
0.250000 -7.183702 0.000000 
0.265625 -2.640043 0.000000 
0.265625 -9.279949 0.000000 
0.281250 6.096110 0.000000 
0.281250 1.675432 0.000000 
0.296875 -0.438593 0.000000 
0.296875 0.443473 0.000000 
0.312500 -0.088699 0.000000 
0.343750 2.168222 0.000000 
0.359375 -3.263209 0.000000 
0.359375 0.294052 0.000000 
0.375000 -4.946300 0.000000 
0.312500 0.058816 0.000000 
0.328125 0.148443 0.000000 
0.328125 -0.120610 0.000000 
0.343750 0.596923 0.000000 
0.500000 -1.281432 0.000000 
0.515625 -6.026424 0.000000 
0.515625 -3.728631 0.000000 
0.531250 -5.877018 0.000000 
0.531250 -4.860682 0.000000 
0.546875 -5.761302 0.000000 
0.546875 -5.359781 0.000000 
0.562500 -5.663726 0.000000 
0.593750 -5.502171 0.000000 
0.609375 -2.931233 0.000000 
0.609375 -4.381197 0.000000 
0.625000 -2.602243 0.000000 
0.562500 -5.655984 0.000000 
0.578125 -5.375264 0.000000 
0.578125 -6.292482 0.000000 
0.593750 -3.821547 0.000000 
0.718750 6.092956 0.000000 
0.734375 -9.273642 0.000000 
0.734375 -2.631850 0.000000 
0.750000 -7.190628 0.000000 
0.687500 -0.088699 0.000000 
0.703125 0.443472 0.000000 
0.703125 -0.438593 0.000000 
0.718750 1.675431 0.000000 
0.625000 -4.940376 0.000000 
0.640625 0.295069 0.000000 
0.640625 -3.257905 0.000000 
0.656250 2.165571 0.000000 
0.656250 0.596924 0.000000 
0.671875 -0.120611 0.000000 
0.671875 0.148444 0.000000 
0.687500 0.058815 0.000000 
0.968750 0.000002 0.000000 
0.984375 -0.000000 0.000000 
0.984375 0.000000 0.000000 
1.000000 -0.000000 0.000000 
0.937500 0.000022 0.000000 
0.953125 -0.000006 0.000000 
0.953125 0.000006 0.000000 
0.968750 -0.000002 0.000000 
0.875000 0.004192 0.000000 
0.890625 -0.001123 0.000000 
0.890625 0.001123 0.000000 
0.906250 -0.000301 0.000000 
0.906250 0.000301 0.000000 
0.921875 -0.000081 0.000000 
0.921875 0.000081 0.000000 
0.937500 -0.000022 0.000000 
0.750000 -6.462608 0.000000 
0.765625 -4.087888 0.000000 
0.765625 5.811293 0.000000 
0.781250 -26.260971 0.000000 
0.781250 -31.276285 0.000000 
0.796875 15.841921 0.000000 
0.796875 -0.197859 0.000000 
0.812500 0.803276 0.000000 
0.843750 0.058393 0.000000 
0.859375 -0.015646 0.000000 
0.859375 0.015646 0.000000 
0.875000 -0.004192 0.000000 
0.812500 0.813309 0.000000 
0.828125 -0.217925 0.000000 
0.828125 0.217925 0.000000 
0.843750 -0.058393 0.000000 

CELLS 64 192
2  0 1 
2  2 3 
2  4 5 
2  6 7 
2  8 9 
2  10 11 
2  12 13 
2  14 15 
2  16 17 
2  18 19 
2  20 21 
2  22 23 
2  24 25 
2  26 27 
2  28 29 
2  30 31 
2  32 33 
2  34 35 
2  36 37 
2  38 39 
2  40 41 
2  42 43 
2  44 45 
2  46 47 
2  48 49 
2  50 51 
2  52 53 
2  54 55 
2  56 57 
2  58 59 
2  60 61 
2  62 63 
2  64 65 
2  66 67 
2  68 69 
2  70 71 
2  72 73 
2  74 75 
2  76 77 
2  78 79 
2  80 81 
2  82 83 
2  84 85 
2  86 87 
2  88 89 
2  90 91 
2  92 93 
2  94 95 
2  96 97 
2  98 99 
2  100 101 
2  102 103 
2  104 105 
2  106 107 
2  108 109 
2  110 111 
2  112 113 
2  114 115 
2  116 117 
2  118 119 
2  120 121 
2  122 123 
2  124 125 
2  126 127 

CELL_TYPES 64
3
3
3
3
3
3
3
3
3
3
3
3
3
3
3
3
3
3
3
3
3
3
3
3
3
3
3
3
3
3
3
3
3
3
3
3
3
3
3
3
3
3
3
3
3
3
3
3
3
3
3
3
3
3
3
3
3
3
3
3
3
3
3
3

POINT_DATA 128

SCALARS lambda_h float 1
LOOKUP_TABLE default
-0.000000 
0.000000 
-0.000000 
0.000002 
-0.000002 
0.000006 
-0.000006 
0.000022 
-0.000301 
0.001123 
-0.001123 
0.004192 
-0.000022 
0.000081 
-0.000081 
0.000301 
-26.258691 
5.807584 
-4.093199 
-6.457124 
0.803277 
-0.197862 
15.841634 
-31.275716 
-0.004192 
0.015646 
-0.015646 
0.058393 
-0.058393 
0.217925 
-0.217925 
0.813308 
-5.876206 
-3.727441 
-6.024296 
-1.282496 
-5.664634 
-5.358069 
-5.760564 
-4.859645 
-2.610671 
-4.377205 
-2.930544 
-5.503994 
-3.822409 
-6.293714 
-5.377446 
-5.654946 
-7.183702 
-2.640043 
-9.279949 
6.096110 
1.675432 
-0.438593 
0.443473 
-0.088699 
2.168222 
-3.263209 
0.294052 
-4.946300 
0.058816 
0.148443 
-0.120610 
0.596923 
-1.281432 
-6.026424 
-3.728631 
-5.877018 
-4.860682 
-5.761302 
-5.359781 
-5.663726 
-5.502171 
-2.931233 
-4.381197 
-2.602243 
-5.655984 
-5.375264 
-6.292482 
-3.821547 
6.092956 
-9.273642 
-2.631850 
-7.190628 
-0.088699 
0.443472 
-0.438593 
1.675431 
-4.940376 
0.295069 
-3.257905 
2.165571 
0.596924 
-0.120611 
0.148444 
0.058815 
0.000002 
-0.000000 
0.000000 
-0.000000 
0.000022 
-0.000006 
0.000006 
-0.000002 
0.004192 
-0.001123 
0.001123 
-0.000301 
0.000301 
-0.000081 
0.000081 
-0.000022 
-6.462608 
-4.087888 
5.811293 
-26.260971 
-31.276285 
15.841921 
-0.197859 
0.803276 
0.058393 
-0.015646 
0.015646 
-0.004192 
0.813309 
-0.217925 
0.217925 
-0.058393 

