# vtk DataFile Version 2.0
Unstructured Grid Example
ASCII
DATASET UNSTRUCTURED_GRID

POINTS 1089 float
0.028239 -0.194449 0.000000 
0.971761 -0.194449 0.000000 
1.000000 1.000000 0.000000 
0.000000 1.000000 0.000000 
0.500000 -0.100000 0.000000 
0.967425 0.368566 0.000000 
0.500000 1.000000 0.000000 
0.032575 0.368566 0.000000 
0.500000 0.375151 0.000000 
0.272345 -0.100135 0.000000 
0.500000 0.103135 0.000000 
0.256950 0.088285 0.000000 
0.727655 -0.100135 0.000000 
0.743050 0.088285 0.000000 
0.981637 0.078259 0.000000 
0.736789 0.369787 0.000000 
0.960767 0.671287 0.000000 
0.736342 0.677180 0.000000 
0.750000 1.000000 0.000000 
0.500000 0.678965 0.000000 
0.250000 1.000000 0.000000 
0.263658 0.677180 0.000000 
0.039233 0.671287 0.000000 
0.263211 0.369787 0.000000 
0.018363 0.078259 0.000000 
0.155282 -0.181659 0.000000 
0.260231 -0.039938 0.000000 
0.138298 -0.053906 0.000000 
0.500000 -0.012656 0.000000 
0.378681 -0.027839 0.000000 
0.359425 -0.100047 0.000000 
0.378861 0.231345 0.000000 
0.377140 0.097635 0.000000 
0.500000 0.234114 0.000000 
0.640575 -0.100047 0.000000 
0.621319 -0.027839 0.000000 
0.861702 -0.053906 0.000000 
0.739769 -0.039938 0.000000 
0.844718 -0.181659 0.000000 
0.622860 0.097635 0.000000 
0.621139 0.231345 0.000000 
0.981672 -0.062344 0.000000 
0.863028 0.080196 0.000000 
0.852514 0.366423 0.000000 
0.858418 0.220420 0.000000 
0.975174 0.222034 0.000000 
0.740491 0.225378 0.000000 
0.619194 0.373673 0.000000 
0.961633 0.517981 0.000000 
0.848788 0.517935 0.000000 
0.859258 0.836633 0.000000 
0.850081 0.674870 0.000000 
0.968775 0.829483 0.000000 
0.734807 0.520745 0.000000 
0.618248 0.523246 0.000000 
0.875000 1.000000 0.000000 
0.741960 0.837517 0.000000 
0.500000 0.837922 0.000000 
0.621553 0.837803 0.000000 
0.625000 1.000000 0.000000 
0.619044 0.678482 0.000000 
0.500000 0.524218 0.000000 
0.375000 1.000000 0.000000 
0.378447 0.837803 0.000000 
0.140742 0.836633 0.000000 
0.258040 0.837517 0.000000 
0.125000 1.000000 0.000000 
0.380956 0.678482 0.000000 
0.381752 0.523246 0.000000 
0.031225 0.829483 0.000000 
0.149919 0.674870 0.000000 
0.147486 0.366423 0.000000 
0.151212 0.517935 0.000000 
0.038367 0.517981 0.000000 
0.265193 0.520745 0.000000 
0.380806 0.373673 0.000000 
0.024826 0.222034 0.000000 
0.141582 0.220420 0.000000 
0.136972 0.080196 0.000000 
0.018328 -0.062344 0.000000 
0.259509 0.225378 0.000000 
0.090728 -0.189039 0.000000 
0.143700 -0.118956 0.000000 
0.083375 -0.125390 0.000000 
0.264047 -0.097258 0.000000 
0.202559 -0.106987 0.000000 
0.222109 -0.163432 0.000000 
0.196730 0.017773 0.000000 
0.198401 -0.045970 0.000000 
0.257479 0.022783 0.000000 
0.500000 -0.062006 0.000000 
0.433492 -0.053861 0.000000 
0.431711 -0.100000 0.000000 
0.437880 0.040119 0.000000 
0.438362 -0.018042 0.000000 
0.500000 0.042728 0.000000 
0.293682 -0.083676 0.000000 
0.366491 -0.072340 0.000000 
0.310486 -0.077831 0.000000 
0.439799 0.303052 0.000000 
0.439252 0.233381 0.000000 
0.500000 0.303566 0.000000 
0.316941 0.092817 0.000000 
0.377870 0.163351 0.000000 
0.317671 0.159676 0.000000 
0.500000 0.167156 0.000000 
0.438685 0.166115 0.000000 
0.438177 0.101569 0.000000 
0.320225 -0.036051 0.000000 
0.377058 0.034142 0.000000 
0.317411 0.027735 0.000000 
0.568289 -0.100000 0.000000 
0.566508 -0.053861 0.000000 
0.689514 -0.077831 0.000000 
0.633509 -0.072340 0.000000 
0.706318 -0.083676 0.000000 
0.561638 -0.018042 0.000000 
0.562120 0.040119 0.000000 
0.916625 -0.125390 0.000000 
0.856300 -0.118956 0.000000 
0.909272 -0.189039 0.000000 
0.742521 0.022783 0.000000 
0.801599 -0.045970 0.000000 
0.803270 0.017773 0.000000 
0.777891 -0.163432 0.000000 
0.797441 -0.106987 0.000000 
0.735953 -0.097258 0.000000 
0.560748 0.233381 0.000000 
0.560201 0.303052 0.000000 
0.561823 0.101569 0.000000 
0.561315 0.166115 0.000000 
0.682329 0.159676 0.000000 
0.622130 0.163351 0.000000 
0.683059 0.092817 0.000000 
0.679775 -0.036051 0.000000 
0.682589 0.027735 0.000000 
0.622942 0.034142 0.000000 
0.977594 -0.130045 0.000000 
0.921600 -0.059181 0.000000 
0.922536 0.077927 0.000000 
0.923303 0.008701 0.000000 
0.982856 0.007406 0.000000 
0.863477 0.012395 0.000000 
0.803172 0.084029 0.000000 
0.909961 0.366345 0.000000 
0.913390 0.292591 0.000000 
0.971212 0.294916 0.000000 
0.797165 0.294350 0.000000 
0.855403 0.292724 0.000000 
0.794849 0.367803 0.000000 
0.978837 0.149829 0.000000 
0.916937 0.219927 0.000000 
0.920174 0.148361 0.000000 
0.620105 0.301507 0.000000 
0.559724 0.374867 0.000000 
0.742146 0.155874 0.000000 
0.681034 0.228488 0.000000 
0.678241 0.371873 0.000000 
0.679574 0.299251 0.000000 
0.738579 0.296711 0.000000 
0.861133 0.149556 0.000000 
0.799610 0.222505 0.000000 
0.801773 0.152355 0.000000 
0.964079 0.442808 0.000000 
0.907097 0.441208 0.000000 
0.904453 0.594516 0.000000 
0.905140 0.517243 0.000000 
0.960395 0.594115 0.000000 
0.850203 0.441497 0.000000 
0.793066 0.442798 0.000000 
0.925449 0.917589 0.000000 
0.915162 0.834736 0.000000 
0.978821 0.911761 0.000000 
0.793752 0.676196 0.000000 
0.853544 0.755259 0.000000 
0.796761 0.756349 0.000000 
0.963285 0.749637 0.000000 
0.908777 0.753161 0.000000 
0.905474 0.673118 0.000000 
0.618528 0.447651 0.000000 
0.559366 0.448581 0.000000 
0.735451 0.444507 0.000000 
0.677264 0.446221 0.000000 
0.677062 0.599434 0.000000 
0.676829 0.522132 0.000000 
0.735059 0.598362 0.000000 
0.848622 0.595733 0.000000 
0.792250 0.597099 0.000000 
0.792104 0.519258 0.000000 
0.937500 1.000000 0.000000 
0.866862 0.918405 0.000000 
0.745869 0.918565 0.000000 
0.806697 0.918541 0.000000 
0.812500 1.000000 0.000000 
0.801213 0.837250 0.000000 
0.738685 0.756981 0.000000 
0.500000 0.918615 0.000000 
0.561651 0.918605 0.000000 
0.562500 1.000000 0.000000 
0.560150 0.757918 0.000000 
0.560844 0.837884 0.000000 
0.500000 0.757999 0.000000 
0.687500 1.000000 0.000000 
0.623231 0.918591 0.000000 
0.684668 0.918577 0.000000 
0.559231 0.523963 0.000000 
0.500000 0.448882 0.000000 
0.678027 0.677930 0.000000 
0.618413 0.600258 0.000000 
0.500000 0.600977 0.000000 
0.559317 0.600783 0.000000 
0.559628 0.678831 0.000000 
0.681984 0.837682 0.000000 
0.620116 0.757721 0.000000 
0.679705 0.757412 0.000000 
0.437500 1.000000 0.000000 
0.438349 0.918605 0.000000 
0.315332 0.918577 0.000000 
0.376769 0.918591 0.000000 
0.312500 1.000000 0.000000 
0.439156 0.837884 0.000000 
0.439850 0.757918 0.000000 
0.074551 0.917589 0.000000 
0.133138 0.918405 0.000000 
0.062500 1.000000 0.000000 
0.261315 0.756981 0.000000 
0.198787 0.837250 0.000000 
0.203239 0.756349 0.000000 
0.187500 1.000000 0.000000 
0.193303 0.918541 0.000000 
0.254131 0.918565 0.000000 
0.440769 0.523963 0.000000 
0.440634 0.448581 0.000000 
0.440372 0.678831 0.000000 
0.440683 0.600783 0.000000 
0.322938 0.599434 0.000000 
0.381587 0.600258 0.000000 
0.321973 0.677930 0.000000 
0.318016 0.837682 0.000000 
0.320295 0.757412 0.000000 
0.379884 0.757721 0.000000 
0.021179 0.911761 0.000000 
0.084838 0.834736 0.000000 
0.094526 0.673118 0.000000 
0.091223 0.753161 0.000000 
0.036715 0.749637 0.000000 
0.146456 0.755259 0.000000 
0.206248 0.676196 0.000000 
0.090039 0.366345 0.000000 
0.092903 0.441208 0.000000 
0.035921 0.442808 0.000000 
0.206934 0.442798 0.000000 
0.149797 0.441497 0.000000 
0.205151 0.367803 0.000000 
0.039605 0.594115 0.000000 
0.094860 0.517243 0.000000 
0.095547 0.594516 0.000000 
0.381472 0.447651 0.000000 
0.440276 0.374867 0.000000 
0.264941 0.598362 0.000000 
0.323171 0.522132 0.000000 
0.321759 0.371873 0.000000 
0.322736 0.446221 0.000000 
0.264549 0.444507 0.000000 
0.151378 0.595733 0.000000 
0.207896 0.519258 0.000000 
0.207750 0.597099 0.000000 
0.028788 0.294916 0.000000 
0.086610 0.292591 0.000000 
0.079826 0.148361 0.000000 
0.083063 0.219927 0.000000 
0.021163 0.149829 0.000000 
0.144597 0.292724 0.000000 
0.202835 0.294350 0.000000 
0.078400 -0.059181 0.000000 
0.022406 -0.130045 0.000000 
0.196828 0.084029 0.000000 
0.136523 0.012395 0.000000 
0.017144 0.007406 0.000000 
0.076697 0.008701 0.000000 
0.077464 0.077927 0.000000 
0.379895 0.301507 0.000000 
0.261421 0.296711 0.000000 
0.320426 0.299251 0.000000 
0.318966 0.228488 0.000000 
0.257854 0.155874 0.000000 
0.138867 0.149556 0.000000 
0.198227 0.152355 0.000000 
0.200390 0.222505 0.000000 
0.059298 -0.191641 0.000000 
0.087017 -0.157607 0.000000 
0.056096 -0.160077 0.000000 
0.148707 -0.150842 0.000000 
0.117942 -0.154733 0.000000 
0.122701 -0.185957 0.000000 
0.110524 -0.089954 0.000000 
0.113690 -0.122629 0.000000 
0.140395 -0.086579 0.000000 
0.270255 -0.121676 0.000000 
0.236391 -0.123766 0.000000 
0.255750 -0.144371 0.000000 
0.230696 -0.071471 0.000000 
0.232372 -0.098847 0.000000 
0.262378 -0.069531 0.000000 
0.188476 -0.174946 0.000000 
0.208269 -0.136732 0.000000 
0.178993 -0.145172 0.000000 
0.226778 0.053003 0.000000 
0.227086 0.020472 0.000000 
0.256984 0.055253 0.000000 
0.168224 -0.050192 0.000000 
0.197323 -0.014447 0.000000 
0.167092 -0.017838 0.000000 
0.258541 -0.009020 0.000000 
0.227862 -0.011301 0.000000 
0.229108 -0.042081 0.000000 
0.173295 -0.113877 0.000000 
0.200024 -0.076767 0.000000 
0.170130 -0.082168 0.000000 
0.500000 -0.072912 0.000000 
0.465874 -0.076678 0.000000 
0.466516 -0.100000 0.000000 
0.470030 -0.038257 0.000000 
0.466293 -0.059495 0.000000 
0.500000 -0.038939 0.000000 
0.396712 -0.100000 0.000000 
0.431875 -0.077080 0.000000 
0.398730 -0.083873 0.000000 
0.468895 0.071907 0.000000 
0.468790 0.042057 0.000000 
0.500000 0.072421 0.000000 
0.407423 -0.020861 0.000000 
0.437935 0.010641 0.000000 
0.407270 0.007783 0.000000 
0.500000 0.014232 0.000000 
0.468718 0.013333 0.000000 
0.468566 -0.014098 0.000000 
0.264390 -0.069874 0.000000 
0.303753 -0.054242 0.000000 
0.285465 -0.085648 0.000000 
0.366479 -0.070339 0.000000 
0.333170 -0.063033 0.000000 
0.325592 -0.094037 0.000000 
0.352826 -0.062261 0.000000 
0.341212 -0.091911 0.000000 
0.380627 -0.059531 0.000000 
0.438797 -0.046842 0.000000 
0.407538 -0.046236 0.000000 
0.401653 -0.066877 0.000000 
[...]
POINT_DATA 1089

SCALARS u_h float 2
LOOKUP_TABLE default
0.028239 -0.194449 
-0.028239 -0.194449 
0.000000 0.000000 
0.000000 0.000000 
-0.000000 -0.100000 
-0.032575 -0.131434 
0.000000 0.000000 
0.032575 -0.131434 
-0.000000 -0.124849 
0.022345 -0.100135 
-0.000000 -0.146865 
0.006950 -0.161715 
-0.022345 -0.100135 
-0.006950 -0.161715 
-0.018363 -0.171741 
-0.013211 -0.130213 
-0.039233 -0.078713 
-0.013658 -0.072820 
0.000000 0.000000 
-0.000000 -0.071035 
0.000000 0.000000 
0.013658 -0.072820 
0.039233 -0.078713 
0.013211 -0.130213 
0.018363 -0.171741 
0.030282 -0.181659 
0.010231 -0.164938 
0.013298 -0.178906 
0.000000 -0.137656 
0.003681 -0.152839 
-0.015575 -0.100047 
0.003861 -0.143655 
0.002140 -0.152365 
-0.000000 -0.140886 
0.015575 -0.100047 
-0.003681 -0.152839 
-0.013298 -0.178906 
-0.010231 -0.164938 
-0.030282 -0.181659 
-0.002140 -0.152365 
-0.003861 -0.143655 
-0.018328 -0.187344 
-0.011972 -0.169804 
-0.022486 -0.133577 
-0.016582 -0.154580 
-0.024826 -0.152966 
-0.009509 -0.149622 
-0.005806 -0.126327 
-0.038367 -0.107019 
-0.026212 -0.107065 
-0.015742 -0.038367 
-0.024919 -0.075130 
-0.031225 -0.045517 
-0.015193 -0.104255 
-0.006752 -0.101754 
0.000000 0.000000 
-0.008040 -0.037483 
-0.000000 -0.037078 
-0.003447 -0.037197 
0.000000 0.000000 
-0.005956 -0.071518 
-0.000000 -0.100782 
0.000000 0.000000 
0.003447 -0.037197 
0.015742 -0.038367 
0.008040 -0.037483 
0.000000 0.000000 
0.005956 -0.071518 
0.006752 -0.101754 
0.031225 -0.045517 
0.024919 -0.075130 
0.022486 -0.133577 
0.026212 -0.107065 
0.038367 -0.107019 
0.015193 -0.104255 
0.005806 -0.126327 
0.024826 -0.152966 
0.016582 -0.154580 
0.011972 -0.169804 
0.018328 -0.187344 
0.009509 -0.149622 
0.028228 -0.189039 
0.018700 -0.181456 
0.020875 -0.187890 
0.014047 -0.159758 
0.015059 -0.169487 
0.034609 -0.163432 
0.009230 -0.169727 
0.010901 -0.170970 
0.007479 -0.164717 
-0.000000 -0.124506 
-0.004008 -0.116361 
-0.005789 -0.100000 
0.000380 -0.147381 
0.000862 -0.143042 
0.000000 -0.144772 
-0.018818 -0.083676 
-0.008509 -0.134840 
-0.002014 -0.140331 
0.002299 -0.134448 
0.001752 -0.141619 
-0.000000 -0.133934 
0.004441 -0.157183 
0.002870 -0.149149 
0.005171 -0.152824 
-0.000000 -0.145344 
0.001185 -0.146385 
0.000677 -0.148431 
0.007725 -0.161051 
0.002058 -0.153358 
0.004911 -0.159765 
0.005789 -0.100000 
0.004008 -0.116361 
0.002014 -0.140331 
0.008509 -0.134840 
0.018818 -0.083676 
-0.000862 -0.143042 
-0.000380 -0.147381 
-0.020875 -0.187890 
-0.018700 -0.181456 
-0.028228 -0.189039 
-0.007479 -0.164717 
-0.010901 -0.170970 
-0.009230 -0.169727 
-0.034609 -0.163432 
-0.015059 -0.169487 
-0.014047 -0.159758 
-0.001752 -0.141619 
-0.002299 -0.134448 
-0.000677 -0.148431 
-0.001185 -0.146385 
-0.005171 -0.152824 
-0.002870 -0.149149 
-0.004441 -0.157183 
-0.007725 -0.161051 
-0.004911 -0.159765 
-0.002058 -0.153358 
-0.022406 -0.192545 
-0.015900 -0.184181 
-0.014964 -0.172073 
-0.014197 -0.178799 
-0.017144 -0.180094 
-0.011523 -0.175105 
-0.009328 -0.165971 
-0.027539 -0.133655 
-0.024110 -0.144909 
-0.028788 -0.142584 
-0.015335 -0.143150 
-0.019597 -0.144776 
-0.017651 -0.132197 
-0.021163 -0.162671 
-0.020563 -0.155073 
-0.017326 -0.164139 
-0.004895 -0.135993 
-0.002776 -0.125133 
-0.007854 -0.156626 
-0.006466 -0.146512 
-0.009259 -0.128127 
-0.007926 -0.138249 
-0.011421 -0.140789 
-0.013867 -0.162944 
-0.012890 -0.152495 
-0.010727 -0.160145 
-0.035921 -0.119692 
-0.030403 -0.121292 
-0.033047 -0.092984 
-0.032360 -0.107757 
-0.039605 -0.093385 
-0.024797 -0.121003 
-0.019434 -0.119702 
-0.012051 -0.019911 
-0.022338 -0.040264 
-0.021179 -0.025739 
-0.018748 -0.073804 
-0.021456 -0.057241 
-0.015739 -0.056151 
-0.036715 -0.062863 
-0.028723 -0.059339 
-0.032026 -0.076882 
-0.006472 -0.114849 
-0.003134 -0.113919 
-0.014549 -0.117993 
-0.010236 -0.116279 
-0.010438 -0.088066 
-0.010671 -0.102868 
-0.014941 -0.089138 
-0.026378 -0.091767 
-0.020250 -0.090401 
-0.020396 -0.105742 
0.000000 0.000000 
-0.008138 -0.019095 
-0.004131 -0.018935 
-0.005803 -0.018959 
0.000000 0.000000 
-0.011287 -0.037750 
-0.011315 -0.055519 
-0.000000 -0.018885 
-0.000849 -0.018895 
0.000000 0.000000 
-0.002350 -0.054582 
-0.001656 -0.037116 
-0.000000 -0.054501 
0.000000 0.000000 
-0.001769 -0.018909 
-0.002832 -0.018923 
-0.003269 -0.101037 
-0.000000 -0.113618 
-0.009473 -0.072070 
-0.006587 -0.087242 
-0.000000 -0.086523 
-0.003183 -0.086717 
-0.002872 -0.071169 
-0.005516 -0.037318 
-0.004884 -0.054779 
-0.007795 -0.055088 
0.000000 0.000000 
0.000849 -0.018895 
0.002832 -0.018923 
0.001769 -0.018909 
0.000000 0.000000 
0.001656 -0.037116 
0.002350 -0.054582 
0.012051 -0.019911 
0.008138 -0.019095 
0.000000 0.000000 
0.011315 -0.055519 
0.011287 -0.037750 
0.015739 -0.056151 
0.000000 0.000000 
0.005803 -0.018959 
0.004131 -0.018935 
0.003269 -0.101037 
0.003134 -0.113919 
0.002872 -0.071169 
0.003183 -0.086717 
0.010438 -0.088066 
0.006587 -0.087242 
0.009473 -0.072070 
0.005516 -0.037318 
0.007795 -0.055088 
0.004884 -0.054779 
0.021179 -0.025739 
0.022338 -0.040264 
0.032026 -0.076882 
0.028723 -0.059339 
0.036715 -0.062863 
0.021456 -0.057241 
0.018748 -0.073804 
0.027539 -0.133655 
0.030403 -0.121292 
0.035921 -0.119692 
0.019434 -0.119702 
0.024797 -0.121003 
0.017651 -0.132197 
0.039605 -0.093385 
0.032360 -0.107757 
0.033047 -0.092984 
0.006472 -0.114849 
0.002776 -0.125133 
0.014941 -0.089138 
0.010671 -0.102868 
0.009259 -0.128127 
0.010236 -0.116279 
0.014549 -0.117993 
0.026378 -0.091767 
0.020396 -0.105742 
0.020250 -0.090401 
0.028788 -0.142584 
0.024110 -0.144909 
0.017326 -0.164139 
0.020563 -0.155073 
0.021163 -0.162671 
0.019597 -0.144776 
0.015335 -0.143150 
0.015900 -0.184181 
0.022406 -0.192545 
0.009328 -0.165971 
0.011523 -0.175105 
0.017144 -0.180094 
0.014197 -0.178799 
0.014964 -0.172073 
0.004895 -0.135993 
0.011421 -0.140789 
0.007926 -0.138249 
0.006466 -0.146512 
0.007854 -0.156626 
0.013867 -0.162944 
0.010727 -0.160145 
0.012890 -0.152495 
0.028048 -0.191641 
0.024517 -0.188857 
0.024846 -0.191327 
0.023707 -0.182092 
0.024192 -0.185983 
0.028951 -0.185957 
0.016774 -0.183704 
0.019940 -0.185129 
0.015395 -0.180329 
0.020255 -0.152926 
0.017641 -0.155016 
0.037000 -0.144371 
0.011946 -0.165221 
0.013622 -0.161347 
0.012378 -0.163281 
0.032226 -0.174946 
0.020769 -0.167982 
0.022743 -0.176422 
0.008028 -0.165747 
0.008336 -0.167028 
0.006984 -0.163497 
0.011974 -0.175192 
0.009823 -0.170697 
0.010842 -0.174088 
0.008541 -0.165270 
0.009112 -0.167551 
0.010358 -0.167081 
0.017045 -0.176377 
0.012524 -0.170517 
0.013880 -0.175918 
-0.000000 -0.104162 
-0.002876 -0.107928 
-0.002234 -0.100000 
0.001280 -0.132007 
-0.002457 -0.121995 
0.000000 -0.132689 
-0.009538 -0.100000 
-0.005625 -0.108330 
-0.007520 -0.115123 
0.000145 -0.146843 
0.000040 -0.145443 
-0.000000 -0.146329 
0.001173 -0.145861 
0.000435 -0.145609 
0.001020 -0.148467 
0.000000 -0.142018 
-0.000032 -0.142917 
-0.000184 -0.139098 
-0.016860 -0.069874 
-0.008747 -0.085492 
0.004215 -0.116898 
-0.008521 -0.101589 
-0.010580 -0.094283 
-0.018158 -0.094037 
0.009076 -0.156011 
-0.002538 -0.154411 
0.005627 -0.153281 
0.001297 -0.140592 
0.001288 -0.139986 
-0.004597 -0.129377 
0.001246 -0.129709 
0.001124 -0.134051 
-0.000000 -0.129635 
0.002748 -0.142499 
0.002032 -0.138317 
0.003155 -0.139077 
-0.000000 -0.137698 
0.000991 -0.137849 
0.000849 -0.141070 
0.005720 -0.159536 
0.004704 -0.155243 
0.005979 -0.157375 
0.002454 -0.151044 
0.003509 -0.153100 
0.003219 -0.154756 
0.004498 -0.148234 
0.003954 -0.150929 
0.003348 -0.146682 
-0.000000 -0.146506 
0.000407 -0.146832 
0.000269 -0.147270 
0.000701 -0.143672 
0.000553 -0.145611 
-0.000000 -0.143451 
0.001278 -0.150154 
0.000917 -0.147770 
0.001585 -0.149205 
0.002339 -0.145347 
0.001946 -0.147592 
0.001467 -0.144321 
0.012281 -0.167486 
0.005782 -0.156790 
0.011007 -0.161182 
0.012059 -0.165285 
0.009541 -0.164354 
0.000485 -0.148316 
0.001980 -0.153123 
0.001054 -0.150399 
0.000953 -0.149877 
0.002532 -0.153170 
0.005809 -0.161251 
0.007573 -0.163552 
0.006375 -0.162565 
0.004472 -0.158674 
0.003155 -0.155921 
0.004177 -0.156932 
0.003418 -0.156633 
0.005914 -0.160531 
0.002234 -0.100000 
0.002876 -0.107928 
0.007520 -0.115123 
0.005625 -0.108330 
0.009538 -0.100000 
0.002457 -0.121995 
-0.001280 -0.132007 
-0.004215 -0.116898 
0.008747 -0.085492 
0.016860 -0.069874 
-0.005627 -0.153281 
0.002538 -0.154411 
-0.009076 -0.156011 
0.018158 -0.094037 
0.010580 -0.094283 
0.008521 -0.101589 
-0.000040 -0.145443 
-0.000145 -0.146843 
0.000184 -0.139098 
0.000032 -0.142917 
-0.001020 -0.148467 
-0.000435 -0.145609 
-0.001173 -0.145861 
0.004597 -0.129377 
-0.001288 -0.139986 
-0.001297 -0.140592 
-0.024846 -0.191327 
-0.024517 -0.188858 
-0.028049 -0.191641 
-0.015395 -0.180329 
-0.019940 -0.185129 
-0.016774 -0.183704 
-0.028951 -0.185957 
-0.024192 -0.185983 
-0.023707 -0.182092 
-0.006984 -0.163497 
-0.008336 -0.167028 
-0.008028 -0.165747 
-0.010358 -0.167081 
-0.009112 -0.167551 
-0.008541 -0.165270 
-0.010842 -0.174088 
-0.009823 -0.170697 
-0.011974 -0.175192 
-0.037000 -0.144371 
-0.017641 -0.155016 
-0.020255 -0.152926 
-0.022743 -0.176422 
-0.020769 -0.167982 
-0.032226 -0.174946 
-0.012378 -0.163281 
-0.013622 -0.161347 
-0.011946 -0.165221 
-0.013880 -0.175918 
-0.012524 -0.170517 
-0.017045 -0.176377 
-0.001124 -0.134051 
-0.001246 -0.129709 
-0.000849 -0.141070 
-0.000991 -0.137849 
-0.003155 -0.139077 
-0.002032 -0.138317 
-0.002748 -0.142499 
-0.000269 -0.147270 
-0.000407 -0.146832 
-0.001585 -0.149205 
-0.000917 -0.147770 
-0.001278 -0.150154 
-0.000553 -0.145611 
-0.000701 -0.143672 
-0.005979 -0.157375 
-0.004704 -0.155243 
-0.005720 -0.159536 
-0.003348 -0.146682 
-0.003954 -0.150929 
-0.004498 -0.148234 
-0.003219 -0.154756 
-0.003509 -0.153100 
-0.002454 -0.151044 
-0.001467 -0.144321 
-0.001946 -0.147592 
-0.002339 -0.145347 
-0.012281 -0.167486 
-0.009541 -0.164354 
-0.012059 -0.165285 
-0.011007 -0.161182 
-0.005782 -0.156790 
-0.005809 -0.161251 
-0.003155 -0.155921 
-0.004472 -0.158674 
-0.006375 -0.162565 
-0.007573 -0.163552 
-0.000485 -0.148316 
-0.002532 -0.153170 
-0.000953 -0.149877 
-0.001054 -0.150399 
-0.001980 -0.153123 
-0.005914 -0.160531 
-0.003418 -0.156633 
-0.004177 -0.156932 
-0.025276 -0.193956 
-0.021644 -0.190211 
-0.017091 -0.185947 
-0.018986 -0.188374 
-0.020017 -0.190285 
-0.017952 -0.186283 
-0.014640 -0.181885 
-0.016594 -0.172296 
-0.015848 -0.176172 
-0.017505 -0.176021 
-0.012892 -0.174388 
-0.014329 -0.175594 
-0.013428 -0.171202 
-0.017387 -0.183901 
-0.015608 -0.179771 
-0.015988 -0.183050 
-0.009083 -0.168130 
-0.008130 -0.163843 
-0.012072 -0.177180 
-0.010298 -0.172532 
-0.010603 -0.168009 
-0.010245 -0.170504 
-0.011523 -0.172650 
-0.014682 -0.181671 
-0.012838 -0.177228 
-0.013378 -0.179725 
-0.030074 -0.132915 
-0.028290 -0.138631 
-0.030736 -0.137111 
-0.023452 -0.139614 
-0.025861 -0.139418 
-0.024999 -0.133832 
-0.026800 -0.147865 
-0.026430 -0.144119 
-0.024536 -0.149380 
-0.014389 -0.136839 
-0.016532 -0.137870 
-0.015374 -0.131245 
-0.018080 -0.149854 
-0.017428 -0.144097 
-0.016054 -0.149081 
-0.020029 -0.133000 
-0.018768 -0.138735 
-0.021081 -0.139349 
-0.019614 -0.167286 
-0.019188 -0.163811 
-0.017740 -0.168171 
-0.022657 -0.154414 
-0.020853 -0.159224 
-0.022925 -0.157898 
-0.016977 -0.159607 
-0.018874 -0.159745 
-0.018538 -0.155084 
-0.021829 -0.145085 
-0.020174 -0.150242 
-0.022327 -0.150127 
-0.002549 -0.130042 
-0.001369 -0.124850 
-0.004384 -0.140086 
-0.003550 -0.135107 
-0.004247 -0.125637 
-0.003918 -0.130618 
-0.005376 -0.131399 
-0.007271 -0.159417 
-0.006485 -0.154748 
-0.007941 -0.148068 
-0.007160 -0.151646 
-0.008622 -0.153358 
-0.005777 -0.149915 
-0.005102 -0.145017 
-0.011172 -0.129157 
-0.010428 -0.134553 
-0.012352 -0.135713 
-0.006941 -0.132346 
-0.008624 -0.133413 
-0.007473 -0.127170 
-0.010459 -0.145429 
-0.009617 -0.139512 
-0.008775 -0.144021 
-0.005730 -0.141287 
-0.007195 -0.142620 
-0.006352 -0.137058 
-0.015995 -0.168251 
-0.015157 -0.158945 
-0.015556 -0.163805 
-0.014346 -0.167672 
-0.012781 -0.166566 
-0.013329 -0.142023 
-0.011161 -0.151117 
-0.012237 -0.146786 
-0.014105 -0.148028 
-0.014698 -0.153680 
-0.008567 -0.161391 
-0.011299 -0.165063 
-0.009899 -0.163298 
-0.009265 -0.158436 
-0.010151 -0.155005 
-0.013413 -0.157884 
-0.011745 -0.156538 
-0.012258 -0.161683 
-0.034349 -0.125681 
-0.031728 -0.126979 
-0.034436 -0.114347 
-0.033194 -0.120792 
-0.037273 -0.113473 
-0.029062 -0.127617 
-0.026385 -0.127736 
-0.036285 -0.085761 
-0.036390 -0.093352 
-0.039649 -0.086186 
-0.029271 -0.107530 
-0.032887 -0.100530 
-0.029659 -0.100143 
-0.039160 -0.100326 
-0.036081 -0.100638 
-0.035413 -0.107632 
-0.018626 -0.126137 
-0.016226 -0.125251 
-0.023731 -0.127461 
-0.021135 -0.126898 
-0.022782 -0.113617 
-0.022067 -0.120436 
-0.025638 -0.114204 
-0.031516 -0.114674 
-0.028566 -0.114588 
-0.027589 -0.121322 
-0.007729 -0.010436 
-0.015725 -0.021592 
-0.013163 -0.014080 
-0.018701 -0.039047 
-0.017699 -0.030191 
-0.014513 -0.029197 
-0.026934 -0.036046 
-0.021932 -0.032252 
-0.026644 -0.042328 
-0.016075 -0.073278 
-0.017435 -0.065093 
-0.014891 -0.064648 
-0.023460 -0.066332 
-0.020284 -0.065641 
-0.021695 -0.074415 
-0.016077 -0.047372 
-0.018410 -0.056611 
-0.018880 -0.047899 
-0.038284 -0.070949 
-0.034556 -0.069580 
-0.035699 -0.077845 
-0.030175 -0.051869 
-0.032756 -0.060935 
-0.034413 -0.054411 
-0.028389 -0.075957 
-0.030704 -0.068299 
-0.026956 -0.067209 
-0.022170 -0.048720 
-0.024906 -0.058123 
-0.025975 -0.049993 
-0.002984 -0.119749 
-0.001489 -0.119498 
-0.006182 -0.120802 
-0.004539 -0.120192 
-0.004905 -0.108018 
-0.004761 -0.114311 
-0.006665 -0.108491 
-0.013952 -0.124300 
-0.011810 -0.123338 
-0.012674 -0.110510 
-0.012320 -0.117117 
-0.014971 -0.111306 
-0.009805 -0.122409 
-0.007932 -0.121552 
-0.012144 -0.080634 
-0.012596 -0.088575 
-0.014433 -0.081117 
-0.008645 -0.102268 
-0.010644 -0.095629 
-0.008618 -0.095107 
-0.015190 -0.096859 
-0.012829 -0.096217 
-0.012849 -0.103536 
-0.008291 -0.115514 
-0.010531 -0.109759 
-0.008533 -0.109078 
-0.032782 -0.085106 
-0.025876 -0.083613 
-0.029274 -0.084361 
-0.029678 -0.092422 
-0.026474 -0.099585 
-0.016940 -0.081655 
-0.017738 -0.097538 
-0.017489 -0.089750 
-0.019681 -0.082250 
-0.022664 -0.082903 
-0.016922 -0.118870 
-0.023239 -0.106447 
-0.020036 -0.112901 
-0.017427 -0.112115 
-0.017709 -0.104999 
-0.023220 -0.091081 
-0.020478 -0.098238 
-0.023399 -0.098932 
0.000000 0.000000 
-0.005896 -0.009788 
-0.004026 -0.009515 
-0.004809 -0.009584 
0.000000 0.000000 
-0.009775 -0.019327 
-0.012112 -0.028734 
-0.002066 -0.009513 
-0.002451 -0.009504 
0.000000 0.000000 
-0.007298 -0.028311 
-0.004908 -0.018942 
-0.006141 -0.028262 
0.000000 0.000000 
-0.002893 -0.009497 
-0.003407 -0.009496 
-0.013392 -0.055800 
-0.012615 -0.064277 
-0.013317 -0.037982 
-0.013677 -0.047021 
-0.009779 -0.046578 
-0.011599 -0.046770 
-0.009551 -0.037596 
-0.006857 -0.018999 
-0.008634 -0.028383 
-0.010207 -0.028505 
-0.000000 -0.009526 
-0.000210 -0.009528 
0.000000 0.000000 
-0.000625 -0.028080 
-0.000420 -0.018890 
-0.000000 -0.028072 
0.000000 0.000000 
-0.000425 -0.009529 
-0.000649 -0.009529 
-0.001305 -0.062921 
-0.001163 -0.054527 
-0.000000 -0.062888 
-0.002527 -0.037151 
-0.002021 -0.045950 
-0.003082 -0.046007 
-0.000000 -0.045892 
-0.001001 -0.045911 
-0.000820 -0.037091 
0.000000 0.000000 
-0.001418 -0.009525 
-0.001724 -0.009520 
-0.000886 -0.009529 
-0.001141 -0.009528 
0.000000 0.000000 
-0.003385 -0.028161 
-0.002278 -0.018917 
-0.002629 -0.028135 
-0.001263 -0.028094 
-0.001927 -0.028112 
-0.001296 -0.018902 
-0.001560 -0.113688 
-0.000000 -0.119443 
-0.004969 -0.101340 
-0.003229 -0.107672 
-0.000000 -0.107390 
-0.001604 -0.107462 
-0.001622 -0.100850 
-0.011467 -0.072420 
-0.010048 -0.080205 
-0.006329 -0.079519 
-0.008119 -0.079832 
-0.007646 -0.071770 
-0.008443 -0.087620 
-0.006728 -0.094662 
-0.000000 -0.078920 
-0.001514 -0.078968 
-0.001423 -0.071075 
-0.001614 -0.093880 
-0.001578 -0.086578 
-0.000000 -0.093818 
-0.004374 -0.071318 
-0.003055 -0.079084 
-0.004651 -0.079269 
-0.004949 -0.094305 
-0.004843 -0.086940 
-0.003254 -0.094043 
-0.003445 -0.018929 
-0.004437 -0.037253 
-0.004209 -0.028191 
-0.005120 -0.028224 
-0.006707 -0.037394 
-0.002635 -0.062995 
-0.005471 -0.063264 
-0.004015 -0.063109 
-0.003582 -0.054666 
-0.004204 -0.046083 
-0.010570 -0.063961 
-0.008166 -0.046422 
-0.009463 -0.055286 
-0.008719 -0.063689 
-0.007030 -0.063457 
-0.005409 -0.046178 
-0.006279 -0.054919 
-0.006720 -0.046290 
0.000000 0.000000 
0.000210 -0.009528 
0.000649 -0.009529 
0.000425 -0.009529 
0.000000 0.000000 
0.000420 -0.018890 
0.000625 -0.028080 
0.001724 -0.009520 
0.001418 -0.009525 
0.000000 0.000000 
0.002629 -0.028135 
0.002278 -0.018917 
0.003385 -0.028161 
0.000000 0.000000 
0.001141 -0.009528 
0.000886 -0.009529 
0.001163 -0.054527 
0.001305 -0.062921 
0.000820 -0.037091 
0.001001 -0.045911 
0.003082 -0.046007 
0.002021 -0.045950 
0.002527 -0.037151 
0.001296 -0.018902 
0.001927 -0.028112 
0.001263 -0.028094 
0.007729 -0.010436 
0.005896 -0.009788 
0.000000 0.000000 
0.012112 -0.028734 
0.009775 -0.019327 
0.014513 -0.029197 
0.000000 0.000000 
0.004809 -0.009584 
0.004026 -0.009515 
0.012615 -0.064277 
0.013392 -0.055800 
0.014891 -0.064648 
0.009551 -0.037596 
0.011599 -0.046770 
0.009779 -0.046578 
0.016077 -0.047372 
0.013677 -0.047021 
0.013317 -0.037982 
0.000000 0.000000 
0.002451 -0.009504 
0.002066 -0.009513 
0.003407 -0.009496 
0.002893 -0.009497 
0.000000 0.000000 
0.006141 -0.028262 
0.004908 -0.018942 
0.007298 -0.028311 
0.010207 -0.028505 
0.008634 -0.028383 
0.006857 -0.018999 
0.001560 -0.113688 
0.001489 -0.119498 
0.001622 -0.100850 
0.001604 -0.107462 
0.004905 -0.108018 
0.003229 -0.107672 
0.004969 -0.101340 
0.001423 -0.071075 
0.001514 -0.078968 
0.004651 -0.079269 
0.003055 -0.079084 
0.004374 -0.071318 
0.001578 -0.086578 
0.001614 -0.093880 
0.012144 -0.080634 
0.010048 -0.080205 
0.011467 -0.072420 
0.006728 -0.094662 
0.008443 -0.087620 
0.008618 -0.095107 
0.007646 -0.071770 
0.008119 -0.079832 
0.006329 -0.079519 
0.003254 -0.094043 
0.004843 -0.086940 
0.004949 -0.094305 
0.003445 -0.018929 
0.006707 -0.037394 
0.005120 -0.028224 
0.004209 -0.028191 
0.004437 -0.037253 
0.010570 -0.063961 
0.007030 -0.063457 
0.008719 -0.063689 
0.009463 -0.055286 
0.008166 -0.046422 
0.002635 -0.062995 
0.004204 -0.046083 
0.003582 -0.054666 
0.004015 -0.063109 
0.005471 -0.063264 
0.006720 -0.046290 
0.006279 -0.054919 
0.005409 -0.046178 
0.013163 -0.014080 
0.015725 -0.021592 
0.026644 -0.042328 
0.021932 -0.032252 
0.026934 -0.036046 
0.017699 -0.030191 
0.018701 -0.039047 
0.035699 -0.077845 
0.034556 -0.069580 
0.038284 -0.070949 
0.026956 -0.067209 
0.030704 -0.068299 
0.028389 -0.075957 
0.034413 -0.054411 
0.032756 -0.060935 
0.030175 -0.051869 
0.017435 -0.065093 
0.016075 -0.073278 
0.018880 -0.047899 
0.018410 -0.056611 
0.021695 -0.074415 
0.020284 -0.065641 
0.023460 -0.066332 
0.025975 -0.049993 
0.024906 -0.058123 
0.022170 -0.048720 
0.030074 -0.132915 
0.031728 -0.126979 
0.034349 -0.125681 
0.026385 -0.127736 
0.029062 -0.127617 
0.024999 -0.133832 
0.037273 -0.113473 
0.033194 -0.120792 
0.034436 -0.114347 
0.016226 -0.125251 
0.018626 -0.126137 
0.015374 -0.131245 
0.025638 -0.114204 
0.022067 -0.120436 
0.022782 -0.113617 
0.020029 -0.133000 
0.021135 -0.126898 
0.023731 -0.127461 
0.039649 -0.086186 
0.036390 -0.093352 
0.036285 -0.085761 
0.035413 -0.107632 
0.036081 -0.100638 
0.039160 -0.100326 
0.029659 -0.100143 
0.032887 -0.100530 
0.029271 -0.107530 
0.027589 -0.121322 
0.028566 -0.114588 
0.031516 -0.114674 
0.002984 -0.119749 
0.001369 -0.124850 
0.006665 -0.108491 
0.004761 -0.114311 
0.004247 -0.125637 
0.004539 -0.120192 
0.006182 -0.120802 
0.014433 -0.081117 
0.012596 -0.088575 
0.012849 -0.103536 
0.012829 -0.096217 
0.015190 -0.096859 
0.010644 -0.095629 
0.008645 -0.102268 
0.011172 -0.129157 
0.011810 -0.123338 
0.013952 -0.124300 
0.007932 -0.121552 