# vtk DataFile Version 2.0
Unstructured Grid Example
ASCII
DATASET UNSTRUCTURED_GRID

POINTS 4225 float
0.024199 -0.191430 0.000000 
0.975790 -0.191437 0.000000 
1.000000 1.000000 0.000000 
0.000000 1.000000 0.000000 
0.499993 -0.100000 0.000000 
0.967267 0.369395 0.000000 
0.500000 1.000000 0.000000 
0.032731 0.369398 0.000000 
0.500000 0.374362 0.000000 
0.264958 -0.100110 0.000000 
0.499999 0.100766 0.000000 
0.256703 0.088263 0.000000 
0.735028 -0.100110 0.000000 
0.743292 0.088259 0.000000 
0.982714 0.080532 0.000000 
0.736412 0.369688 0.000000 
0.960516 0.671484 0.000000 
0.736054 0.677157 0.000000 
0.750000 1.000000 0.000000 
0.500000 0.678728 0.000000 
0.250000 1.000000 0.000000 
0.263946 0.677157 0.000000 
0.039484 0.671486 0.000000 
0.263586 0.369690 0.000000 
0.017282 0.080537 0.000000 
0.151253 -0.179254 0.000000 
0.258969 -0.039722 0.000000 
0.136079 -0.051982 0.000000 
0.499997 -0.018544 0.000000 
0.377872 -0.029499 0.000000 
0.359054 -0.100038 0.000000 
0.379113 0.230389 0.000000 
0.377246 0.096233 0.000000 
0.499999 0.232751 0.000000 
0.640934 -0.100038 0.000000 
0.622125 -0.029508 0.000000 
0.863915 -0.051987 0.000000 
0.741026 -0.039724 0.000000 
0.848736 -0.179258 0.000000 
0.622751 0.096228 0.000000 
0.620885 0.230386 0.000000 
0.984238 -0.059428 0.000000 
0.863747 0.081394 0.000000 
0.852191 0.366875 0.000000 
0.858381 0.221165 0.000000 
0.975385 0.223495 0.000000 
0.740264 0.225263 0.000000 
0.618924 0.373072 0.000000 
0.961369 0.518425 0.000000 
0.848412 0.518195 0.000000 
0.859062 0.836688 0.000000 
0.849765 0.675006 0.000000 
0.968579 0.829506 0.000000 
0.734436 0.520687 0.000000 
0.618016 0.522900 0.000000 
0.875000 1.000000 0.000000 
0.741796 0.837515 0.000000 
0.500000 0.837834 0.000000 
0.621456 0.837741 0.000000 
0.625000 1.000000 0.000000 
0.618872 0.678308 0.000000 
0.500000 0.523757 0.000000 
0.375000 1.000000 0.000000 
0.378544 0.837742 0.000000 
0.140938 0.836688 0.000000 
0.258204 0.837515 0.000000 
0.125000 1.000000 0.000000 
0.381128 0.678309 0.000000 
0.381983 0.522901 0.000000 
0.031421 0.829507 0.000000 
0.150235 0.675007 0.000000 
0.147807 0.366877 0.000000 
0.151587 0.518197 0.000000 
0.038630 0.518427 0.000000 
0.265563 0.520688 0.000000 
0.381075 0.373074 0.000000 
0.024612 0.223500 0.000000 
0.141616 0.221168 0.000000 
0.136249 0.081397 0.000000 
0.015754 -0.059421 0.000000 
0.259733 0.225266 0.000000 
0.086768 -0.186554 0.000000 
0.140441 -0.116645 0.000000 
0.080071 -0.122919 0.000000 
0.262286 -0.096976 0.000000 
0.199784 -0.104702 0.000000 
0.216811 -0.160064 0.000000 
0.195730 0.018653 0.000000 
0.196684 -0.044649 0.000000 
0.256804 0.022870 0.000000 
0.499994 -0.077822 0.000000 
0.433748 -0.057184 0.000000 
0.432165 -0.100000 0.000000 
0.438053 0.037522 0.000000 
0.438420 -0.020946 0.000000 
0.499999 0.039363 0.000000 
0.293454 -0.084660 0.000000 
0.365098 -0.073307 0.000000 
0.308045 -0.081947 0.000000 
0.439955 0.302077 0.000000 
0.439409 0.232128 0.000000 
0.499999 0.302521 0.000000 
0.316892 0.092110 0.000000 
0.378076 0.162177 0.000000 
0.317826 0.159035 0.000000 
0.499999 0.165377 0.000000 
0.438841 0.164511 0.000000 
0.438335 0.099517 0.000000 
0.319228 -0.036912 0.000000 
0.376912 0.032565 0.000000 
0.317003 0.026973 0.000000 
0.567824 -0.100000 0.000000 
0.566243 -0.057174 0.000000 
0.691959 -0.081984 0.000000 
0.634904 -0.073317 0.000000 
0.706539 -0.084670 0.000000 
0.561575 -0.020953 0.000000 
0.561944 0.037517 0.000000 
0.919920 -0.122924 0.000000 
0.859550 -0.116650 0.000000 
0.913221 -0.186559 0.000000 
0.743191 0.022867 0.000000 
0.803311 -0.044652 0.000000 
0.804265 0.018650 0.000000 
0.783177 -0.160066 0.000000 
0.800208 -0.104705 0.000000 
0.737707 -0.096979 0.000000 
0.560589 0.232127 0.000000 
0.560044 0.302077 0.000000 
0.561663 0.099514 0.000000 
0.561157 0.164509 0.000000 
0.682171 0.159032 0.000000 
0.621922 0.162173 0.000000 
0.683104 0.092105 0.000000 
0.680766 -0.036921 0.000000 
0.682992 0.026966 0.000000 
0.623085 0.032558 0.000000 
0.980948 -0.127039 0.000000 
0.924040 -0.056873 0.000000 
0.923453 0.079642 0.000000 
0.924905 0.010731 0.000000 
0.984616 0.010062 0.000000 
0.864835 0.013914 0.000000 
0.803645 0.084646 0.000000 
0.909709 0.367025 0.000000 
0.913256 0.293475 0.000000 
0.971194 0.296033 0.000000 
0.796874 0.294592 0.000000 
0.855179 0.293307 0.000000 
0.794482 0.367986 0.000000 
0.979402 0.151684 0.000000 
0.917015 0.221054 0.000000 
0.920590 0.149768 0.000000 
0.619834 0.300742 0.000000 
0.559574 0.374114 0.000000 
0.742101 0.155783 0.000000 
0.680763 0.227932 0.000000 
0.677894 0.371502 0.000000 
0.679247 0.298789 0.000000 
0.738249 0.296597 0.000000 
0.861398 0.150501 0.000000 
0.799466 0.222830 0.000000 
0.801876 0.152798 0.000000 
0.963847 0.443424 0.000000 
0.906785 0.441723 0.000000 
0.904132 0.594788 0.000000 
0.904809 0.517623 0.000000 
0.960128 0.594421 0.000000 
0.849834 0.441842 0.000000 
0.792670 0.442937 0.000000 
0.925314 0.917607 0.000000 
0.914958 0.834796 0.000000 
0.978668 0.911663 0.000000 
0.793437 0.676258 0.000000 
0.853281 0.755349 0.000000 
0.796506 0.756394 0.000000 
0.963059 0.749746 0.000000 
0.908524 0.753274 0.000000 
0.905181 0.673301 0.000000 
0.618274 0.447189 0.000000 
0.559231 0.448006 0.000000 
0.735064 0.444427 0.000000 
0.676924 0.445932 0.000000 
0.676780 0.599278 0.000000 
0.676512 0.521916 0.000000 
0.734723 0.598322 0.000000 
0.848267 0.595925 0.000000 
0.791890 0.597180 0.000000 
0.791714 0.519365 0.000000 
0.937500 1.000000 0.000000 
0.866756 0.918432 0.000000 
0.745782 0.918567 0.000000 
0.806600 0.918558 0.000000 
0.812500 1.000000 0.000000 
0.801031 0.837281 0.000000 
0.738454 0.756970 0.000000 
0.500000 0.918578 0.000000 
0.561624 0.918572 0.000000 
0.562500 1.000000 0.000000 
0.560079 0.757777 0.000000 
0.560793 0.837804 0.000000 
0.500000 0.757845 0.000000 
0.687500 1.000000 0.000000 
0.623179 0.918566 0.000000 
0.684596 0.918564 0.000000 
0.559109 0.523532 0.000000 
0.500000 0.448272 0.000000 
0.677787 0.677824 0.000000 
0.618209 0.600007 0.000000 
0.500000 0.600639 0.000000 
0.559210 0.600469 0.000000 
0.559539 0.678612 0.000000 
0.681850 0.837648 0.000000 
0.619980 0.757610 0.000000 
0.679514 0.757347 0.000000 
0.437500 1.000000 0.000000 
0.438376 0.918572 0.000000 
0.315405 0.918564 0.000000 
0.376821 0.918566 0.000000 
0.312500 1.000000 0.000000 
0.439207 0.837804 0.000000 
0.439921 0.757777 0.000000 
0.074686 0.917608 0.000000 
0.133244 0.918432 0.000000 
0.062500 1.000000 0.000000 
0.261546 0.756971 0.000000 
0.198969 0.837281 0.000000 
0.203494 0.756395 0.000000 
0.187500 1.000000 0.000000 
0.193400 0.918558 0.000000 
0.254218 0.918567 0.000000 
0.440890 0.523532 0.000000 
0.440768 0.448007 0.000000 
0.440461 0.678612 0.000000 
0.440789 0.600469 0.000000 
0.323220 0.599279 0.000000 
0.381791 0.600008 0.000000 
0.322213 0.677825 0.000000 
0.318150 0.837648 0.000000 
0.320486 0.757347 0.000000 
0.380020 0.757611 0.000000 
0.021331 0.911663 0.000000 
0.085042 0.834796 0.000000 
0.094819 0.673302 0.000000 
0.091476 0.753275 0.000000 
0.036940 0.749747 0.000000 
0.146719 0.755350 0.000000 
0.206562 0.676259 0.000000 
0.090289 0.367028 0.000000 
0.093213 0.441725 0.000000 
0.036152 0.443427 0.000000 
0.207328 0.442939 0.000000 
0.150165 0.441844 0.000000 
0.205516 0.367989 0.000000 
0.039871 0.594423 0.000000 
0.095190 0.517625 0.000000 
0.095867 0.594789 0.000000 
0.381725 0.447190 0.000000 
0.440425 0.374115 0.000000 
0.265277 0.598323 0.000000 
0.323488 0.521917 0.000000 
0.322104 0.371504 0.000000 
0.323075 0.445934 0.000000 
0.264934 0.444429 0.000000 
0.151732 0.595926 0.000000 
0.208285 0.519366 0.000000 
0.208110 0.597182 0.000000 
0.028803 0.296037 0.000000 
0.086742 0.293479 0.000000 
0.079406 0.149772 0.000000 
0.082982 0.221057 0.000000 
0.020594 0.151689 0.000000 
0.144819 0.293310 0.000000 
0.203124 0.294595 0.000000 
0.075953 -0.056868 0.000000 
0.019043 -0.127032 0.000000 
0.196351 0.084650 0.000000 
0.135160 0.013918 0.000000 
0.015378 0.010068 0.000000 
0.075089 0.010736 0.000000 
0.076542 0.079647 0.000000 
0.380165 0.300744 0.000000 
0.261749 0.296600 0.000000 
0.320751 0.298791 0.000000 
0.319235 0.227935 0.000000 
0.257896 0.155786 0.000000 
0.138598 0.150505 0.000000 
0.198121 0.152802 0.000000 
0.200531 0.222833 0.000000 
0.055299 -0.188931 0.000000 
0.083348 -0.155119 0.000000 
0.052414 -0.157362 0.000000 
0.144958 -0.148436 0.000000 
0.114256 -0.152360 0.000000 
0.118750 -0.183591 0.000000 
0.107697 -0.087707 0.000000 
0.110403 -0.120289 0.000000 
0.137668 -0.084445 0.000000 
0.268974 -0.121243 0.000000 
0.234082 -0.120716 0.000000 
0.249125 -0.140522 0.000000 
0.228948 -0.070522 0.000000 
0.230456 -0.097569 0.000000 
0.260777 -0.069265 0.000000 
0.184131 -0.172243 0.000000 
0.204529 -0.133663 0.000000 
0.175157 -0.142533 0.000000 
0.226207 0.053386 0.000000 
0.226265 0.020955 0.000000 
0.256543 0.055280 0.000000 
0.166216 -0.048498 0.000000 
0.195993 -0.013381 0.000000 
0.165526 -0.016400 0.000000 
0.257593 -0.008868 0.000000 
0.226756 -0.010698 0.000000 
0.227685 -0.041328 0.000000 
0.170146 -0.111525 0.000000 
0.197840 -0.075072 0.000000 
0.167596 -0.080162 0.000000 
0.499994 -0.066268 0.000000 
0.465527 -0.076920 0.000000 
0.467508 -0.100000 0.000000 
0.470841 -0.045004 0.000000 
0.465056 -0.067909 0.000000 
0.499994 -0.048039 0.000000 
0.396306 -0.100000 0.000000 
0.430977 -0.079339 0.000000 
0.397695 -0.084776 0.000000 
0.469021 0.069250 0.000000 
0.468964 0.038914 0.000000 
0.499999 0.069634 0.000000 
0.407072 -0.022954 0.000000 
0.438113 0.007801 0.000000 
0.407180 0.005606 0.000000 
0.499998 0.009983 0.000000 
0.468983 0.009504 0.000000 
0.469015 -0.018971 0.000000 
0.264372 -0.070642 0.000000 
0.303959 -0.055693 0.000000 
0.283925 -0.085933 0.000000 
0.365830 -0.070933 0.000000 
0.332452 -0.064159 0.000000 
0.325279 -0.094891 0.000000 
0.351093 -0.063225 0.000000 
0.339675 -0.092602 0.000000 
0.379407 -0.061499 0.000000 
0.437782 -0.049162 0.000000 
0.406531 -0.048207 0.000000 
0.400245 -0.065593 0.000000 
[...]
POINT_DATA 4225

SCALARS u_h float 2
LOOKUP_TABLE default
0.024199 -0.191430 
-0.024210 -0.191437 
0.000000 0.000000 
0.000000 0.000000 
-0.000007 -0.100000 
-0.032733 -0.130605 
0.000000 0.000000 
0.032731 -0.130602 
-0.000000 -0.125638 
0.014958 -0.100110 
-0.000001 -0.149234 
0.006703 -0.161737 
-0.014972 -0.100110 
-0.006708 -0.161741 
-0.017286 -0.169468 
-0.013588 -0.130312 
-0.039484 -0.078516 
-0.013946 -0.072843 
0.000000 0.000000 
0.000000 -0.071272 
0.000000 0.000000 
0.013946 -0.072843 
0.039484 -0.078514 
0.013586 -0.130310 
0.017282 -0.169463 
0.026253 -0.179254 
0.008969 -0.164722 
0.011079 -0.176982 
-0.000003 -0.143544 
0.002872 -0.154499 
-0.015946 -0.100038 
0.004113 -0.144611 
0.002246 -0.153767 
-0.000001 -0.142249 
0.015934 -0.100038 
-0.002875 -0.154508 
-0.011085 -0.176987 
-0.008974 -0.164724 
-0.026264 -0.179258 
-0.002249 -0.153772 
-0.004115 -0.144614 
-0.015762 -0.184428 
-0.011253 -0.168606 
-0.022809 -0.133125 
-0.016619 -0.153835 
-0.024615 -0.151505 
-0.009736 -0.149737 
-0.006076 -0.126928 
-0.038631 -0.106575 
-0.026588 -0.106805 
-0.015938 -0.038312 
-0.025235 -0.074994 
-0.031421 -0.045494 
-0.015564 -0.104313 
-0.006984 -0.102100 
0.000000 0.000000 
-0.008204 -0.037485 
0.000000 -0.037166 
-0.003544 -0.037259 
0.000000 0.000000 
-0.006128 -0.071692 
-0.000000 -0.101243 
0.000000 0.000000 
0.003544 -0.037258 
0.015938 -0.038312 
0.008204 -0.037485 
0.000000 0.000000 
0.006128 -0.071691 
0.006983 -0.102099 
0.031421 -0.045493 
0.025235 -0.074993 
0.022807 -0.133123 
0.026587 -0.106803 
0.038630 -0.106573 
0.015563 -0.104312 
0.006075 -0.126926 
0.024612 -0.151500 
0.016616 -0.153832 
0.011249 -0.168603 
0.015754 -0.184421 
0.009733 -0.149734 
0.024268 -0.186554 
0.015441 -0.179145 
0.017571 -0.185419 
0.012286 -0.159476 
0.012284 -0.167202 
0.029311 -0.160064 
0.008230 -0.168847 
0.009184 -0.169649 
0.006804 -0.164630 
-0.000006 -0.140322 
-0.003752 -0.119684 
-0.005335 -0.100000 
0.000553 -0.149978 
0.000920 -0.145946 
-0.000001 -0.148137 
-0.019046 -0.084660 
-0.009902 -0.135807 
-0.004455 -0.144447 
0.002455 -0.135423 
0.001909 -0.142872 
-0.000001 -0.134979 
0.004392 -0.157890 
0.003076 -0.150323 
0.005326 -0.153465 
-0.000001 -0.147123 
0.001341 -0.147989 
0.000835 -0.150483 
0.006728 -0.161912 
0.001912 -0.154935 
0.004503 -0.160527 
0.005324 -0.100000 
0.003743 -0.119674 
0.004459 -0.144484 
0.009904 -0.135817 
0.019039 -0.084670 
-0.000925 -0.145953 
-0.000556 -0.149983 
-0.017580 -0.185424 
-0.015450 -0.179150 
-0.024279 -0.186559 
-0.006809 -0.164633 
-0.009189 -0.169652 
-0.008235 -0.168850 
-0.029323 -0.160066 
-0.012292 -0.167205 
-0.012293 -0.159479 
-0.001911 -0.142873 
-0.002456 -0.135423 
-0.000837 -0.150486 
-0.001343 -0.147991 
-0.005329 -0.153468 
-0.003078 -0.150327 
-0.004396 -0.157895 
-0.006734 -0.161921 
-0.004508 -0.160534 
-0.001915 -0.154942 
-0.019052 -0.189539 
-0.013460 -0.181873 
-0.014047 -0.170358 
-0.012595 -0.176769 
-0.015384 -0.177438 
-0.010165 -0.173586 
-0.008855 -0.165354 
-0.027791 -0.132975 
-0.024244 -0.144025 
-0.028806 -0.141467 
-0.015626 -0.142908 
-0.019821 -0.144193 
-0.018018 -0.132014 
-0.020598 -0.160816 
-0.020485 -0.153946 
-0.016910 -0.162732 
-0.005166 -0.136758 
-0.002926 -0.125886 
-0.007899 -0.156717 
-0.006737 -0.147068 
-0.009606 -0.128498 
-0.008253 -0.138711 
-0.011751 -0.140903 
-0.013602 -0.161999 
-0.013034 -0.152170 
-0.010624 -0.159702 
-0.036153 -0.119076 
-0.030715 -0.120777 
-0.033368 -0.092712 
-0.032691 -0.107377 
-0.039872 -0.093079 
-0.025166 -0.120658 
-0.019830 -0.119563 
-0.012186 -0.019893 
-0.022542 -0.040204 
-0.021332 -0.025837 
-0.019063 -0.073742 
-0.021719 -0.057151 
-0.015994 -0.056106 
-0.036941 -0.062754 
-0.028976 -0.059226 
-0.032319 -0.076699 
-0.006726 -0.115311 
-0.003269 -0.114494 
-0.014936 -0.118073 
-0.010576 -0.116568 
-0.010720 -0.088222 
-0.010988 -0.103084 
-0.015277 -0.089178 
-0.026733 -0.091575 
-0.020610 -0.090320 
-0.020786 -0.105635 
0.000000 0.000000 
-0.008244 -0.019068 
-0.004218 -0.018933 
-0.005900 -0.018942 
0.000000 0.000000 
-0.011469 -0.037719 
-0.011546 -0.055530 
0.000000 -0.018922 
-0.000876 -0.018928 
0.000000 0.000000 
-0.002421 -0.054723 
-0.001707 -0.037196 
0.000000 -0.054655 
0.000000 0.000000 
-0.001821 -0.018934 
-0.002904 -0.018936 
-0.003391 -0.101468 
-0.000000 -0.114228 
-0.009713 -0.072176 
-0.006791 -0.087493 
-0.000000 -0.086861 
-0.003290 -0.087031 
-0.002961 -0.071388 
-0.005650 -0.037352 
-0.005020 -0.054890 
-0.007986 -0.055153 
0.000000 0.000000 
0.000876 -0.018928 
0.002905 -0.018936 
0.001821 -0.018934 
0.000000 0.000000 
0.001707 -0.037196 
0.002421 -0.054723 
0.012186 -0.019892 
0.008244 -0.019068 
0.000000 0.000000 
0.011546 -0.055529 
0.011469 -0.037719 
0.015994 -0.056105 
0.000000 0.000000 
0.005900 -0.018942 
0.004218 -0.018933 
0.003390 -0.101468 
0.003268 -0.114493 
0.002961 -0.071388 
0.003289 -0.087031 
0.010720 -0.088221 
0.006791 -0.087492 
0.009713 -0.072175 
0.005650 -0.037352 
0.007986 -0.055153 
0.005020 -0.054889 
0.021331 -0.025837 
0.022542 -0.040204 
0.032319 -0.076698 
0.028976 -0.059225 
0.036940 -0.062753 
0.021719 -0.057150 
0.019062 -0.073741 
0.027789 -0.132972 
0.030713 -0.120775 
0.036152 -0.119073 
0.019828 -0.119561 
0.025165 -0.120656 
0.018016 -0.132011 
0.039871 -0.093077 
0.032690 -0.107375 
0.033367 -0.092711 
0.006725 -0.115310 
0.002925 -0.125885 
0.015277 -0.089177 
0.010988 -0.103083 
0.009604 -0.128496 
0.010575 -0.116566 
0.014934 -0.118071 
0.026732 -0.091574 
0.020785 -0.105634 
0.020610 -0.090318 
0.028803 -0.141463 
0.024242 -0.144021 
0.016906 -0.162728 
0.020482 -0.153943 
0.020594 -0.160811 
0.019819 -0.144190 
0.015624 -0.142905 
0.013453 -0.181868 
0.019043 -0.189532 
0.008851 -0.165350 
0.010160 -0.173582 
0.015378 -0.177432 
0.012589 -0.176764 
0.014042 -0.170353 
0.005165 -0.136756 
0.011749 -0.140900 
0.008251 -0.138709 
0.006735 -0.147065 
0.007896 -0.156714 
0.013598 -0.161995 
0.010621 -0.159698 
0.013031 -0.152167 
0.024049 -0.188931 
0.020848 -0.186369 
0.021164 -0.188612 
0.019958 -0.179686 
0.020506 -0.183610 
0.025000 -0.183591 
0.013947 -0.181457 
0.016653 -0.182789 
0.012668 -0.178195 
0.018974 -0.152493 
0.015332 -0.151966 
0.030375 -0.140522 
0.010198 -0.164272 
0.011706 -0.160069 
0.010777 -0.163015 
0.027881 -0.172243 
0.017029 -0.164913 
0.018907 -0.173783 
0.007457 -0.165364 
0.007515 -0.166545 
0.006543 -0.163470 
0.009966 -0.173498 
0.008493 -0.169631 
0.009276 -0.172650 
0.007593 -0.165118 
0.008006 -0.166948 
0.008935 -0.166328 
0.013896 -0.174025 
0.010340 -0.168822 
0.011346 -0.173912 
-0.000006 -0.097518 
-0.003223 -0.108170 
-0.001242 -0.100000 
0.002091 -0.138754 
-0.003694 -0.130409 
-0.000006 -0.141789 
-0.009944 -0.100000 
-0.006523 -0.110589 
-0.008555 -0.116026 
0.000271 -0.149500 
0.000214 -0.148586 
-0.000001 -0.149116 
0.000822 -0.147954 
0.000613 -0.148449 
0.000930 -0.150644 
-0.000002 -0.146267 
0.000233 -0.146746 
0.000265 -0.143971 
-0.016878 -0.070642 
-0.008541 -0.086943 
0.002675 -0.117183 
-0.009170 -0.102183 
-0.011298 -0.095409 
-0.018471 -0.094891 
0.007343 -0.156975 
-0.004075 -0.155102 
0.004407 -0.155249 
0.000282 -0.142912 
0.000281 -0.141957 
-0.006005 -0.128093 
0.001326 -0.130611 
0.001205 -0.135080 
-0.000000 -0.130547 
0.002962 -0.143622 
0.002189 -0.139423 
0.003374 -0.140074 
-0.000001 -0.138893 
0.001073 -0.139022 
0.000932 -0.142405 
0.005575 -0.159891 
0.004771 -0.155920 
0.005973 -0.157739 
0.002620 -0.152334 
0.003635 -0.154087 
0.003253 -0.155812 
0.004735 -0.149073 
0.004144 -0.151843 
0.003582 -0.147745 
-0.000001 -0.148550 
0.000500 -0.148816 
0.000373 -0.149554 
0.000786 -0.145192 
0.000641 -0.147344 
-0.000001 -0.145007 
0.001434 -0.151902 
0.001073 -0.149585 
0.001765 -0.150780 
0.002547 -0.146607 
0.002142 -0.149003 
0.001624 -0.145739 
0.009633 -0.167988 
0.004740 -0.158108 
0.009571 -0.161719 
0.010438 -0.165461 
0.008369 -0.164551 
0.000649 -0.150634 
0.001990 -0.154625 
0.001170 -0.152322 
0.001000 -0.151958 
0.002123 -0.154783 
0.005487 -0.161586 
0.006749 -0.163806 
0.005829 -0.162866 
0.004268 -0.159407 
0.003057 -0.157041 
0.003596 -0.158180 
0.003127 -0.157813 
0.005245 -0.161341 
0.001230 -0.100000 
0.003211 -0.108176 
0.008542 -0.116030 
0.006508 -0.110588 
0.009932 -0.100000 
0.003683 -0.130405 
-0.002102 -0.138754 
-0.002664 -0.117178 
0.008522 -0.086961 
0.016868 -0.070634 
-0.004409 -0.155256 
0.004071 -0.155114 
-0.007348 -0.156988 
0.018456 -0.094900 
0.011296 -0.095421 
0.009159 -0.102179 
-0.000216 -0.148589 
-0.000273 -0.149502 
-0.000271 -0.143973 
-0.000236 -0.146749 
-0.000933 -0.150652 
-0.000616 -0.148454 
-0.000826 -0.147963 
0.006005 -0.128047 
-0.000288 -0.141969 
-0.000292 -0.142920 
-0.021174 -0.188618 
-0.020858 -0.186375 
-0.024060 -0.188937 
-0.012676 -0.178199 
-0.016662 -0.182794 
-0.013955 -0.181462 
-0.025011 -0.183595 
-0.020515 -0.183615 
-0.019968 -0.179690 
-0.006547 -0.163474 
-0.007520 -0.166548 
-0.007461 -0.165367 
-0.008940 -0.166330 
-0.008011 -0.166951 
-0.007598 -0.165121 
-0.009281 -0.172654 
-0.008498 -0.169634 
-0.009972 -0.173502 
-0.030386 -0.140522 
-0.015341 -0.151966 
-0.018980 -0.152492 
-0.018917 -0.173787 
-0.017039 -0.164915 
-0.027892 -0.172246 
-0.010780 -0.163017 
-0.011714 -0.160072 
-0.010203 -0.164275 
-0.011353 -0.173916 
-0.010347 -0.168825 
-0.013905 -0.174029 
-0.001206 -0.135081 
-0.001327 -0.130611 
-0.000934 -0.142406 
-0.001075 -0.139023 
-0.003375 -0.140076 
-0.002191 -0.139424 
-0.002964 -0.143624 
-0.000375 -0.149556 
-0.000502 -0.148817 
-0.001767 -0.150783 
-0.001075 -0.149587 
-0.001436 -0.151906 
-0.000642 -0.147345 
-0.000788 -0.145193 
-0.005977 -0.157742 
-0.004774 -0.155923 
-0.005579 -0.159895 
-0.003584 -0.147747 
-0.004147 -0.151846 
-0.004737 -0.149075 
-0.003257 -0.155817 
-0.003638 -0.154091 
-0.002623 -0.152337 
-0.001625 -0.145741 
-0.002145 -0.149006 
-0.002549 -0.146610 
-0.009628 -0.167992 
-0.008374 -0.164555 
-0.010439 -0.165463 
-0.009575 -0.161728 
-0.004744 -0.158120 
-0.005492 -0.161591 
-0.003061 -0.157047 
-0.004273 -0.159412 
-0.005834 -0.162870 
-0.006754 -0.163811 
-0.000651 -0.150638 
-0.002126 -0.154792 
-0.001003 -0.151964 
-0.001173 -0.152327 
-0.001994 -0.154631 
-0.005251 -0.161348 
-0.003131 -0.157821 
-0.003600 -0.158190 
-0.021574 -0.190943 
-0.018325 -0.187516 
-0.014583 -0.183378 
-0.016059 -0.185723 
-0.017044 -0.187304 
-0.015073 -0.183876 
-0.012291 -0.179781 
-0.015597 -0.170315 
-0.014528 -0.174019 
-0.016107 -0.173547 
-0.011755 -0.172775 
-0.013092 -0.173720 
-0.012602 -0.169743 
-0.015232 -0.181093 
-0.013922 -0.177457 
-0.013900 -0.180595 
-0.008370 -0.167397 
-0.007777 -0.163544 
-0.010315 -0.175469 
-0.009112 -0.171305 
-0.010005 -0.167091 
-0.009377 -0.169445 
-0.010510 -0.171302 
-0.012674 -0.179493 
-0.011342 -0.175452 
-0.011476 -0.177783 
-0.030282 -0.132146 
-0.028444 -0.137746 
-0.030832 -0.136145 
-0.023698 -0.138962 
-0.026064 -0.138641 
-0.025290 -0.133259 
-0.026717 -0.146582 
-0.026511 -0.143108 
-0.024519 -0.148229 
-0.014742 -0.136787 
-0.016869 -0.137660 
-0.015751 -0.131203 
-0.018224 -0.149195 
-0.017689 -0.143681 
-0.016243 -0.148608 
-0.020377 -0.132680 
-0.019081 -0.138369 
-0.021364 -0.138835 
-0.018815 -0.165222 
-0.018701 -0.162180 
-0.017020 -0.166365 
-0.022517 -0.153113 
-0.020557 -0.157762 
-0.022555 -0.156246 
-0.016814 -0.158552 
-0.018645 -0.158482 
-0.018519 -0.154144 
-0.022011 -0.144345 
-0.020269 -0.149407 
-0.022369 -0.149127 
-0.002703 -0.130901 
-0.001447 -0.125638 
-0.004649 -0.140944 
-0.003770 -0.135992 
-0.004462 -0.126325 
-0.004137 -0.131400 
-0.005648 -0.132078 
-0.007188 -0.159481 
-0.006592 -0.155113 
-0.008196 -0.148406 
-0.007351 -0.152000 
-0.008770 -0.153465 
-0.006000 -0.150517 
-0.005373 -0.145783 
-0.011539 -0.129395 
-0.010784 -0.134817 
-0.012711 -0.135821 
-0.007254 -0.132901 
-0.008964 -0.133828 
-0.007787 -0.127663 
-0.010745 -0.145546 
-0.009952 -0.139802 
-0.009077 -0.144336 
-0.006023 -0.141980 
-0.007500 -0.143129 
-0.006658 -0.137680 
-0.015350 -0.166693 
-0.015060 -0.158106 
-0.015213 -0.162626 
-0.013783 -0.166358 
-0.012310 -0.165502 
-0.013645 -0.141958 
-0.011349 -0.151011 
-0.012499 -0.146703 
-0.014333 -0.147748 
-0.014790 -0.153142 
-0.008394 -0.161158 
-0.010927 -0.164263 
-0.009628 -0.162776 
-0.009239 -0.158256 
-0.010245 -0.154867 
-0.013382 -0.157271 
-0.011779 -0.156159 
-0.012074 -0.160983 
-0.034550 -0.124963 
-0.031976 -0.126312 
-0.034727 -0.113853 
-0.033469 -0.120217 
-0.037526 -0.112947 
-0.029351 -0.127024 
-0.026708 -0.127235 
-0.036571 -0.085519 
-0.036686 -0.093057 
-0.039911 -0.085937 
-0.029628 -0.107205 
-0.033216 -0.100207 
-0.030010 -0.099865 
-0.039429 -0.099955 
-0.036382 -0.100283 
-0.035713 -0.107211 
-0.019013 -0.125978 
-0.016617 -0.125216 
-0.024083 -0.127065 
-0.021509 -0.126618 
-0.023173 -0.113403 
-0.022454 -0.120190 
-0.026015 -0.113904 
-0.031842 -0.114231 
-0.028921 -0.114210 
-0.027933 -0.120886 
-0.007842 -0.010462 
-0.015874 -0.021593 
-0.013284 -0.014238 
-0.018902 -0.038986 
-0.017872 -0.030153 
-0.014677 -0.029155 
-0.027112 -0.036076 
-0.022114 -0.032233 
-0.026849 -0.042283 
-0.016380 -0.073258 
-0.017721 -0.065040 
-0.015167 -0.064630 
-0.023752 -0.066220 
-0.020575 -0.065556 
-0.022014 -0.074314 
-0.016304 -0.047316 
-0.018671 -0.056541 
-0.019112 -0.047827 
-0.038523 -0.070797 
-0.034814 -0.069430 
-0.035973 -0.077651 
-0.030399 -0.051793 
-0.032997 -0.060824 
-0.034624 -0.054344 
-0.028697 -0.075793 
-0.030978 -0.068153 
-0.027242 -0.067076 
-0.022403 -0.048638 
-0.025166 -0.058017 
-0.026205 -0.049909 
-0.003125 -0.120408 
-0.001560 -0.120188 
-0.006445 -0.121330 
-0.004745 -0.120796 
-0.005094 -0.108475 
-0.004958 -0.114838 
-0.006908 -0.108892 
-0.014338 -0.124390 
-0.012181 -0.123551 
-0.013034 -0.110672 
-0.012688 -0.117304 
-0.015353 -0.111375 
-0.010151 -0.122737 
-0.008242 -0.121987 
-0.012435 -0.080715 
-0.012909 -0.088674 
-0.014747 -0.081148 
-0.008923 -0.102553 
-0.010945 -0.095813 
-0.008880 -0.095351 
-0.015545 -0.096908 
-0.013160 -0.096336 
-0.013197 -0.103676 
-0.008592 -0.115895 
-0.010861 -0.110009 
-0.008824 -0.109409 
-0.033091 -0.084881 
-0.026213 -0.083451 
-0.029601 -0.084163 
-0.030019 -0.092186 
-0.026842 -0.099361 
-0.017269 -0.081634 
-0.018109 -0.097516 
-0.017841 -0.089729 
-0.020020 -0.082178 
-0.023006 -0.082784 
-0.017318 -0.118840 
-0.023626 -0.106261 
-0.020433 -0.112779 
-0.017821 -0.112088 
-0.018094 -0.104975 
-0.023581 -0.090942 
-0.020856 -0.098144 
-0.023776 -0.098771 
0.000000 0.000000 
-0.005964 -0.009779 
-0.004079 -0.009501 
-0.004866 -0.009569 
0.000000 0.000000 
-0.009890 -0.019300 
-0.012266 -0.028694 
-0.002111 -0.009511 
-0.002499 -0.009499 
0.000000 0.000000 
-0.007433 -0.028299 
-0.005000 -0.018933 
-0.006267 -0.028262 
0.000000 0.000000 
-0.002942 -0.009488 
-0.003459 -0.009484 
-0.013637 -0.055783 
-0.012876 -0.064294 
-0.013507 -0.037938 
-0.013897 -0.046984 
-0.009977 -0.046584 
-0.011810 -0.046754 
-0.009725 -0.037581 
-0.006958 -0.018976 
-0.008775 -0.028360 
-0.010354 -0.028472 
0.000000 -0.009543 
-0.000217 -0.009544 
0.000000 0.000000 
-0.000644 -0.028139 
-0.000434 -0.018925 
0.000000 -0.028132 
0.000000 0.000000 
-0.000439 -0.009544 
-0.000670 -0.009543 
-0.001346 -0.063110 
-0.001199 -0.054677 
0.000000 -0.063082 
-0.002601 -0.037223 
-0.002082 -0.046059 
-0.003172 -0.046106 
0.000000 -0.046011 
-0.001031 -0.046027 
-0.000845 -0.037177 
0.000000 0.000000 
-0.001456 -0.009530 
-0.001766 -0.009522 
-0.000913 -0.009540 
-0.001173 -0.009536 
0.000000 0.000000 
-0.003475 -0.028194 
-0.002340 -0.018936 
-0.002704 -0.028177 
-0.001302 -0.028148 
-0.001984 -0.028161 
-0.001336 -0.018931 
-0.001628 -0.114291 
-0.000000 -0.120139 
-0.005148 -0.101735 
-0.003357 -0.108171 
-0.000000 -0.107922 
-0.001669 -0.107986 
-0.001684 -0.101304 
-0.011734 -0.072485 
-0.010310 -0.080334 
-0.006518 -0.079729 
-0.008347 -0.080005 
-0.007854 -0.071912 
-0.008689 -0.087826 
-0.006946 -0.094958 
-0.000000 -0.079205 
-0.001564 -0.079247 
-0.001468 -0.071306 
-0.001672 -0.094269 
-0.001632 -0.086909 
-0.000000 -0.094215 
-0.004506 -0.071517 
-0.003153 -0.079348 
-0.004796 -0.079510 
-0.005118 -0.094644 
-0.005000 -0.087227 
-0.003369 -0.094413 
-0.003525 -0.018935 
-0.004553 -0.037302 
-0.004314 -0.028213 
-0.005237 -0.028235 
-0.006858 -0.037412 
-0.002716 -0.063173 
-0.005626 -0.063404 
-0.004134 -0.063271 
-0.003687 -0.054794 
-0.004321 -0.046168 
-0.010810 -0.064012 
-0.008349 -0.046449 
-0.009675 -0.055325 
-0.008935 -0.063774 
-0.007217 -0.063572 
-0.005550 -0.046246 
-0.006444 -0.055009 
-0.006883 -0.046339 
0.000000 0.000000 
0.000217 -0.009544 
0.000670 -0.009543 
0.000439 -0.009544 
0.000000 0.000000 
0.000434 -0.018925 
0.000645 -0.028139 
0.001766 -0.009521 
0.001456 -0.009530 
0.000000 0.000000 
0.002704 -0.028176 
0.002340 -0.018936 
0.003475 -0.028194 
0.000000 0.000000 
0.001173 -0.009536 
0.000913 -0.009540 
0.001199 -0.054677 
0.001346 -0.063110 
0.000845 -0.037176 
0.001031 -0.046027 
0.003172 -0.046106 
0.002083 -0.046059 
0.002601 -0.037223 
0.001336 -0.018931 
0.001984 -0.028161 
0.001302 -0.028148 
0.007842 -0.010461 
0.005964 -0.009778 
0.000000 0.000000 
0.012266 -0.028694 
0.009890 -0.019300 
0.014676 -0.029154 
0.000000 0.000000 
0.004866 -0.009569 
0.004079 -0.009501 
0.012875 -0.064293 
0.013636 -0.055782 
0.015167 -0.064629 
0.009725 -0.037581 
0.011810 -0.046753 
0.009977 -0.046583 
0.016304 -0.047315 
0.013897 -0.046983 
0.013507 -0.037938 
0.000000 0.000000 
0.002499 -0.009499 
0.002111 -0.009511 
0.003459 -0.009484 
0.002942 -0.009488 
0.000000 0.000000 
0.006267 -0.028261 
0.005000 -0.018933 
0.007433 -0.028298 
0.010354 -0.028472 
0.008775 -0.028359 
0.006958 -0.018975 
0.001627 -0.114290 
0.001559 -0.120187 
0.001683 -0.101304 
0.001668 -0.107986 
0.005093 -0.108475 
0.003356 -0.108170 
0.005148 -0.101734 
0.001468 -0.071306 
0.001564 -0.079247 
0.004796 -0.079509 
0.003153 -0.079348 
0.004506 -0.071517 
0.001632 -0.086909 
0.001672 -0.094269 
0.012434 -0.080714 
0.010310 -0.080333 
0.011734 -0.072485 
0.006946 -0.094958 
0.008689 -0.087826 
0.008880 -0.095350 
0.007854 -0.071911 
0.008347 -0.080004 
0.006518 -0.079729 
0.003368 -0.094412 
0.005000 -0.087226 
0.005117 -0.094643 
0.003526 -0.018935 
0.006858 -0.037412 
0.005237 -0.028235 
0.004314 -0.028213 
0.004553 -0.037301 
0.010810 -0.064012 
0.007217 -0.063571 
0.008935 -0.063773 
0.009675 -0.055324 
0.008349 -0.046449 
0.002716 -0.063173 
0.004321 -0.046168 
0.003687 -0.054794 
0.004134 -0.063271 
0.005626 -0.063404 
0.006884 -0.046338 
0.006444 -0.055009 
0.005550 -0.046245 
0.013284 -0.014238 
0.015874 -0.021592 
0.026848 -0.042283 
0.022114 -0.032232 
0.027112 -0.036075 
0.017872 -0.030153 
0.018902 -0.038986 
0.035972 -0.077650 
0.034813 -0.069428 
0.038523 -0.070796 
0.027241 -0.067075 
0.030978 -0.068151 
0.028696 -0.075792 
0.034623 -0.054343 
0.032997 -0.060823 
0.030398 -0.051792 
0.017721 -0.065039 
0.016380 -0.073257 
0.019112 -0.047827 
0.018671 -0.056541 
0.022013 -0.074313 
0.020575 -0.065555 
0.023751 -0.066219 
0.026205 -0.049908 
0.025166 -0.058016 
0.022403 -0.048637 
0.030280 -0.132143 
0.031974 -0.126309 
0.034548 -0.124960 
0.026707 -0.127232 
0.029349 -0.127021 
0.025288 -0.133257 
0.037524 -0.112944 
0.033467 -0.120214 
0.034725 -0.113850 
0.016616 -0.125214 
0.019011 -0.125975 
0.015749 -0.131201 
0.026014 -0.113902 
0.022452 -0.120188 
0.023172 -0.113401 
0.020375 -0.132677 
0.021507 -0.126616 
0.024082 -0.127063 
0.039909 -0.085935 
0.036685 -0.093056 
0.036570 -0.085518 
0.035711 -0.107209 
0.036380 -0.100281 
0.039427 -0.099953 
0.030009 -0.099863 
0.033215 -0.100205 
0.029627 -0.107203 
0.027932 -0.120883 
0.028919 -0.114208 
0.031841 -0.114228 
0.003124 -0.120407 
0.001446 -0.125638 
0.006908 -0.108891 
0.004958 -0.114837 
0.004461 -0.126324 
0.004745 -0.120795 
0.006444 -0.121329 
0.014746 -0.081147 
0.012909 -0.088673 
0.013197 -0.103675 
0.013160 -0.096335 
0.015544 -0.096906 
0.010944 -0.095812 
0.008923 -0.102552 
0.011537 -0.129393 
0.012180 -0.123549 
0.014336 -0.124389 
0.008240 -0.121985 