# vtk DataFile Version 2.0
Unstructured Grid Example
ASCII
DATASET UNSTRUCTURED_GRID

POINTS 9 float
0.007294 -0.174559 0.000000 
0.992706 -0.174559 0.000000 
1.000000 1.000000 0.000000 
0.000000 1.000000 0.000000 
0.500000 0.009808 0.000000 
0.972089 0.383641 0.000000 
0.500000 1.000000 0.000000 
0.027911 0.383641 0.000000 
0.500000 0.395401 0.000000 

CELLS 8 32
3  0 4 8 
3  4 1 8 
3  1 5 8 
3  5 2 8 
3  2 6 8 
3  6 3 8 
3  3 7 8 
3  7 0 8 

CELL_TYPES 8
5
5
5
5
5
5
5
5

POINT_DATA 9

SCALARS u_h float 2
LOOKUP_TABLE default
0.007294 -0.174559 
-0.007294 -0.174559 
0.000000 0.000000 
0.000000 0.000000 
-0.000000 0.009808 
-0.027911 -0.116359 
0.000000 0.000000 
0.027911 -0.116359 
-0.000000 -0.104599 

CELL_DATA 8

SCALARS epsilon float 4
LOOKUP_TABLE default
-0.014694 -0.134969 0.000000 0.239016
-0.014694 -0.134969 0.000000 -0.239016
-0.057526 0.109037 0.000000 -0.032099
-0.055104 0.207895 0.000000 0.018989
0.000000 0.187970 0.000000 0.000000
0.000000 0.187970 0.000000 0.000000
-0.055104 0.207895 0.000000 -0.018989
-0.057526 0.109037 0.000000 0.032099

SCALARS sigma float 4
LOOKUP_TABLE default
0.190086 -2.609324 -1.496628 2.061626
0.190086 -2.609324 -1.496628 -2.061626
-0.390809 2.562186 0.515114 -0.546235
0.581766 5.888935 1.527915 0.193715
1.879703 5.820937 1.879703 0.000000
1.879703 5.820937 1.879703 0.000000
0.581766 5.888935 1.527915 -0.193715
-0.390809 2.562186 0.515114 0.546235

