# vtk DataFile Version 2.0
Unstructured Grid Example
ASCII
DATASET UNSTRUCTURED_GRID

POINTS 81 float
0.020290 -0.194877 0.000000 
0.979710 -0.194877 0.000000 
1.000000 1.000000 0.000000 
0.000000 1.000000 0.000000 
0.500000 -0.100000 0.000000 
0.968380 0.368271 0.000000 
0.500000 1.000000 0.000000 
0.031620 0.368271 0.000000 
0.500000 0.374637 0.000000 
0.267420 -0.170336 0.000000 
0.500000 0.106821 0.000000 
0.253860 0.086363 0.000000 
0.732580 -0.170336 0.000000 
0.746140 0.086363 0.000000 
0.982724 0.077074 0.000000 
0.737681 0.369692 0.000000 
0.962764 0.671365 0.000000 
0.737306 0.677400 0.000000 
0.750000 1.000000 0.000000 
0.500000 0.679315 0.000000 
0.250000 1.000000 0.000000 
0.262694 0.677400 0.000000 
0.037236 0.671365 0.000000 
0.262319 0.369692 0.000000 
0.017276 0.077074 0.000000 
0.143809 -0.187511 0.000000 
0.253757 -0.045434 0.000000 
0.134780 -0.058247 0.000000 
0.500000 -0.005471 0.000000 
0.371649 -0.017756 0.000000 
0.380454 -0.100000 0.000000 
0.377141 0.232656 0.000000 
0.374294 0.100890 0.000000 
0.500000 0.235386 0.000000 
0.619546 -0.100000 0.000000 
0.628351 -0.017756 0.000000 
0.865220 -0.058247 0.000000 
0.746243 -0.045434 0.000000 
0.856191 -0.187511 0.000000 
0.625706 0.100890 0.000000 
0.622859 0.232656 0.000000 
0.985494 -0.062393 0.000000 
0.864677 0.077712 0.000000 
0.853128 0.366144 0.000000 
0.859461 0.219306 0.000000 
0.975681 0.220885 0.000000 
0.742241 0.224674 0.000000 
0.620209 0.374260 0.000000 
0.963096 0.517418 0.000000 
0.849922 0.517941 0.000000 
0.861025 0.837045 0.000000 
0.851655 0.675011 0.000000 
0.971177 0.831166 0.000000 
0.735688 0.520915 0.000000 
0.618593 0.523558 0.000000 
0.875000 1.000000 0.000000 
0.742568 0.837609 0.000000 
0.500000 0.838155 0.000000 
0.621742 0.837911 0.000000 
0.625000 1.000000 0.000000 
0.619367 0.678714 0.000000 
0.500000 0.524375 0.000000 
0.375000 1.000000 0.000000 
0.378258 0.837911 0.000000 
0.138975 0.837045 0.000000 
0.257432 0.837609 0.000000 
0.125000 1.000000 0.000000 
0.380633 0.678714 0.000000 
0.381407 0.523558 0.000000 
0.028823 0.831166 0.000000 
0.148345 0.675011 0.000000 
0.146872 0.366144 0.000000 
0.150078 0.517941 0.000000 
0.036904 0.517418 0.000000 
0.264312 0.520915 0.000000 
0.379791 0.374260 0.000000 
0.024319 0.220885 0.000000 
0.140539 0.219306 0.000000 
0.135323 0.077712 0.000000 
0.014506 -0.062393 0.000000 
0.257759 0.224674 0.000000 

CELLS 128 512
3  0 25 27 
3  9 26 25 
3  11 27 26 
3  25 26 27 
3  4 28 30 
3  10 29 28 
3  9 30 29 
3  28 29 30 
3  8 31 33 
3  11 32 31 
3  10 33 32 
3  31 32 33 
3  9 29 26 
3  10 32 29 
3  11 26 32 
3  29 32 26 
3  4 34 28 
3  12 35 34 
3  10 28 35 
3  34 35 28 
3  1 36 38 
3  13 37 36 
3  12 38 37 
3  36 37 38 
3  8 33 40 
3  10 39 33 
3  13 40 39 
3  33 39 40 
3  12 37 35 
3  13 39 37 
3  10 35 39 
3  37 39 35 
3  1 41 36 
3  14 42 41 
3  13 36 42 
3  41 42 36 
3  5 43 45 
3  15 44 43 
3  14 45 44 
3  43 44 45 
3  8 40 47 
3  13 46 40 
3  15 47 46 
3  40 46 47 
3  14 44 42 
3  15 46 44 
3  13 42 46 
3  44 46 42 
3  5 48 43 
3  16 49 48 
3  15 43 49 
3  48 49 43 
3  2 50 52 
3  17 51 50 
3  16 52 51 
3  50 51 52 
3  8 47 54 
3  15 53 47 
3  17 54 53 
3  47 53 54 
3  16 51 49 
3  17 53 51 
3  15 49 53 
3  51 53 49 
3  2 55 50 
3  18 56 55 
3  17 50 56 
3  55 56 50 
3  6 57 59 
3  19 58 57 
3  18 59 58 
3  57 58 59 
3  8 54 61 
3  17 60 54 
3  19 61 60 
3  54 60 61 
3  18 58 56 
3  19 60 58 
3  17 56 60 
3  58 60 56 
3  6 62 57 
3  20 63 62 
3  19 57 63 
3  62 63 57 
3  3 64 66 
3  21 65 64 
3  20 66 65 
3  64 65 66 
3  8 61 68 
3  19 67 61 
3  21 68 67 
3  61 67 68 
3  20 65 63 
3  21 67 65 
3  19 63 67 
3  65 67 63 
3  3 69 64 
3  22 70 69 
3  21 64 70 
3  69 70 64 
3  7 71 73 
3  23 72 71 
3  22 73 72 
3  71 72 73 
3  8 68 75 
3  21 74 68 
3  23 75 74 
3  68 74 75 
3  22 72 70 
3  23 74 72 
3  21 70 74 
3  72 74 70 
3  7 76 71 
3  24 77 76 
3  23 71 77 
3  76 77 71 
3  0 27 79 
3  11 78 27 
3  24 79 78 
3  27 78 79 
3  8 75 31 
3  23 80 75 
3  11 31 80 
3  75 80 31 
3  24 78 77 
3  11 80 78 
3  23 77 80 
3  78 80 77 

CELL_TYPES 128
5
5
5
5
5
5
5
5
5
5
5
5
5
5
5
5
5
5
5
5
5
5
5
5
5
5
5
5
5
5
5
5
5
5
5
5
5
5
5
5
5
5
5
5
5
5
5
5
5
5
5
5
5
5
5
5
5
5
5
5
5
5
5
5
5
5
5
5
5
5
5
5
5
5
5
5
5
5
5
5
5
5
5
5
5
5
5
5
5
5
5
5
5
5
5
5
5
5
5
5
5
5
5
5
5
5
5
5
5
5
5
5
5
5
5
5
5
5
5
5
5
5
5
5
5
5
5
5

POINT_DATA 81

SCALARS u_h float 2
LOOKUP_TABLE default
0.020290 -0.194877 
-0.020290 -0.194877 
0.000000 0.000000 
0.000000 0.000000 
-0.000000 -0.100000 
-0.031620 -0.131729 
0.000000 0.000000 
0.031620 -0.131729 
-0.000000 -0.125363 
0.017420 -0.170336 
-0.000000 -0.143179 
0.003860 -0.163637 
-0.017420 -0.170336 
-0.003860 -0.163637 
-0.017276 -0.172926 
-0.012319 -0.130308 
-0.037236 -0.078635 
-0.012694 -0.072600 
0.000000 0.000000 
-0.000000 -0.070685 
0.000000 0.000000 
0.012694 -0.072600 
0.037236 -0.078635 
0.012319 -0.130308 
0.017276 -0.172926 
0.018809 -0.187511 
0.003757 -0.170434 
0.009780 -0.183247 
-0.000000 -0.130471 
-0.003351 -0.142756 
0.005454 -0.100000 
0.002141 -0.142344 
-0.000706 -0.149110 
-0.000000 -0.139614 
-0.005454 -0.100000 
0.003351 -0.142756 
-0.009780 -0.183247 
-0.003757 -0.170434 
-0.018809 -0.187511 
0.000706 -0.149110 
-0.002141 -0.142344 
-0.014506 -0.187393 
-0.010323 -0.172288 
-0.021872 -0.133856 
-0.015539 -0.155694 
-0.024319 -0.154115 
-0.007759 -0.150326 
-0.004791 -0.125740 
-0.036904 -0.107582 
-0.025078 -0.107059 
-0.013975 -0.037955 
-0.023345 -0.074989 
-0.028823 -0.043834 
-0.014312 -0.104085 
-0.006407 -0.101442 
0.000000 0.000000 
-0.007432 -0.037391 
-0.000000 -0.036845 
-0.003258 -0.037089 
0.000000 0.000000 
-0.005633 -0.071286 
-0.000000 -0.100625 
0.000000 0.000000 
0.003258 -0.037089 
0.013975 -0.037955 
0.007432 -0.037391 
0.000000 0.000000 
0.005633 -0.071286 
0.006407 -0.101442 
0.028823 -0.043834 
0.023345 -0.074989 
0.021872 -0.133856 
0.025078 -0.107059 
0.036904 -0.107582 
0.014312 -0.104085 
0.004791 -0.125740 
0.024319 -0.154115 
0.015539 -0.155694 
0.010323 -0.172288 
0.014506 -0.187393 
0.007759 -0.150326 

CELL_DATA 128

SCALARS epsilon float 4
LOOKUP_TABLE default
-0.005278 0.039336 0.000000 -0.008012
0.009845 0.023680 0.000000 0.013499
-0.049431 0.058035 0.000000 0.048918
-0.039217 0.046362 0.000000 0.011586
-0.044586 -0.270395 0.000000 0.000000
0.026448 -0.101088 0.000000 0.054663
-0.029948 0.058436 0.000000 0.395108
0.041959 -0.366849 0.000000 0.049015
-0.017274 0.107778 0.000000 0.009800
-0.039546 0.056640 0.000000 0.066823
0.005629 0.029164 0.000000 0.023064
-0.017512 0.052405 0.000000 0.021911
-0.026776 0.050804 0.000000 0.052758
0.004823 -0.051928 0.000000 0.035482
-0.037288 0.059353 0.000000 0.055461
-0.063415 -0.026436 0.000000 0.127313
-0.044586 -0.270395 0.000000 0.000000
-0.029948 0.058436 0.000000 -0.395108
0.026448 -0.101088 0.000000 -0.054663
0.041959 -0.366849 0.000000 -0.049015
-0.005278 0.039336 0.000000 0.008012
-0.049431 0.058035 0.000000 -0.048918
0.009845 0.023680 0.000000 -0.013499
-0.039217 0.046362 0.000000 -0.011586
-0.017274 0.107778 0.000000 -0.009800
0.005629 0.029164 0.000000 -0.023064
-0.039546 0.056640 0.000000 -0.066823
-0.017512 0.052405 0.000000 -0.021911
-0.026776 0.050804 0.000000 -0.052758
-0.037288 0.059353 0.000000 -0.055461
0.004823 -0.051928 0.000000 -0.035482
-0.063415 -0.026436 0.000000 -0.127313
-0.035994 0.060108 0.000000 0.008335
-0.057056 0.109017 0.000000 -0.013887
-0.053312 0.085818 0.000000 -0.033992
-0.038651 0.084220 0.000000 -0.017465
-0.078655 0.164440 0.000000 -0.023771
-0.079548 0.158827 0.000000 -0.038825
-0.070642 0.140079 0.000000 -0.024319
-0.071032 0.160421 0.000000 -0.021292
-0.038931 0.124079 0.000000 -0.012201
-0.047395 0.100834 0.000000 -0.044965
-0.062687 0.146929 0.000000 -0.034727
-0.047007 0.124644 0.000000 -0.039066
-0.056607 0.123873 0.000000 -0.024041
-0.065045 0.146933 0.000000 -0.037512
-0.054640 0.101014 0.000000 -0.047470
-0.065081 0.123213 0.000000 -0.040823
-0.079617 0.175763 0.000000 -0.015239
-0.099045 0.205707 0.000000 -0.003093
-0.079707 0.191805 0.000000 -0.025060
-0.098862 0.192027 0.000000 -0.015426
-0.098361 0.302541 0.000000 0.104410
-0.085615 0.255950 0.000000 0.031504
-0.113761 0.243461 0.000000 0.024808
-0.120540 0.258438 0.000000 0.022433
-0.039033 0.175962 0.000000 -0.007805
-0.062442 0.188460 0.000000 -0.023268
-0.064939 0.221826 0.000000 -0.001775
-0.065408 0.175932 0.000000 -0.015527
-0.116775 0.225709 0.000000 -0.003953
-0.088526 0.221786 0.000000 -0.000777
-0.090037 0.188339 0.000000 -0.018208
-0.089443 0.225511 0.000000 -0.002115
0.003677 0.260040 0.000000 0.052867
0.001047 0.256761 0.000000 0.028152
-0.052952 0.244075 0.000000 0.019382
-0.049210 0.260432 0.000000 0.054055
0.000000 0.253571 0.000000 0.000000
-0.026405 0.235739 0.000000 -0.000768
0.000202 0.254999 0.000000 0.012351
-0.026152 0.255039 0.000000 0.011929
-0.052567 0.178871 0.000000 -0.002720
-0.058010 0.213344 0.000000 -0.001061
-0.046074 0.211915 0.000000 -0.001934
-0.052519 0.213298 0.000000 0.000517
-0.032713 0.256871 0.000000 0.028196
-0.045877 0.237957 0.000000 0.007604
-0.057110 0.244305 0.000000 0.017140
-0.033791 0.237915 0.000000 0.008426
0.000000 0.253571 0.000000 0.000000
0.000202 0.254999 0.000000 -0.012351
-0.026405 0.235739 0.000000 0.000768
-0.026152 0.255039 0.000000 -0.011929
0.003677 0.260040 0.000000 -0.052867
-0.052952 0.244075 0.000000 -0.019382
0.001047 0.256761 0.000000 -0.028152
-0.049210 0.260432 0.000000 -0.054055
-0.052567 0.178871 0.000000 0.002720
-0.046074 0.211915 0.000000 0.001934
-0.058010 0.213344 0.000000 0.001061
-0.052519 0.213298 0.000000 -0.000517
-0.032713 0.256871 0.000000 -0.028196
-0.057110 0.244305 0.000000 -0.017140
-0.045877 0.237957 0.000000 -0.007604
-0.033791 0.237915 0.000000 -0.008426
-0.098361 0.302541 0.000000 -0.104410
-0.113761 0.243461 0.000000 -0.024808
-0.085615 0.255950 0.000000 -0.031504
-0.120540 0.258438 0.000000 -0.022433
-0.079617 0.175763 0.000000 0.015239
-0.079707 0.191805 0.000000 0.025060
-0.099045 0.205707 0.000000 0.003093
-0.098862 0.192027 0.000000 0.015426
-0.039033 0.175962 0.000000 0.007805
-0.064939 0.221826 0.000000 0.001775
-0.062442 0.188460 0.000000 0.023268
-0.065408 0.175932 0.000000 0.015527
-0.116775 0.225709 0.000000 0.003953
-0.090037 0.188339 0.000000 0.018208
-0.088526 0.221786 0.000000 0.000777
-0.089443 0.225511 0.000000 0.002115
-0.078655 0.164440 0.000000 0.023771
-0.070642 0.140079 0.000000 0.024319
-0.079548 0.158827 0.000000 0.038825
-0.071032 0.160421 0.000000 0.021292
-0.035994 0.060108 0.000000 -0.008335
-0.053312 0.085818 0.000000 0.033992
-0.057056 0.109017 0.000000 0.013887
-0.038651 0.084220 0.000000 0.017465
-0.038931 0.124079 0.000000 0.012201
-0.062687 0.146929 0.000000 0.034727
-0.047395 0.100834 0.000000 0.044965
-0.047007 0.124644 0.000000 0.039066
-0.056607 0.123873 0.000000 0.024041
-0.054640 0.101014 0.000000 0.047470
-0.065045 0.146933 0.000000 0.037512
-0.065081 0.123213 0.000000 0.040823

SCALARS sigma float 4
LOOKUP_TABLE default
0.244495 1.031401 0.340576 -0.073769
0.528976 0.709756 0.335253 0.321367
-0.605938 1.091907 0.086035 0.867574
-0.527603 0.851385 0.071449 0.267857
-3.703944 -5.139497 -3.149812 0.000000
-0.225307 -2.132163 -0.746402 0.663714
5.546715 -0.004337 0.284879 7.343745
-2.537164 -4.674325 -3.248897 -0.501366
0.614121 2.946133 0.905044 0.211222
-0.332473 1.178221 0.170944 1.177564
0.460055 0.849119 0.347924 0.418266
0.068198 1.277760 0.348927 0.378380
0.006070 1.001685 0.240284 1.081937
-0.364803 -1.237467 -0.471057 0.518755
-0.271946 1.256250 0.220650 1.011605
-1.291681 -1.203729 -0.898512 1.619204
-3.703944 -5.139497 -3.149812 0.000000
5.546715 -0.004337 0.284879 -7.343745
-0.225307 -2.132163 -0.746402 -0.663714
-2.537164 -4.674325 -3.248897 0.501366
0.244495 1.031401 0.340576 0.073769
-0.605938 1.091907 0.086035 -0.867574
0.528976 0.709756 0.335253 -0.321367
-0.527603 0.851385 0.071449 -0.267857
0.614121 2.946133 0.905044 -0.211222
0.460055 0.849119 0.347924 -0.418266
-0.332473 1.178221 0.170944 -1.177564
0.068198 1.277760 0.348927 -0.378380
0.006070 1.001685 0.240284 -1.081937
-0.271946 1.256250 0.220650 -1.011605
-0.364803 -1.237467 -0.471057 -0.518755
-1.291681 -1.203729 -0.898512 -1.619204
-0.340433 1.304136 0.241136 0.091685
-0.390437 2.551422 0.519614 -0.225492
-0.481737 1.873992 0.325054 -0.643176
-0.162063 1.985935 0.455699 -0.333369
-0.402077 4.118272 0.857850 -0.301662
-0.452019 3.928796 0.792798 -0.672142
-0.434134 3.405709 0.694371 -0.333689
-0.254766 4.066952 0.893889 -0.282295
0.205048 3.228557 0.851472 -0.200108
-0.186329 2.416720 0.534393 -0.833721
-0.154399 3.716601 0.842416 -0.641405
0.043054 3.160706 0.776370 -0.776353
-0.238693 3.036006 0.672664 -0.383873
-0.206713 3.690899 0.818878 -0.701044
-0.356387 2.343681 0.463745 -0.874512
-0.425768 2.929404 0.581315 -0.729227
-0.319247 4.478033 0.961463 -0.169535
-0.499237 5.275210 1.066623 -0.062079
-0.160256 5.026910 1.120987 -0.484746
-0.616589 4.806860 0.931643 -0.242042
0.308227 9.197317 2.041799 1.224795
0.263480 7.287754 1.703356 0.374243
-0.509110 6.472931 1.296999 0.221225
-0.534479 6.938666 1.378982 0.089000
0.700402 4.948888 1.369291 -0.134068
0.233149 5.108926 1.260186 -0.496847
0.470518 6.255085 1.568877 -0.120989
0.035155 4.642107 1.105241 -0.312804
-0.721180 5.769745 1.089337 -0.181814
-0.107946 5.970545 1.332598 -0.094461
-0.440445 4.781021 0.983028 -0.358015
-0.095494 6.092744 1.360680 -0.136213
2.697478 8.583709 2.637169 0.867022
2.595255 8.373258 2.578079 0.461697
0.984201 7.225525 1.911226 0.278412
1.230405 7.952256 2.112216 0.814623
2.535707 8.218261 2.535707 0.000000
1.615873 7.229093 2.093339 -0.021659
2.555327 8.278947 2.552013 0.202550
1.809962 7.956545 2.288864 0.180394
0.379543 4.889819 1.263041 -0.066334
0.566113 6.034254 1.553333 -0.061721
0.860326 6.125864 1.658412 -0.051061
0.706146 6.098470 1.607799 -0.020320
1.645505 7.962828 2.241580 0.434090
1.112877 7.076465 1.920798 0.095828
0.877273 7.181958 1.871957 0.213272
1.435481 7.221956 2.041239 0.121765
2.535707 8.218261 2.535707 0.000000
2.555327 8.278947 2.552013 -0.202550
1.615873 7.229093 2.093339 0.021659
1.809962 7.956545 2.288864 -0.180394
2.697478 8.583709 2.637169 -0.867022
0.984201 7.225525 1.911226 -0.278412
2.595255 8.373258 2.578079 -0.461697
1.230405 7.952256 2.112216 -0.814623
0.379543 4.889819 1.263041 0.066334
0.860326 6.125864 1.658412 0.051061
0.566113 6.034254 1.553333 0.061721
0.706146 6.098470 1.607799 0.020320
1.645505 7.962828 2.241580 -0.434090
0.877273 7.181958 1.871957 -0.213272
1.112877 7.076465 1.920798 -0.095828
1.435481 7.221956 2.041239 -0.121765
0.308227 9.197317 2.041799 -1.224795
-0.509110 6.472931 1.296999 -0.221225
0.263480 7.287754 1.703356 -0.374243
-0.534479 6.938666 1.378982 -0.089000
-0.319247 4.478033 0.961463 0.169535
-0.160256 5.026910 1.120987 0.484746
-0.499237 5.275210 1.066623 0.062079
-0.616589 4.806860 0.931643 0.242042
0.700402 4.948888 1.369291 0.134068
0.470518 6.255085 1.568877 0.120989
0.233149 5.108926 1.260186 0.496847
0.035155 4.642107 1.105241 0.312804
-0.721180 5.769745 1.089337 0.181814
-0.440445 4.781021 0.983028 0.358015
-0.107946 5.970545 1.332598 0.094461
-0.095494 6.092744 1.360680 0.136213
-0.402077 4.118272 0.857850 0.301662
-0.434134 3.405709 0.694371 0.333689
-0.452019 3.928796 0.792798 0.672142
-0.254766 4.066952 0.893889 0.282295
-0.340433 1.304136 0.241136 -0.091685
-0.481737 1.873992 0.325054 0.643176
-0.390437 2.551422 0.519614 0.225492
-0.162063 1.985935 0.455699 0.333369
0.205048 3.228557 0.851472 0.200108
-0.154399 3.716601 0.842416 0.641405
-0.186329 2.416720 0.534393 0.833721
0.043054 3.160706 0.776370 0.776353
-0.238693 3.036006 0.672664 0.383873
-0.356387 2.343681 0.463745 0.874512
-0.206713 3.690899 0.818878 0.701044
-0.425768 2.929404 0.581315 0.729227

