# vtk DataFile Version 2.0
Unstructured Grid Example
ASCII
DATASET UNSTRUCTURED_GRID

POINTS 64 float
0.000000 0.000000 0.000000 
0.031250 0.000000 0.000000 
0.031250 0.000000 0.000000 
0.062500 0.000000 0.000000 
0.062500 0.000000 0.000000 
0.093750 0.000000 0.000000 
0.093750 0.000000 0.000000 
0.125000 0.000000 0.000000 
0.187500 0.000000 0.000000 
0.218750 0.000000 0.000000 
0.218750 19.150160 0.000000 
0.250000 -38.300320 0.000000 
0.125000 0.000000 0.000000 
0.156250 0.000000 0.000000 
0.156250 0.000000 0.000000 
0.187500 0.000000 0.000000 
0.437500 -6.962348 0.000000 
0.468750 -6.711777 0.000000 
0.468750 -6.850035 0.000000 
0.500000 -6.685833 0.000000 
0.375000 -7.623798 0.000000 
0.406250 -6.762158 0.000000 
0.406250 -7.219919 0.000000 
0.437500 -6.708277 0.000000 
0.250000 -27.610719 0.000000 
0.281250 -2.229043 0.000000 
0.281250 -12.688374 0.000000 
0.312500 -6.692056 0.000000 
0.312500 -9.564946 0.000000 
0.343750 -6.942595 0.000000 
0.343750 -8.296839 0.000000 
0.375000 -6.856457 0.000000 
0.500000 -6.685833 0.000000 
0.531250 -6.850035 0.000000 
0.531250 -6.711777 0.000000 
0.562500 -6.962348 0.000000 
0.562500 -6.708277 0.000000 
0.593750 -7.219919 0.000000 
0.593750 -6.762158 0.000000 
0.625000 -7.623798 0.000000 
0.687500 -6.692056 0.000000 
0.718750 -12.688374 0.000000 
0.718750 -2.229043 0.000000 
0.750000 -27.610719 0.000000 
0.625000 -6.856457 0.000000 
0.656250 -8.296839 0.000000 
0.656250 -6.942595 0.000000 
0.687500 -9.564946 0.000000 
0.937500 0.000000 0.000000 
0.968750 0.000000 0.000000 
0.968750 0.000000 0.000000 
1.000000 0.000000 0.000000 
0.875000 0.000000 0.000000 
0.906250 0.000000 0.000000 
0.906250 0.000000 0.000000 
0.937500 0.000000 0.000000 
0.750000 -38.300320 0.000000 
0.781250 19.150160 0.000000 
0.781250 0.000000 0.000000 
0.812500 0.000000 0.000000 
0.812500 0.000000 0.000000 
0.843750 0.000000 0.000000 
0.843750 0.000000 0.000000 
0.875000 0.000000 0.000000 

CELLS 32 96
2  0 1 
2  2 3 
2  4 5 
2  6 7 
2  8 9 
2  10 11 
2  12 13 
2  14 15 
2  16 17 
2  18 19 
2  20 21 
2  22 23 
2  24 25 
2  26 27 
2  28 29 
2  30 31 
2  32 33 
2  34 35 
2  36 37 
2  38 39 
2  40 41 
2  42 43 
2  44 45 
2  46 47 
2  48 49 
2  50 51 
2  52 53 
2  54 55 
2  56 57 
2  58 59 
2  60 61 
2  62 63 

CELL_TYPES 32
3
3
3
3
3
3
3
3
3
3
3
3
3
3
3
3
3
3
3
3
3
3
3
3
3
3
3
3
3
3
3
3

POINT_DATA 64

SCALARS lambda_h float 1
LOOKUP_TABLE default
0.000000 
0.000000 
0.000000 
0.000000 
0.000000 
0.000000 
0.000000 
0.000000 
0.000000 
0.000000 
19.150160 
-38.300320 
0.000000 
0.000000 
0.000000 
0.000000 
-6.962348 
-6.711777 
-6.850035 
-6.685833 
-7.623798 
-6.762158 
-7.219919 
-6.708277 
-27.610719 
-2.229043 
-12.688374 
-6.692056 
-9.564946 
-6.942595 
-8.296839 
-6.856457 
-6.685833 
-6.850035 
-6.711777 
-6.962348 
-6.708277 
-7.219919 
-6.762158 
-7.623798 
-6.692056 
-12.688374 
-2.229043 
-27.610719 
-6.856457 
-8.296839 
-6.942595 
-9.564946 
0.000000 
0.000000 
0.000000 
0.000000 
0.000000 
0.000000 
0.000000 
0.000000 
-38.300320 
19.150160 
0.000000 
0.000000 
0.000000 
0.000000 
0.000000 
0.000000 

