# vtk DataFile Version 2.0
Unstructured Grid Example
ASCII
DATASET UNSTRUCTURED_GRID

POINTS 256 float
0.000000 0.000000 0.000000 
0.007812 0.000000 0.000000 
0.007812 0.000000 0.000000 
0.015625 0.000000 0.000000 
0.015625 0.000000 0.000000 
0.023438 0.000000 0.000000 
0.023438 0.000000 0.000000 
0.031250 0.000000 0.000000 
0.046875 0.000000 0.000000 
0.054688 0.000000 0.000000 
0.054688 0.000000 0.000000 
0.062500 0.000000 0.000000 
0.031250 0.000000 0.000000 
0.039062 0.000000 0.000000 
0.039062 0.000000 0.000000 
0.046875 0.000000 0.000000 
0.109375 0.000000 0.000000 
0.117188 0.000000 0.000000 
0.117188 0.000000 0.000000 
0.125000 0.000000 0.000000 
0.093750 0.000000 0.000000 
0.101562 0.000000 0.000000 
0.101562 0.000000 0.000000 
0.109375 0.000000 0.000000 
0.062500 0.000000 0.000000 
0.070312 0.000000 0.000000 
0.070312 0.000000 0.000000 
0.078125 0.000000 0.000000 
0.078125 0.000000 0.000000 
0.085938 0.000000 0.000000 
0.085938 0.000000 0.000000 
0.093750 0.000000 0.000000 
0.234375 -8.485168 0.000000 
0.242188 -25.508159 0.000000 
0.242188 -30.559567 0.000000 
0.250000 1.617649 0.000000 
0.218750 -49.971638 0.000000 
0.226562 -5.210249 0.000000 
0.226562 -26.101926 0.000000 
0.234375 -8.188285 0.000000 
0.187500 0.000000 0.000000 
0.195312 0.000000 0.000000 
0.195312 0.000000 0.000000 
0.203125 0.000000 0.000000 
0.203125 0.000000 0.000000 
0.210938 0.000000 0.000000 
0.210938 35.051175 0.000000 
0.218750 -70.102351 0.000000 
0.125000 0.000000 0.000000 
0.132812 0.000000 0.000000 
0.132812 0.000000 0.000000 
0.140625 0.000000 0.000000 
0.140625 0.000000 0.000000 
0.148438 0.000000 0.000000 
0.148438 0.000000 0.000000 
0.156250 0.000000 0.000000 
0.171875 0.000000 0.000000 
0.179688 0.000000 0.000000 
0.179688 0.000000 0.000000 
0.187500 0.000000 0.000000 
0.156250 0.000000 0.000000 
0.164062 0.000000 0.000000 
0.164062 0.000000 0.000000 
0.171875 0.000000 0.000000 
0.484375 -6.506169 0.000000 
0.492188 -6.498803 0.000000 
0.492188 -6.519478 0.000000 
0.500000 -6.464818 0.000000 
0.468750 -6.523536 0.000000 
0.476562 -6.501320 0.000000 
0.476562 -6.513737 0.000000 
0.484375 -6.498701 0.000000 
0.437500 -6.587965 0.000000 
0.445312 -6.535488 0.000000 
0.445312 -6.567783 0.000000 
0.453125 -6.523374 0.000000 
0.453125 -6.550426 0.000000 
0.460938 -6.513678 0.000000 
0.460938 -6.535725 0.000000 
0.468750 -6.506334 0.000000 
0.375000 -6.885443 0.000000 
0.382812 -6.738823 0.000000 
0.382812 -6.831169 0.000000 
0.390625 -6.700751 0.000000 
0.390625 -6.782861 0.000000 
0.398438 -6.666948 0.000000 
0.398438 -6.739868 0.000000 
0.406250 -6.637021 0.000000 
0.421875 -6.637658 0.000000 
0.429688 -6.567407 0.000000 
0.429688 -6.611176 0.000000 
0.437500 -6.550121 0.000000 
0.406250 -6.701637 0.000000 
0.414062 -6.610637 0.000000 
0.414062 -6.667699 0.000000 
0.421875 -6.587512 0.000000 
0.250000 -8.923860 0.000000 
0.257812 -9.476551 0.000000 
0.257812 -9.658445 0.000000 
0.265625 -8.560072 0.000000 
0.265625 -9.256302 0.000000 
0.273438 -8.265983 0.000000 
0.273438 -8.879246 0.000000 
0.281250 -8.029777 0.000000 
0.296875 -8.042786 0.000000 
0.304688 -7.514518 0.000000 
0.304688 -7.842562 0.000000 
0.312500 -7.386699 0.000000 
0.281250 -8.553808 0.000000 
0.289062 -7.831184 0.000000 
0.289062 -8.277421 0.000000 
0.296875 -7.661335 0.000000 
0.359375 -7.015139 0.000000 
0.367188 -6.829701 0.000000 
0.367188 -6.946458 0.000000 
0.375000 -6.781625 0.000000 
0.343750 -7.180167 0.000000 
0.351562 -6.944357 0.000000 
0.351562 -7.092595 0.000000 
0.359375 -6.883692 0.000000 
0.312500 -7.670585 0.000000 
0.320312 -7.274790 0.000000 
0.320312 -7.521895 0.000000 
0.328125 -7.176374 0.000000 
0.328125 -7.392569 0.000000 
0.335938 -7.089505 0.000000 
0.335938 -7.279489 0.000000 
0.343750 -7.012601 0.000000 
0.500000 -6.464818 0.000000 
0.507812 -6.519478 0.000000 
0.507812 -6.498803 0.000000 
0.515625 -6.506169 0.000000 
0.515625 -6.498701 0.000000 
0.523438 -6.513737 0.000000 
0.523438 -6.501320 0.000000 
0.531250 -6.523536 0.000000 
0.546875 -6.523374 0.000000 
0.554688 -6.567783 0.000000 
0.554688 -6.535488 0.000000 
0.562500 -6.587965 0.000000 
0.531250 -6.506334 0.000000 
0.539062 -6.535725 0.000000 
0.539062 -6.513678 0.000000 
0.546875 -6.550426 0.000000 
0.609375 -6.700751 0.000000 
0.617188 -6.831169 0.000000 
0.617188 -6.738823 0.000000 
0.625000 -6.885443 0.000000 
0.593750 -6.637021 0.000000 
0.601562 -6.739868 0.000000 
0.601562 -6.666948 0.000000 
0.609375 -6.782861 0.000000 
0.562500 -6.550121 0.000000 
0.570312 -6.611176 0.000000 
0.570312 -6.567407 0.000000 
0.578125 -6.637658 0.000000 
0.578125 -6.587512 0.000000 
0.585938 -6.667699 0.000000 
0.585938 -6.610637 0.000000 
0.593750 -6.701637 0.000000 
0.734375 -8.560072 0.000000 
0.742188 -9.658445 0.000000 
0.742188 -9.476551 0.000000 
0.750000 -8.923860 0.000000 
0.718750 -8.029777 0.000000 
0.726562 -8.879246 0.000000 
0.726562 -8.265983 0.000000 
0.734375 -9.256302 0.000000 
0.687500 -7.386699 0.000000 
0.695312 -7.842562 0.000000 
0.695312 -7.514518 0.000000 
0.703125 -8.042786 0.000000 
0.703125 -7.661335 0.000000 
0.710938 -8.277421 0.000000 
0.710938 -7.831184 0.000000 
0.718750 -8.553808 0.000000 
0.625000 -6.781625 0.000000 
0.632812 -6.946458 0.000000 
0.632812 -6.829701 0.000000 
0.640625 -7.015139 0.000000 
0.640625 -6.883692 0.000000 
0.648438 -7.092595 0.000000 
0.648438 -6.944357 0.000000 
0.656250 -7.180167 0.000000 
0.671875 -7.176374 0.000000 
0.679688 -7.521895 0.000000 
0.679688 -7.274790 0.000000 
0.687500 -7.670585 0.000000 
0.656250 -7.012601 0.000000 
0.664062 -7.279489 0.000000 
0.664062 -7.089505 0.000000 
0.671875 -7.392569 0.000000 
0.984375 0.000000 0.000000 
0.992188 0.000000 0.000000 
0.992188 0.000000 0.000000 
1.000000 0.000000 0.000000 
0.968750 0.000000 0.000000 
0.976562 0.000000 0.000000 
0.976562 0.000000 0.000000 
0.984375 0.000000 0.000000 
0.937500 0.000000 0.000000 
0.945312 0.000000 0.000000 
0.945312 0.000000 0.000000 
0.953125 0.000000 0.000000 
0.953125 0.000000 0.000000 
0.960938 0.000000 0.000000 
0.960938 0.000000 0.000000 
0.968750 0.000000 0.000000 
0.875000 0.000000 0.000000 
0.882812 0.000000 0.000000 
0.882812 0.000000 0.000000 
0.890625 0.000000 0.000000 
0.890625 0.000000 0.000000 
0.898438 0.000000 0.000000 
0.898438 0.000000 0.000000 
0.906250 0.000000 0.000000 
0.921875 0.000000 0.000000 
0.929688 0.000000 0.000000 
0.929688 0.000000 0.000000 
0.937500 0.000000 0.000000 
0.906250 0.000000 0.000000 
0.914062 0.000000 0.000000 
0.914062 0.000000 0.000000 
0.921875 0.000000 0.000000 
0.750000 1.617649 0.000000 
0.757812 -30.559567 0.000000 
0.757812 -25.508159 0.000000 
0.765625 -8.485168 0.000000 
0.765625 -8.188285 0.000000 
0.773438 -26.101926 0.000000 
0.773438 -5.210249 0.000000 
0.781250 -49.971638 0.000000 
0.796875 0.000000 0.000000 
0.804688 0.000000 0.000000 
0.804688 0.000000 0.000000 
0.812500 0.000000 0.000000 
0.781250 -70.102351 0.000000 
0.789062 35.051175 0.000000 
0.789062 0.000000 0.000000 
0.796875 0.000000 0.000000 
0.859375 0.000000 0.000000 
0.867188 0.000000 0.000000 
0.867188 0.000000 0.000000 
0.875000 0.000000 0.000000 
0.843750 0.000000 0.000000 
0.851562 0.000000 0.000000 
0.851562 0.000000 0.000000 
0.859375 0.000000 0.000000 
0.812500 0.000000 0.000000 
0.820312 0.000000 0.000000 
0.820312 0.000000 0.000000 
0.828125 0.000000 0.000000 
0.828125 0.000000 0.000000 
0.835938 0.000000 0.000000 
0.835938 0.000000 0.000000 
0.843750 0.000000 0.000000 

CELLS 128 384
2  0 1 
2  2 3 
2  4 5 
2  6 7 
2  8 9 
2  10 11 
2  12 13 
2  14 15 
2  16 17 
2  18 19 
2  20 21 
2  22 23 
2  24 25 
2  26 27 
2  28 29 
2  30 31 
2  32 33 
2  34 35 
2  36 37 
2  38 39 
2  40 41 
2  42 43 
2  44 45 
2  46 47 
2  48 49 
2  50 51 
2  52 53 
2  54 55 
2  56 57 
2  58 59 
2  60 61 
2  62 63 
2  64 65 
2  66 67 
2  68 69 
2  70 71 
2  72 73 
2  74 75 
2  76 77 
2  78 79 
2  80 81 
2  82 83 
2  84 85 
2  86 87 
2  88 89 
2  90 91 
2  92 93 
2  94 95 
2  96 97 
2  98 99 
2  100 101 
2  102 103 
2  104 105 
2  106 107 
2  108 109 
2  110 111 
2  112 113 
2  114 115 
2  116 117 
2  118 119 
2  120 121 
2  122 123 
2  124 125 
2  126 127 
2  128 129 
2  130 131 
2  132 133 
2  134 135 
2  136 137 
2  138 139 
2  140 141 
2  142 143 
2  144 145 
2  146 147 
2  148 149 
2  150 151 
2  152 153 
2  154 155 
2  156 157 
2  158 159 
2  160 161 
2  162 163 
2  164 165 
2  166 167 
2  168 169 
2  170 171 
2  172 173 
2  174 175 
2  176 177 
2  178 179 
2  180 181 
2  182 183 
2  184 185 
2  186 187 
2  188 189 
2  190 191 
2  192 193 
2  194 195 
2  196 197 
2  198 199 
2  200 201 
2  202 203 
2  204 205 
2  206 207 
2  208 209 
2  210 211 
2  212 213 
2  214 215 
2  216 217 
2  218 219 
2  220 221 
2  222 223 
2  224 225 
2  226 227 
2  228 229 
2  230 231 
2  232 233 
2  234 235 
2  236 237 
2  238 239 
2  240 241 
2  242 243 
2  244 245 
2  246 247 
2  248 249 
2  250 251 
2  252 253 
2  254 255 

CELL_TYPES 128
3
3
3
3
3
3
3
3
3
3
3
3
3
3
3
3
3
3
3
3
3
3
3
3
3
3
3
3
3
3
3
3
3
3
3
3
3
3
3
3
3
3
3
3
3
3
3
3
3
3
3
3
3
3
3
3
3
3
3
3
3
3
3
3
3
3
3
3
3
3
3
3
3
3
3
3
3
3
3
3
3
3
3
3
3
3
3
3
3
3
3
3
3
3
3
3
3
3
3
3
3
3
3
3
3
3
3
3
3
3
3
3
3
3
3
3
3
3
3
3
3
3
3
3
3
3
3
3

POINT_DATA 256

SCALARS lambda_h float 1
LOOKUP_TABLE default
0.000000 
0.000000 
0.000000 
0.000000 
0.000000 
0.000000 
0.000000 
0.000000 
0.000000 
0.000000 
0.000000 
0.000000 
0.000000 
0.000000 
0.000000 
0.000000 
0.000000 
0.000000 
0.000000 
0.000000 
0.000000 
0.000000 
0.000000 
0.000000 
0.000000 
0.000000 
0.000000 
0.000000 
0.000000 
0.000000 
0.000000 
0.000000 
-8.485168 
-25.508159 
-30.559567 
1.617649 
-49.971638 
-5.210249 
-26.101926 
-8.188285 
0.000000 
0.000000 
0.000000 
0.000000 
0.000000 
0.000000 
35.051175 
-70.102351 
0.000000 
0.000000 
0.000000 
0.000000 
0.000000 
0.000000 
0.000000 
0.000000 
0.000000 
0.000000 
0.000000 
0.000000 
0.000000 
0.000000 
0.000000 
0.000000 
-6.506169 
-6.498803 
-6.519478 
-6.464818 
-6.523536 
-6.501320 
-6.513737 
-6.498701 
-6.587965 
-6.535488 
-6.567783 
-6.523374 
-6.550426 
-6.513678 
-6.535725 
-6.506334 
-6.885443 
-6.738823 
-6.831169 
-6.700751 
-6.782861 
-6.666948 
-6.739868 
-6.637021 
-6.637658 
-6.567407 
-6.611176 
-6.550121 
-6.701637 
-6.610637 
-6.667699 
-6.587512 
-8.923860 
-9.476551 
-9.658445 
-8.560072 
-9.256302 
-8.265983 
-8.879246 
-8.029777 
-8.042786 
-7.514518 
-7.842562 
-7.386699 
-8.553808 
-7.831184 
-8.277421 
-7.661335 
-7.015139 
-6.829701 
-6.946458 
-6.781625 
-7.180167 
-6.944357 
-7.092595 
-6.883692 
-7.670585 
-7.274790 
-7.521895 
-7.176374 
-7.392569 
-7.089505 
-7.279489 
-7.012601 
-6.464818 
-6.519478 
-6.498803 
-6.506169 
-6.498701 
-6.513737 
-6.501320 
-6.523536 
-6.523374 
-6.567783 
-6.535488 
-6.587965 
-6.506334 
-6.535725 
-6.513678 
-6.550426 
-6.700751 
-6.831169 
-6.738823 
-6.885443 
-6.637021 
-6.739868 
-6.666948 
-6.782861 
-6.550121 
-6.611176 
-6.567407 
-6.637658 
-6.587512 
-6.667699 
-6.610637 
-6.701637 
-8.560072 
-9.658445 
-9.476551 
-8.923860 
-8.029777 
-8.879246 
-8.265983 
-9.256302 
-7.386699 
-7.842562 
-7.514518 
-8.042786 
-7.661335 
-8.277421 
-7.831184 
-8.553808 
-6.781625 
-6.946458 
-6.829701 
-7.015139 
-6.883692 
-7.092595 
-6.944357 
-7.180167 
-7.176374 
-7.521895 
-7.274790 
-7.670585 
-7.012601 
-7.279489 
-7.089505 
-7.392569 
0.000000 
0.000000 
0.000000 
0.000000 
0.000000 
0.000000 
0.000000 
0.000000 
0.000000 
0.000000 
0.000000 
0.000000 
0.000000 
0.000000 
0.000000 
0.000000 
0.000000 
0.000000 
0.000000 
0.000000 
0.000000 
0.000000 
0.000000 
0.000000 
0.000000 
0.000000 
0.000000 
0.000000 
0.000000 
0.000000 
0.000000 
0.000000 
1.617649 
-30.559567 
-25.508159 
-8.485168 
-8.188285 
-26.101926 
-5.210249 
-49.971638 
0.000000 
0.000000 
0.000000 
0.000000 
-70.102351 
35.051175 
0.000000 
0.000000 
0.000000 
0.000000 
0.000000 
0.000000 
0.000000 
0.000000 
0.000000 
0.000000 
0.000000 
0.000000 
0.000000 
0.000000 
0.000000 
0.000000 
0.000000 
0.000000 

