# vtk DataFile Version 2.0
Unstructured Grid Example
ASCII
DATASET UNSTRUCTURED_GRID

POINTS 128 float
0.000000 0.000000 0.000000 
0.015625 0.000000 0.000000 
0.015625 0.000000 0.000000 
0.031250 0.000000 0.000000 
0.031250 0.000000 0.000000 
0.046875 0.000000 0.000000 
0.046875 0.000000 0.000000 
0.062500 0.000000 0.000000 
0.093750 0.000000 0.000000 
0.109375 0.000000 0.000000 
0.109375 0.000000 0.000000 
0.125000 0.000000 0.000000 
0.062500 0.000000 0.000000 
0.078125 0.000000 0.000000 
0.078125 0.000000 0.000000 
0.093750 0.000000 0.000000 
0.218750 24.073095 0.000000 
0.234375 -48.146190 0.000000 
0.234375 -33.918917 0.000000 
0.250000 -4.381451 0.000000 
0.187500 0.000000 0.000000 
0.203125 0.000000 0.000000 
0.203125 0.000000 0.000000 
0.218750 0.000000 0.000000 
0.125000 0.000000 0.000000 
0.140625 0.000000 0.000000 
0.140625 0.000000 0.000000 
0.156250 0.000000 0.000000 
0.156250 0.000000 0.000000 
0.171875 0.000000 0.000000 
0.171875 0.000000 0.000000 
0.187500 0.000000 0.000000 
0.468750 -6.722003 0.000000 
0.484375 -6.674947 0.000000 
0.484375 -6.723138 0.000000 
0.500000 -6.625620 0.000000 
0.437500 -6.832406 0.000000 
0.453125 -6.690472 0.000000 
0.453125 -6.769248 0.000000 
0.468750 -6.674852 0.000000 
0.375000 -7.327329 0.000000 
0.390625 -6.904218 0.000000 
0.390625 -7.155292 0.000000 
0.406250 -6.825181 0.000000 
0.406250 -7.020499 0.000000 
0.421875 -6.764657 0.000000 
0.421875 -6.914781 0.000000 
0.437500 -6.720251 0.000000 
0.250000 -17.239640 0.000000 
0.265625 -8.202538 0.000000 
0.265625 -12.650362 0.000000 
0.281250 -8.343993 0.000000 
0.281250 -10.646709 0.000000 
0.296875 -8.044929 0.000000 
0.296875 -9.496147 0.000000 
0.312500 -7.744274 0.000000 
0.343750 -7.836798 0.000000 
0.359375 -7.132715 0.000000 
0.359375 -7.548526 0.000000 
0.375000 -7.005175 0.000000 
0.312500 -8.745307 0.000000 
0.328125 -7.494080 0.000000 
0.328125 -8.220208 0.000000 
0.343750 -7.293051 0.000000 
0.500000 -6.625620 0.000000 
0.515625 -6.723138 0.000000 
0.515625 -6.674947 0.000000 
0.531250 -6.722003 0.000000 
0.531250 -6.674852 0.000000 
0.546875 -6.769248 0.000000 
0.546875 -6.690472 0.000000 
0.562500 -6.832406 0.000000 
0.593750 -6.825181 0.000000 
0.609375 -7.155292 0.000000 
0.609375 -6.904218 0.000000 
0.625000 -7.327329 0.000000 
0.562500 -6.720251 0.000000 
0.578125 -6.914781 0.000000 
0.578125 -6.764657 0.000000 
0.593750 -7.020499 0.000000 
0.718750 -8.343993 0.000000 
0.734375 -12.650362 0.000000 
0.734375 -8.202538 0.000000 
0.750000 -17.239640 0.000000 
0.687500 -7.744274 0.000000 
0.703125 -9.496147 0.000000 
0.703125 -8.044929 0.000000 
0.718750 -10.646709 0.000000 
0.625000 -7.005175 0.000000 
0.640625 -7.548526 0.000000 
0.640625 -7.132715 0.000000 
0.656250 -7.836798 0.000000 
0.656250 -7.293051 0.000000 
0.671875 -8.220208 0.000000 
0.671875 -7.494080 0.000000 
0.687500 -8.745307 0.000000 
0.968750 0.000000 0.000000 
0.984375 0.000000 0.000000 
0.984375 0.000000 0.000000 
1.000000 0.000000 0.000000 
0.937500 0.000000 0.000000 
0.953125 0.000000 0.000000 
0.953125 0.000000 0.000000 
0.968750 0.000000 0.000000 
0.875000 0.000000 0.000000 
0.890625 0.000000 0.000000 
0.890625 0.000000 0.000000 
0.906250 0.000000 0.000000 
0.906250 0.000000 0.000000 
0.921875 0.000000 0.000000 
0.921875 0.000000 0.000000 
0.937500 0.000000 0.000000 
0.750000 -4.381451 0.000000 
0.765625 -33.918917 0.000000 
0.765625 -48.146190 0.000000 
0.781250 24.073095 0.000000 
0.781250 0.000000 0.000000 
0.796875 0.000000 0.000000 
0.796875 0.000000 0.000000 
0.812500 0.000000 0.000000 
0.843750 0.000000 0.000000 
0.859375 0.000000 0.000000 
0.859375 0.000000 0.000000 
0.875000 0.000000 0.000000 
0.812500 0.000000 0.000000 
0.828125 0.000000 0.000000 
0.828125 0.000000 0.000000 
0.843750 0.000000 0.000000 

CELLS 64 192
2  0 1 
2  2 3 
2  4 5 
2  6 7 
2  8 9 
2  10 11 
2  12 13 
2  14 15 
2  16 17 
2  18 19 
2  20 21 
2  22 23 
2  24 25 
2  26 27 
2  28 29 
2  30 31 
2  32 33 
2  34 35 
2  36 37 
2  38 39 
2  40 41 
2  42 43 
2  44 45 
2  46 47 
2  48 49 
2  50 51 
2  52 53 
2  54 55 
2  56 57 
2  58 59 
2  60 61 
2  62 63 
2  64 65 
2  66 67 
2  68 69 
2  70 71 
2  72 73 
2  74 75 
2  76 77 
2  78 79 
2  80 81 
2  82 83 
2  84 85 
2  86 87 
2  88 89 
2  90 91 
2  92 93 
2  94 95 
2  96 97 
2  98 99 
2  100 101 
2  102 103 
2  104 105 
2  106 107 
2  108 109 
2  110 111 
2  112 113 
2  114 115 
2  116 117 
2  118 119 
2  120 121 
2  122 123 
2  124 125 
2  126 127 

CELL_TYPES 64
3
3
3
3
3
3
3
3
3
3
3
3
3
3
3
3
3
3
3
3
3
3
3
3
3
3
3
3
3
3
3
3
3
3
3
3
3
3
3
3
3
3
3
3
3
3
3
3
3
3
3
3
3
3
3
3
3
3
3
3
3
3
3
3

POINT_DATA 128

SCALARS lambda_h float 1
LOOKUP_TABLE default
0.000000 
0.000000 
0.000000 
0.000000 
0.000000 
0.000000 
0.000000 
0.000000 
0.000000 
0.000000 
0.000000 
0.000000 
0.000000 
0.000000 
0.000000 
0.000000 
24.073095 
-48.146190 
-33.918917 
-4.381451 
0.000000 
0.000000 
0.000000 
0.000000 
0.000000 
0.000000 
0.000000 
0.000000 
0.000000 
0.000000 
0.000000 
0.000000 
-6.722003 
-6.674947 
-6.723138 
-6.625620 
-6.832406 
-6.690472 
-6.769248 
-6.674852 
-7.327329 
-6.904218 
-7.155292 
-6.825181 
-7.020499 
-6.764657 
-6.914781 
-6.720251 
-17.239640 
-8.202538 
-12.650362 
-8.343993 
-10.646709 
-8.044929 
-9.496147 
-7.744274 
-7.836798 
-7.132715 
-7.548526 
-7.005175 
-8.745307 
-7.494080 
-8.220208 
-7.293051 
-6.625620 
-6.723138 
-6.674947 
-6.722003 
-6.674852 
-6.769248 
-6.690472 
-6.832406 
-6.825181 
-7.155292 
-6.904218 
-7.327329 
-6.720251 
-6.914781 
-6.764657 
-7.020499 
-8.343993 
-12.650362 
-8.202538 
-17.239640 
-7.744274 
-9.496147 
-8.044929 
-10.646709 
-7.005175 
-7.548526 
-7.132715 
-7.836798 
-7.293051 
-8.220208 
-7.494080 
-8.745307 
0.000000 
0.000000 
0.000000 
0.000000 
0.000000 
0.000000 
0.000000 
0.000000 
0.000000 
0.000000 
0.000000 
0.000000 
0.000000 
0.000000 
0.000000 
0.000000 
-4.381451 
-33.918917 
-48.146190 
24.073095 
0.000000 
0.000000 
0.000000 
0.000000 
0.000000 
0.000000 
0.000000 
0.000000 
0.000000 
0.000000 
0.000000 
0.000000 

