# vtk DataFile Version 2.0
Unstructured Grid Example
ASCII
DATASET UNSTRUCTURED_GRID

POINTS 16 float
0.000000 0.000000 0.000000 
0.125000 0.000000 0.000000 
0.125000 1.965260 0.000000 
0.250000 -3.930521 0.000000 
0.250000 7.652455 0.000000 
0.375000 -21.200691 0.000000 
0.375000 -15.252597 0.000000 
0.500000 -4.243734 0.000000 
0.500000 -4.243734 0.000000 
0.625000 -15.252597 0.000000 
0.625000 -21.200691 0.000000 
0.750000 7.652455 0.000000 
0.750000 -3.930521 0.000000 
0.875000 1.965260 0.000000 
0.875000 0.000000 0.000000 
1.000000 0.000000 0.000000 

CELLS 8 24
2  0 1 
2  2 3 
2  4 5 
2  6 7 
2  8 9 
2  10 11 
2  12 13 
2  14 15 

CELL_TYPES 8
3
3
3
3
3
3
3
3

POINT_DATA 16

SCALARS lambda_h float 1
LOOKUP_TABLE default
0.000000 
0.000000 
1.965260 
-3.930521 
7.652455 
-21.200691 
-15.252597 
-4.243734 
-4.243734 
-15.252597 
-21.200691 
7.652455 
-3.930521 
1.965260 
0.000000 
0.000000 

