# vtk DataFile Version 2.0
Unstructured Grid Example
ASCII
DATASET UNSTRUCTURED_GRID

POINTS 1089 float
0.049365 -0.227607 0.000000 
0.950635 -0.227607 0.000000 
1.000000 1.000000 0.000000 
0.000000 1.000000 0.000000 
0.500000 -0.100000 0.000000 
0.984048 0.340966 0.000000 
0.500000 1.000000 0.000000 
0.015952 0.340966 0.000000 
0.500000 0.348509 0.000000 
0.273652 -0.100000 0.000000 
0.500000 0.107187 0.000000 
0.239769 0.086101 0.000000 
0.726348 -0.100000 0.000000 
0.760231 0.086101 0.000000 
1.005319 0.045798 0.000000 
0.747371 0.339200 0.000000 
0.952434 0.646123 0.000000 
0.729685 0.645642 0.000000 
0.750000 1.000000 0.000000 
0.500000 0.649528 0.000000 
0.250000 1.000000 0.000000 
0.270315 0.645642 0.000000 
0.047566 0.646123 0.000000 
0.252629 0.339200 0.000000 
-0.005319 0.045798 0.000000 
0.169779 -0.184385 0.000000 
0.246734 -0.020970 0.000000 
0.127435 -0.065841 0.000000 
0.500000 0.001073 0.000000 
0.375522 -0.001634 0.000000 
0.381908 -0.100000 0.000000 
0.371123 0.217680 0.000000 
0.370281 0.102553 0.000000 
0.500000 0.221717 0.000000 
0.618092 -0.100000 0.000000 
0.624478 -0.001634 0.000000 
0.872565 -0.065841 0.000000 
0.753266 -0.020970 0.000000 
0.830221 -0.184385 0.000000 
0.629719 0.102553 0.000000 
0.628877 0.217680 0.000000 
0.988931 -0.098889 0.000000 
0.885872 0.060856 0.000000 
0.867564 0.333863 0.000000 
0.881089 0.193710 0.000000 
0.999907 0.193321 0.000000 
0.756776 0.206456 0.000000 
0.624367 0.346084 0.000000 
0.966330 0.490759 0.000000 
0.852277 0.482903 0.000000 
0.843946 0.817484 0.000000 
0.841287 0.643232 0.000000 
0.951082 0.809676 0.000000 
0.736649 0.485227 0.000000 
0.618979 0.489456 0.000000 
0.875000 1.000000 0.000000 
0.732535 0.819562 0.000000 
0.500000 0.820948 0.000000 
0.617204 0.820472 0.000000 
0.625000 1.000000 0.000000 
0.615689 0.648329 0.000000 
0.500000 0.491293 0.000000 
0.375000 1.000000 0.000000 
0.382796 0.820472 0.000000 
0.156054 0.817484 0.000000 
0.267465 0.819562 0.000000 
0.125000 1.000000 0.000000 
0.384311 0.648329 0.000000 
0.381021 0.489456 0.000000 
0.048918 0.809676 0.000000 
0.158713 0.643232 0.000000 
0.132436 0.333863 0.000000 
0.147723 0.482903 0.000000 
0.033670 0.490759 0.000000 
0.263351 0.485227 0.000000 
0.375633 0.346084 0.000000 
0.000093 0.193321 0.000000 
0.118911 0.193710 0.000000 
0.114128 0.060856 0.000000 
0.011069 -0.098889 0.000000 
0.243224 0.206456 0.000000 
0.108882 -0.207618 0.000000 
0.144583 -0.126803 0.000000 
0.087081 -0.147438 0.000000 
0.255757 -0.067113 0.000000 
0.199906 -0.099606 0.000000 
0.228123 -0.151152 0.000000 
0.178558 0.013846 0.000000 
0.185682 -0.043804 0.000000 
0.241686 0.030672 0.000000 
0.500000 -0.050093 0.000000 
0.439876 -0.050269 0.000000 
0.440680 -0.100000 0.000000 
0.436343 0.052435 0.000000 
0.438065 0.000517 0.000000 
0.500000 0.053367 0.000000 
0.324734 -0.100000 0.000000 
0.379716 -0.051129 0.000000 
0.318918 -0.053993 0.000000 
0.436458 0.282612 0.000000 
0.435528 0.220683 0.000000 
0.500000 0.283429 0.000000 
0.304891 0.096050 0.000000 
0.370066 0.158583 0.000000 
0.305048 0.152799 0.000000 
0.500000 0.163118 0.000000 
0.435084 0.161968 0.000000 
0.435314 0.106052 0.000000 
0.311580 -0.007367 0.000000 
0.372081 0.049299 0.000000 
0.306923 0.042604 0.000000 
0.559320 -0.100000 0.000000 
0.560124 -0.050269 0.000000 
0.681082 -0.053993 0.000000 
0.620284 -0.051129 0.000000 
0.675266 -0.100000 0.000000 
0.561935 0.000517 0.000000 
0.563657 0.052435 0.000000 
0.912919 -0.147438 0.000000 
0.855417 -0.126803 0.000000 
0.891118 -0.207618 0.000000 
0.758314 0.030672 0.000000 
0.814318 -0.043804 0.000000 
0.821442 0.013846 0.000000 
0.771877 -0.151152 0.000000 
0.800094 -0.099606 0.000000 
0.744243 -0.067113 0.000000 
0.564472 0.220683 0.000000 
0.563542 0.282612 0.000000 
0.564686 0.106052 0.000000 
0.564916 0.161968 0.000000 
0.694952 0.152799 0.000000 
0.629934 0.158583 0.000000 
0.695109 0.096050 0.000000 
0.688420 -0.007367 0.000000 
0.693077 0.042604 0.000000 
0.627919 0.049299 0.000000 
0.971157 -0.165924 0.000000 
0.930728 -0.083752 0.000000 
0.946285 0.050939 0.000000 
0.941770 -0.017323 0.000000 
1.000500 -0.027558 0.000000 
0.882182 -0.003208 0.000000 
0.823968 0.073477 0.000000 
0.926277 0.334980 0.000000 
0.934441 0.262330 0.000000 
0.992701 0.266985 0.000000 
0.814261 0.266334 0.000000 
0.874948 0.262782 0.000000 
0.807901 0.335779 0.000000 
1.004585 0.119614 0.000000 
0.941225 0.190875 0.000000 
0.945605 0.120421 0.000000 
0.626907 0.280102 0.000000 
0.562270 0.348118 0.000000 
0.759537 0.144749 0.000000 
0.693081 0.212802 0.000000 
0.686130 0.342922 0.000000 
0.689980 0.276132 0.000000 
0.752526 0.271238 0.000000 
0.885087 0.126452 0.000000 
0.819554 0.199571 0.000000 
0.823051 0.135332 0.000000 
0.975129 0.415300 0.000000 
0.917741 0.409047 0.000000 
0.902104 0.562874 0.000000 
0.909433 0.484883 0.000000 
0.958473 0.567606 0.000000 
0.859777 0.407142 0.000000 
0.801150 0.408062 0.000000 
0.910484 0.906951 0.000000 
0.897600 0.814607 0.000000 
0.961085 0.896930 0.000000 
0.785743 0.644215 0.000000 
0.840021 0.728515 0.000000 
0.785158 0.729933 0.000000 
0.949370 0.726632 0.000000 
0.894444 0.727091 0.000000 
0.896673 0.643433 0.000000 
0.621573 0.415821 0.000000 
0.560847 0.417465 0.000000 
0.741857 0.410473 0.000000 
0.681961 0.413317 0.000000 
0.674882 0.565411 0.000000 
0.678051 0.487457 0.000000 
0.732356 0.563602 0.000000 
0.845806 0.561480 0.000000 
0.789297 0.562058 0.000000 
0.794716 0.483408 0.000000 
0.937500 1.000000 0.000000 
0.855432 0.909141 0.000000 
0.739448 0.909681 0.000000 
0.798022 0.909579 0.000000 
0.812500 1.000000 0.000000 
0.788880 0.818825 0.000000 
0.729463 0.731163 0.000000 
0.500000 0.909928 0.000000 
0.560265 0.909835 0.000000 
0.562500 1.000000 0.000000 
0.557968 0.733597 0.000000 
0.558720 0.820756 0.000000 
0.500000 0.733879 0.000000 
0.687500 1.000000 0.000000 
0.620364 0.909779 0.000000 
0.680149 0.909730 0.000000 
0.559568 0.490805 0.000000 
0.500000 0.417984 0.000000 
0.672984 0.647099 0.000000 
0.616903 0.567011 0.000000 
0.500000 0.568530 0.000000 
0.558547 0.568103 0.000000 
0.557956 0.649168 0.000000 
0.675222 0.820079 0.000000 
0.615690 0.733032 0.000000 
0.672925 0.732205 0.000000 
0.437500 1.000000 0.000000 
0.439735 0.909835 0.000000 
0.319851 0.909730 0.000000 
0.379636 0.909779 0.000000 
0.312500 1.000000 0.000000 
0.441280 0.820756 0.000000 
0.442032 0.733597 0.000000 
0.089516 0.906951 0.000000 
0.144568 0.909141 0.000000 
0.062500 1.000000 0.000000 
0.270537 0.731163 0.000000 
0.211120 0.818825 0.000000 
0.214842 0.729933 0.000000 
0.187500 1.000000 0.000000 
0.201978 0.909579 0.000000 
0.260552 0.909681 0.000000 
0.440432 0.490805 0.000000 
0.439153 0.417465 0.000000 
0.442044 0.649168 0.000000 
0.441453 0.568103 0.000000 
0.325118 0.565411 0.000000 
0.383097 0.567011 0.000000 
0.327016 0.647099 0.000000 
0.324778 0.820079 0.000000 
0.327075 0.732205 0.000000 
0.384310 0.733032 0.000000 
0.038915 0.896930 0.000000 
0.102400 0.814607 0.000000 
0.103327 0.643433 0.000000 
0.105556 0.727091 0.000000 
0.050630 0.726632 0.000000 
0.159979 0.728515 0.000000 
0.214257 0.644215 0.000000 
0.073723 0.334980 0.000000 
0.082259 0.409047 0.000000 
0.024871 0.415300 0.000000 
0.198850 0.408062 0.000000 
0.140223 0.407142 0.000000 
0.192099 0.335779 0.000000 
0.041527 0.567606 0.000000 
0.090567 0.484883 0.000000 
0.097896 0.562874 0.000000 
0.378427 0.415821 0.000000 
0.437730 0.348118 0.000000 
0.267644 0.563602 0.000000 
0.321949 0.487457 0.000000 
0.313870 0.342922 0.000000 
0.318039 0.413317 0.000000 
0.258143 0.410473 0.000000 
0.154194 0.561480 0.000000 
0.205284 0.483408 0.000000 
0.210703 0.562058 0.000000 
0.007299 0.266985 0.000000 
0.065559 0.262330 0.000000 
0.054395 0.120421 0.000000 
0.058775 0.190875 0.000000 
-0.004585 0.119614 0.000000 
0.125052 0.262782 0.000000 
0.185739 0.266334 0.000000 
0.069272 -0.083752 0.000000 
0.028843 -0.165924 0.000000 
0.176032 0.073477 0.000000 
0.117818 -0.003208 0.000000 
-0.000500 -0.027558 0.000000 
0.058230 -0.017323 0.000000 
0.053715 0.050939 0.000000 
0.373093 0.280102 0.000000 
0.247474 0.271238 0.000000 
0.310020 0.276132 0.000000 
0.306919 0.212802 0.000000 
0.240463 0.144749 0.000000 
0.114913 0.126452 0.000000 
0.176949 0.135332 0.000000 
0.180446 0.199571 0.000000 
0.078878 -0.217535 0.000000 
0.097859 -0.177971 0.000000 
0.068366 -0.187559 0.000000 
0.156318 -0.156219 0.000000 
0.127280 -0.167777 0.000000 
0.139299 -0.196836 0.000000 
0.106332 -0.106816 0.000000 
0.116047 -0.137708 0.000000 
0.134972 -0.096583 0.000000 
0.262744 -0.086449 0.000000 
0.237226 -0.107075 0.000000 
0.253451 -0.128117 0.000000 
0.220432 -0.058036 0.000000 
0.227188 -0.083238 0.000000 
0.250649 -0.044932 0.000000 
0.199713 -0.169464 0.000000 
0.211583 -0.126372 0.000000 
0.184565 -0.142627 0.000000 
0.208304 0.050951 0.000000 
0.209763 0.022611 0.000000 
0.240369 0.057962 0.000000 
0.156438 -0.055309 0.000000 
0.181444 -0.015208 0.000000 
0.151424 -0.025289 0.000000 
0.243783 0.004313 0.000000 
0.212150 -0.005021 0.000000 
0.215615 -0.031919 0.000000 
0.172529 -0.114210 0.000000 
0.191628 -0.071961 0.000000 
0.163328 -0.084985 0.000000 
0.500000 -0.075240 0.000000 
0.470215 -0.075233 0.000000 
0.470301 -0.100000 0.000000 
0.469532 -0.024715 0.000000 
0.469937 -0.050115 0.000000 
0.500000 -0.024643 0.000000 
0.411186 -0.100000 0.000000 
0.440476 -0.075296 0.000000 
0.410822 -0.075429 0.000000 
0.467899 0.079771 0.000000 
0.468213 0.053125 0.000000 
0.500000 0.080051 0.000000 
0.406916 -0.000285 0.000000 
0.437141 0.026304 0.000000 
0.405503 0.025264 0.000000 
0.500000 0.027063 0.000000 
0.468614 0.026872 0.000000 
0.469069 0.000942 0.000000 
0.297752 -0.100000 0.000000 
0.322714 -0.076805 0.000000 
0.293350 -0.078709 0.000000 
0.381296 -0.075656 0.000000 
0.351933 -0.076048 0.000000 
0.352996 -0.100000 0.000000 
0.346565 -0.028125 0.000000 
0.349494 -0.052104 0.000000 
0.377650 -0.026488 0.000000 
0.439021 -0.024994 0.000000 
0.408422 -0.025540 0.000000 
0.409813 -0.050581 0.000000 
[...]
POINT_DATA 1089

SCALARS u_h float 2
LOOKUP_TABLE default
0.049365 -0.227607 
-0.049365 -0.227607 
0.000000 0.000000 
0.000000 0.000000 
-0.000000 -0.100000 
-0.015952 -0.159034 
0.000000 0.000000 
0.015952 -0.159034 
-0.000000 -0.151491 
0.023652 -0.100000 
-0.000000 -0.142813 
-0.010231 -0.163899 
-0.023652 -0.100000 
0.010231 -0.163899 
0.005319 -0.204202 
-0.002629 -0.160800 
-0.047566 -0.103877 
-0.020315 -0.104358 
0.000000 0.000000 
-0.000000 -0.100472 
0.000000 0.000000 
0.020315 -0.104358 
0.047566 -0.103877 
0.002629 -0.160800 
-0.005319 -0.204202 
0.044779 -0.184385 
-0.003266 -0.145970 
0.002435 -0.190841 
-0.000000 -0.123927 
0.000522 -0.126634 
0.006908 -0.100000 
-0.003877 -0.157320 
-0.004719 -0.147447 
-0.000000 -0.153283 
-0.006908 -0.100000 
-0.000522 -0.126634 
-0.002435 -0.190841 
0.003266 -0.145970 
-0.044779 -0.184385 
0.004719 -0.147447 
0.003877 -0.157320 
-0.011069 -0.223889 
0.010872 -0.189144 
-0.007436 -0.166137 
0.006089 -0.181290 
-0.000093 -0.181679 
0.006776 -0.168544 
-0.000633 -0.153916 
-0.033670 -0.134241 
-0.022723 -0.142097 
-0.031054 -0.057516 
-0.033713 -0.106768 
-0.048918 -0.065324 
-0.013351 -0.139773 
-0.006021 -0.135544 
0.000000 0.000000 
-0.017465 -0.055438 
-0.000000 -0.054052 
-0.007796 -0.054528 
0.000000 0.000000 
-0.009311 -0.101671 
-0.000000 -0.133707 
0.000000 0.000000 
0.007796 -0.054528 
0.031054 -0.057516 
0.017465 -0.055438 
0.000000 0.000000 
0.009311 -0.101671 
0.006021 -0.135544 
0.048918 -0.065324 
0.033713 -0.106768 
0.007436 -0.166137 
0.022723 -0.142097 
0.033670 -0.134241 
0.013351 -0.139773 
0.000633 -0.153916 
0.000093 -0.181679 
-0.006089 -0.181290 
-0.010872 -0.189144 
0.011069 -0.223889 
-0.006776 -0.168544 
0.046382 -0.207618 
0.019583 -0.189303 
0.024581 -0.209938 
0.005757 -0.129613 
0.012406 -0.162106 
0.040623 -0.151152 
-0.008942 -0.173654 
-0.001818 -0.168804 
-0.008314 -0.156828 
-0.000000 -0.112593 
0.002376 -0.112769 
0.003180 -0.100000 
-0.001157 -0.135065 
0.000565 -0.124483 
-0.000000 -0.134133 
0.012234 -0.100000 
0.004716 -0.113629 
0.006418 -0.116493 
-0.001042 -0.154888 
-0.001972 -0.154317 
-0.000000 -0.154071 
-0.007609 -0.153950 
-0.004934 -0.153917 
-0.007452 -0.159701 
-0.000000 -0.149382 
-0.002416 -0.150532 
-0.002186 -0.143948 
-0.000920 -0.132367 
-0.002919 -0.138201 
-0.005577 -0.144896 
-0.003180 -0.100000 
-0.002376 -0.112769 
-0.006418 -0.116493 
-0.004716 -0.113629 
-0.012234 -0.100000 
-0.000565 -0.124483 
0.001157 -0.135065 
-0.024581 -0.209938 
-0.019583 -0.189303 
-0.046382 -0.207618 
0.008314 -0.156828 
0.001818 -0.168804 
0.008942 -0.173654 
-0.040623 -0.151152 
-0.012406 -0.162106 
-0.005757 -0.129613 
0.001972 -0.154317 
0.001042 -0.154888 
0.002186 -0.143948 
0.002416 -0.150532 
0.007452 -0.159701 
0.004934 -0.153917 
0.007609 -0.153950 
0.000920 -0.132367 
0.005577 -0.144896 
0.002919 -0.138201 
-0.028843 -0.228424 
-0.006772 -0.208752 
0.008785 -0.199061 
0.004270 -0.204823 
0.000500 -0.215058 
0.007182 -0.190708 
0.011468 -0.176523 
-0.011223 -0.165020 
-0.003059 -0.175170 
-0.007299 -0.170515 
0.001761 -0.171166 
-0.000052 -0.174718 
-0.004599 -0.164221 
0.004585 -0.192886 
0.003725 -0.184125 
0.008105 -0.192079 
0.001907 -0.157398 
-0.000230 -0.151882 
0.009537 -0.167751 
0.005581 -0.162198 
-0.001370 -0.157078 
0.002480 -0.161368 
0.002526 -0.166262 
0.010087 -0.186048 
0.007054 -0.175429 
0.010551 -0.177168 
-0.024871 -0.147200 
-0.019759 -0.153453 
-0.035396 -0.124626 
-0.028067 -0.140117 
-0.041527 -0.119894 
-0.015223 -0.155358 
-0.011350 -0.154438 
-0.027016 -0.030549 
-0.039900 -0.060393 
-0.038915 -0.040570 
-0.026757 -0.105785 
-0.034979 -0.083985 
-0.027342 -0.082567 
-0.050630 -0.085868 
-0.043056 -0.085409 
-0.040827 -0.106567 
-0.003427 -0.146679 
-0.001653 -0.145035 
-0.008143 -0.152027 
-0.005539 -0.149183 
-0.012618 -0.122089 
-0.009449 -0.137543 
-0.017644 -0.123898 
-0.029194 -0.126020 
-0.023203 -0.125442 
-0.017784 -0.141592 
0.000000 0.000000 
-0.019568 -0.028359 
-0.010552 -0.027819 
-0.014478 -0.027921 
0.000000 0.000000 
-0.023620 -0.056175 
-0.020537 -0.081337 
0.000000 -0.027572 
-0.002235 -0.027665 
0.000000 0.000000 
-0.004532 -0.078903 
-0.003780 -0.054244 
-0.000000 -0.078621 
0.000000 0.000000 
-0.004636 -0.027721 
-0.007351 -0.027770 
-0.002932 -0.134195 
-0.000000 -0.144516 
-0.014516 -0.102901 
-0.008097 -0.120489 
-0.000000 -0.118970 
-0.003953 -0.119397 
-0.004544 -0.100832 
-0.012278 -0.054921 
-0.009310 -0.079468 
-0.014575 -0.080295 
0.000000 0.000000 
0.002235 -0.027665 
0.007351 -0.027770 
0.004636 -0.027721 
0.000000 0.000000 
0.003780 -0.054244 
0.004532 -0.078903 
0.027016 -0.030549 
0.019568 -0.028359 
0.000000 0.000000 
0.020537 -0.081337 
0.023620 -0.056175 
0.027342 -0.082567 
0.000000 0.000000 
0.014478 -0.027921 
0.010552 -0.027819 
0.002932 -0.134195 
0.001653 -0.145035 
0.004544 -0.100832 
0.003953 -0.119397 
0.012618 -0.122089 
0.008097 -0.120489 
0.014516 -0.102901 
0.012278 -0.054921 
0.014575 -0.080295 
0.009310 -0.079468 
0.038915 -0.040570 
0.039900 -0.060393 
0.040827 -0.106567 
0.043056 -0.085409 
0.050630 -0.085868 
0.034979 -0.083985 
0.026757 -0.105785 
0.011223 -0.165020 
0.019759 -0.153453 
0.024871 -0.147200 
0.011350 -0.154438 
0.015223 -0.155358 
0.004599 -0.164221 
0.041527 -0.119894 
0.028067 -0.140117 
0.035396 -0.124626 
0.003427 -0.146679 
0.000230 -0.151882 
0.017644 -0.123898 
0.009449 -0.137543 
0.001370 -0.157078 
0.005539 -0.149183 
0.008143 -0.152027 
0.029194 -0.126020 
0.017784 -0.141592 
0.023203 -0.125442 
0.007299 -0.170515 
0.003059 -0.175170 
-0.008105 -0.192079 
-0.003725 -0.184125 
-0.004585 -0.192886 
0.000052 -0.174718 
-0.001761 -0.171166 
0.006772 -0.208752 
0.028843 -0.228424 
-0.011468 -0.176523 
-0.007182 -0.190708 
-0.000500 -0.215058 
-0.004270 -0.204823 
-0.008785 -0.199061 
-0.001907 -0.157398 
-0.002526 -0.166262 
-0.002480 -0.161368 
-0.005581 -0.162198 
-0.009537 -0.167751 
-0.010087 -0.186048 
-0.010551 -0.177168 
-0.007054 -0.175429 
0.047628 -0.217535 
0.035359 -0.209221 
0.037116 -0.218809 
0.031318 -0.187469 
0.033530 -0.199027 
0.045549 -0.196836 
0.012582 -0.200566 
0.022297 -0.200208 
0.009972 -0.190333 
0.012744 -0.117699 
0.018476 -0.138325 
0.034701 -0.128117 
0.001682 -0.151786 
0.008438 -0.145738 
0.000649 -0.138682 
0.043463 -0.169464 
0.024083 -0.157622 
0.028315 -0.173877 
-0.010446 -0.167799 
-0.008987 -0.164889 
-0.009631 -0.160788 
0.000188 -0.180309 
-0.006056 -0.171458 
-0.004826 -0.181539 
-0.006217 -0.151937 
-0.006600 -0.161271 
-0.003135 -0.156919 
0.016279 -0.176710 
0.004128 -0.165711 
0.007078 -0.178735 
-0.000000 -0.106490 
0.001465 -0.106483 
0.001551 -0.100000 
0.000782 -0.118465 
0.001187 -0.112615 
-0.000000 -0.118393 
0.004936 -0.100000 
0.002976 -0.106546 
0.004572 -0.106679 
-0.000851 -0.138979 
-0.000537 -0.134375 
-0.000000 -0.138699 
0.000666 -0.125285 
-0.000359 -0.129946 
-0.000747 -0.130986 
-0.000000 -0.129187 
-0.000136 -0.129378 
0.000319 -0.124058 
0.016502 -0.100000 
0.010214 -0.108055 
0.012100 -0.109959 
0.006296 -0.106906 
0.008183 -0.107298 
0.009246 -0.100000 
0.002815 -0.121875 
0.005744 -0.114604 
0.002650 -0.120238 
0.001521 -0.118744 
0.002172 -0.119290 
0.003563 -0.113081 
-0.000257 -0.153319 
-0.000543 -0.154264 
-0.000000 -0.153205 
-0.002938 -0.155574 
-0.001556 -0.155028 
-0.002291 -0.156186 
-0.000000 -0.154088 
-0.000790 -0.154328 
-0.000991 -0.153554 
-0.009020 -0.158498 
-0.007775 -0.157232 
-0.009072 -0.161394 
-0.005007 -0.151049 
-0.006392 -0.153784 
-0.006141 -0.150281 
-0.005653 -0.158431 
-0.006212 -0.156506 
-0.004542 -0.156019 
-0.000000 -0.146399 
-0.001181 -0.146709 
-0.001067 -0.143115 
-0.001132 -0.151991 
-0.001199 -0.149689 
-0.000000 -0.151697 
-0.003397 -0.145366 
-0.002396 -0.147561 
-0.003669 -0.148991 
-0.003406 -0.154142 
-0.003661 -0.151933 
-0.002267 -0.152802 
0.006295 -0.120639 
0.000020 -0.128833 
0.002467 -0.124783 
0.001539 -0.129963 
-0.002188 -0.137872 
-0.001773 -0.139758 
-0.004031 -0.143149 
-0.002821 -0.141111 
-0.001931 -0.136292 
-0.001383 -0.132665 
-0.008369 -0.154761 
-0.005021 -0.144543 
-0.007057 -0.150135 
-0.006896 -0.149844 
-0.005408 -0.146011 
-0.002335 -0.135246 
-0.004148 -0.140991 
-0.003600 -0.139077 
-0.001551 -0.100000 
-0.001465 -0.106483 
-0.004572 -0.106679 
-0.002976 -0.106546 
-0.004936 -0.100000 
-0.001187 -0.112615 
-0.000782 -0.118465 
-0.012100 -0.109959 
-0.010214 -0.108055 
-0.016502 -0.100000 
-0.002650 -0.120238 
-0.005744 -0.114604 
-0.002815 -0.121875 
-0.009246 -0.100000 
-0.008183 -0.107298 
-0.006296 -0.106906 
0.000537 -0.134375 
0.000851 -0.138979 
-0.000319 -0.124058 
0.000136 -0.129378 
0.000747 -0.130986 
0.000359 -0.129946 
-0.000666 -0.125285 
-0.003563 -0.113081 
-0.002172 -0.119290 
-0.001521 -0.118744 
-0.037116 -0.218809 
-0.035359 -0.209221 
-0.047628 -0.217535 
-0.009972 -0.190333 
-0.022297 -0.200208 
-0.012582 -0.200566 
-0.045549 -0.196836 
-0.033530 -0.199027 
-0.031318 -0.187469 
0.009631 -0.160788 
0.008987 -0.164889 
0.010446 -0.167799 
0.003135 -0.156919 
0.006600 -0.161271 
0.006217 -0.151937 
0.004826 -0.181539 
0.006056 -0.171458 
-0.000188 -0.180309 
-0.034701 -0.128117 
-0.018476 -0.138325 
-0.012744 -0.117699 
-0.028315 -0.173877 
-0.024083 -0.157622 
-0.043463 -0.169464 
-0.000649 -0.138682 
-0.008438 -0.145738 
-0.001682 -0.151786 
-0.007078 -0.178735 
-0.004128 -0.165711 
-0.016279 -0.176710 
0.000543 -0.154264 
0.000257 -0.153319 
0.000991 -0.153554 
0.000790 -0.154328 
0.002291 -0.156186 
0.001556 -0.155028 
0.002938 -0.155574 
0.001067 -0.143115 
0.001181 -0.146709 
0.003669 -0.148991 
0.002396 -0.147561 
0.003397 -0.145366 
0.001199 -0.149689 
0.001132 -0.151991 
0.009072 -0.161394 
0.007775 -0.157232 
0.009020 -0.158498 
0.004542 -0.156019 
0.006212 -0.156506 
0.005653 -0.158431 
0.006141 -0.150281 
0.006392 -0.153784 
0.005007 -0.151049 
0.002267 -0.152802 
0.003661 -0.151933 
0.003406 -0.154142 
-0.006295 -0.120639 
0.002188 -0.137872 
-0.001539 -0.129963 
-0.002467 -0.124783 
-0.000020 -0.128833 
0.008369 -0.154761 
0.005408 -0.146011 
0.006896 -0.149844 
0.007057 -0.150135 
0.005021 -0.144543 
0.001773 -0.139758 
0.001383 -0.132665 
0.001931 -0.136292 
0.002821 -0.141111 
0.004031 -0.143149 
0.003600 -0.139077 
0.004148 -0.140991 
0.002335 -0.135246 
-0.039063 -0.228623 
-0.026668 -0.219112 
-0.008842 -0.216522 
-0.017066 -0.218331 
-0.019327 -0.226823 
-0.014902 -0.209750 
-0.004658 -0.200278 
0.007244 -0.202361 
0.005661 -0.206584 
0.003700 -0.209760 
0.008607 -0.196576 
0.007271 -0.202124 
0.009993 -0.194575 
-0.004414 -0.219865 
0.002534 -0.210461 
-0.002281 -0.213836 
0.010695 -0.175353 
0.011080 -0.170015 
0.003213 -0.190952 
0.008279 -0.182426 
0.011383 -0.183023 
0.010404 -0.182933 
0.009672 -0.190109 
-0.000378 -0.207069 
0.005817 -0.198218 
0.001444 -0.199469 
-0.013475 -0.162770 
-0.009126 -0.168302 
-0.011500 -0.164841 
-0.005194 -0.170976 
-0.007023 -0.170261 
-0.009209 -0.166064 
-0.003455 -0.176110 
-0.005026 -0.173613 
-0.001277 -0.178740 
-0.000543 -0.166081 
-0.001329 -0.168040 
-0.003514 -0.162615 
0.003226 -0.178242 
0.000997 -0.173212 
0.004062 -0.176192 
-0.005902 -0.165455 
-0.002356 -0.169642 
-0.003640 -0.170692 
0.005545 -0.198546 
0.006545 -0.193296 
0.007472 -0.197908 
0.001999 -0.183714 
0.004661 -0.188562 
0.002643 -0.187263 
0.007541 -0.186562 
0.006291 -0.188220 
0.005086 -0.183221 
-0.001402 -0.175452 
0.002063 -0.179525 
0.000564 -0.179782 
0.000443 -0.153850 
-0.000102 -0.151426 
0.002984 -0.157791 
0.001499 -0.155939 
-0.000401 -0.152730 
0.000592 -0.154796 
0.000686 -0.156115 
0.010177 -0.166211 
0.008588 -0.163475 
0.006267 -0.165231 
0.007631 -0.164754 
0.008380 -0.168528 
0.006700 -0.161359 
0.004770 -0.159540 
-0.001922 -0.158915 
0.000402 -0.161758 
0.000025 -0.163937 
0.000704 -0.157758 
0.000619 -0.159665 
-0.000948 -0.155386 
0.004801 -0.167793 
0.002587 -0.163747 
0.004564 -0.164899 
0.003615 -0.159813 
0.004154 -0.162206 
0.002243 -0.159227 
0.008999 -0.195699 
0.008418 -0.183886 
0.009284 -0.189564 
0.010158 -0.192235 
0.010956 -0.187795 
0.002262 -0.168788 
0.007055 -0.172003 
0.004821 -0.170756 
0.004586 -0.173622 
0.006740 -0.178606 
0.010975 -0.171544 
0.011373 -0.182661 
0.011383 -0.177135 
0.010214 -0.172388 
0.008880 -0.172543 
0.008927 -0.180474 
0.009075 -0.176605 
0.010511 -0.181819 
-0.020367 -0.153241 
-0.017841 -0.157016 
-0.026618 -0.144563 
-0.022252 -0.150966 
-0.029338 -0.140877 
-0.015477 -0.159433 
-0.013300 -0.160703 
-0.041680 -0.114505 
-0.038487 -0.122777 
-0.044836 -0.112113 
-0.025353 -0.141501 
-0.031906 -0.132665 
-0.028998 -0.133911 
-0.037767 -0.127259 
-0.034837 -0.130513 
-0.030846 -0.137760 
-0.007975 -0.159698 
-0.006592 -0.158380 
-0.011324 -0.161038 
-0.009549 -0.160641 
-0.016779 -0.148986 
-0.013202 -0.155162 
-0.019052 -0.149058 
-0.023986 -0.147030 
-0.021459 -0.148466 
-0.017411 -0.154851 
-0.019176 -0.016412 
-0.032628 -0.034164 
-0.028238 -0.024621 
-0.035327 -0.058693 
-0.035100 -0.046120 
-0.030417 -0.044183 
-0.045313 -0.053697 
-0.040246 -0.049262 
-0.044553 -0.062653 
-0.023459 -0.105096 
-0.027501 -0.094613 
-0.024052 -0.093934 
-0.034855 -0.095837 
-0.031115 -0.095263 
-0.030187 -0.106368 
-0.029827 -0.070375 
-0.031069 -0.083254 
-0.033817 -0.071197 
-0.049561 -0.095146 
-0.046116 -0.096126 
-0.044278 -0.105642 
-0.046595 -0.074771 
-0.046982 -0.085873 
-0.050528 -0.075968 
-0.037281 -0.106881 
-0.042448 -0.096416 
-0.038661 -0.096261 
-0.038027 -0.072221 
-0.039008 -0.084729 
-0.042347 -0.073444 
-0.000956 -0.148952 
-0.000492 -0.148534 
-0.002035 -0.150777 
-0.001462 -0.149714 
-0.003511 -0.140746 
-0.002509 -0.145725 
-0.004768 -0.141604 
-0.005389 -0.156838 
-0.004350 -0.155205 
-0.009122 -0.145096 
-0.006772 -0.150604 
-0.010822 -0.146345 
-0.003458 -0.153591 
-0.002693 -0.152090 
-0.016423 -0.113757 
-0.015063 -0.122992 
-0.019232 -0.114581 
-0.007683 -0.136483 
-0.011158 -0.130292 
-0.009097 -0.129343 
-0.015653 -0.132294 
-0.013341 -0.131297 
-0.011335 -0.138664 
-0.004430 -0.147850 
-0.007556 -0.143838 
-0.006110 -0.142652 
-0.038417 -0.115947 
-0.031767 -0.116814 
-0.035096 -0.116655 
-0.032286 -0.125646 
-0.026139 -0.134433 
-0.022185 -0.115370 
-0.018097 -0.133208 
-0.020360 -0.124741 
-0.025275 -0.116061 
-0.028480 -0.116575 
-0.009666 -0.153346 
-0.020195 -0.142076 
-0.014648 -0.148413 
-0.012662 -0.147489 
-0.015500 -0.140784 
-0.026156 -0.125907 
-0.020668 -0.133944 
-0.023355 -0.134395 
0.000000 0.000000 
-0.015153 -0.014537 
-0.010689 -0.013799 
-0.012597 -0.013976 
0.000000 0.000000 
-0.022854 -0.029023 
-0.026373 -0.043111 
-0.005680 -0.013839 
-0.006693 -0.013805 
0.000000 0.000000 
-0.016994 -0.041922 
-0.012405 -0.027855 
-0.014499 -0.041751 
0.000000 0.000000 
-0.007834 -0.013774 
-0.009144 -0.013761 
-0.023829 -0.081929 
-0.020787 -0.093257 
-0.027157 -0.056725 
-0.026104 -0.069713 
-0.019459 -0.068688 
-0.022653 -0.069162 
-0.020403 -0.055765 
-0.016833 -0.028060 
-0.019761 -0.042155 
-0.022859 -0.042512 
0.000000 -0.013878 
-0.000585 -0.013908 
0.000000 0.000000 
-0.001538 -0.041071 
-0.001105 -0.027627 
-0.000000 -0.040997 
0.000000 0.000000 
-0.001188 -0.013920 
-0.001816 -0.013923 
-0.002297 -0.090043 
-0.002251 -0.078726 
-0.000000 -0.089931 
-0.005744 -0.054372 
-0.004254 -0.066867 
-0.006459 -0.067054 
-0.000000 -0.066628 
-0.002112 -0.066726 
-0.001875 -0.054139 
0.000000 0.000000 
-0.003942 -0.013892 
-0.004770 -0.013869 
-0.002477 -0.013919 
-0.003182 -0.013908 
0.000000 0.000000 
-0.008218 -0.041391 
-0.005945 -0.027746 
-0.006420 -0.041298 
-0.003105 -0.041140 
-0.004724 -0.041215 
-0.003406 -0.027695 
-0.000829 -0.144630 
-0.000000 -0.148464 
-0.004445 -0.134770 
-0.002315 -0.140114 
-0.000000 -0.139604 
-0.001154 -0.139731 
-0.001459 -0.133837 
-0.017335 -0.103614 
-0.013761 -0.112949 
-0.008834 -0.111533 
-0.011236 -0.112196 
-0.011847 -0.102245 
-0.010300 -0.121241 
-0.007144 -0.128502 
-0.000000 -0.110171 
-0.002145 -0.110293 
-0.002259 -0.100590 
-0.001733 -0.126953 
-0.001966 -0.119095 
-0.000000 -0.126824 
-0.006885 -0.101195 
-0.004313 -0.110566 
-0.006534 -0.110983 
-0.005281 -0.127805 
-0.005988 -0.119867 
-0.003485 -0.127283 
-0.008879 -0.027793 
-0.009964 -0.054711 
-0.010145 -0.041496 
-0.012228 -0.041614 
-0.014768 -0.055162 
-0.004623 -0.090253 
-0.009483 -0.090959 
-0.007008 -0.090560 
-0.006874 -0.079151 
-0.008756 -0.067290 
-0.017709 -0.092604 
-0.016499 -0.068270 
-0.017458 -0.080792 
-0.014811 -0.091993 
-0.012076 -0.091440 
-0.011175 -0.067572 
-0.011868 -0.079852 
-0.013747 -0.067899 
0.000000 0.000000 
0.000585 -0.013908 
0.001816 -0.013923 
0.001188 -0.013920 
0.000000 0.000000 
0.001105 -0.027627 
0.001538 -0.041071 
0.004770 -0.013869 
0.003942 -0.013892 
0.000000 0.000000 
0.006420 -0.041298 
0.005945 -0.027746 
0.008218 -0.041391 
0.000000 0.000000 
0.003182 -0.013908 
0.002477 -0.013919 
0.002251 -0.078726 
0.002297 -0.090043 
0.001875 -0.054139 
0.002112 -0.066726 
0.006459 -0.067054 
0.004254 -0.066867 
0.005744 -0.054372 
0.003406 -0.027695 
0.004724 -0.041215 
0.003105 -0.041140 
0.019176 -0.016412 
0.015153 -0.014537 
0.000000 0.000000 
0.026373 -0.043111 
0.022854 -0.029023 
0.030417 -0.044183 
0.000000 0.000000 
0.012597 -0.013976 
0.010689 -0.013799 
0.020787 -0.093257 
0.023829 -0.081929 
0.024052 -0.093934 
0.020403 -0.055765 
0.022653 -0.069162 
0.019459 -0.068688 
0.029827 -0.070375 
0.026104 -0.069713 
0.027157 -0.056725 
0.000000 0.000000 
0.006693 -0.013805 
0.005680 -0.013839 
0.009144 -0.013761 
0.007834 -0.013774 
0.000000 0.000000 
0.014499 -0.041751 
0.012405 -0.027855 
0.016994 -0.041922 
0.022859 -0.042512 
0.019761 -0.042155 
0.016833 -0.028060 
0.000829 -0.144630 
0.000492 -0.148534 
0.001459 -0.133837 
0.001154 -0.139731 
0.003511 -0.140746 
0.002315 -0.140114 
0.004445 -0.134770 
0.002259 -0.100590 
0.002145 -0.110293 
0.006534 -0.110983 
0.004313 -0.110566 
0.006885 -0.101195 
0.001966 -0.119095 
0.001733 -0.126953 
0.016423 -0.113757 
0.013761 -0.112949 
0.017335 -0.103614 
0.007144 -0.128502 
0.010300 -0.121241 
0.009097 -0.129343 
0.011847 -0.102245 
0.011236 -0.112196 
0.008834 -0.111533 
0.003485 -0.127283 
0.005988 -0.119867 
0.005281 -0.127805 
0.008879 -0.027793 
0.014768 -0.055162 
0.012228 -0.041614 
0.010145 -0.041496 
0.009964 -0.054711 
0.017709 -0.092604 
0.012076 -0.091440 
0.014811 -0.091993 
0.017458 -0.080792 
0.016499 -0.068270 
0.004623 -0.090253 
0.008756 -0.067290 
0.006874 -0.079151 
0.007008 -0.090560 
0.009483 -0.090959 
0.013747 -0.067899 
0.011868 -0.079852 
0.011175 -0.067572 
0.028238 -0.024621 
0.032628 -0.034164 
0.044553 -0.062653 
0.040246 -0.049262 
0.045313 -0.053697 
0.035100 -0.046120 
0.035327 -0.058693 
0.044278 -0.105642 
0.046116 -0.096126 
0.049561 -0.095146 
0.038661 -0.096261 
0.042448 -0.096416 
0.037281 -0.106881 
0.050528 -0.075968 
0.046982 -0.085873 
0.046595 -0.074771 
0.027501 -0.094613 
0.023459 -0.105096 
0.033817 -0.071197 
0.031069 -0.083254 
0.030187 -0.106368 
0.031115 -0.095263 
0.034855 -0.095837 
0.042347 -0.073444 
0.039008 -0.084729 
0.038027 -0.072221 
0.013475 -0.162770 
0.017841 -0.157016 
0.020367 -0.153241 
0.013300 -0.160703 
0.015477 -0.159433 
0.009209 -0.166064 
0.029338 -0.140877 
0.022252 -0.150966 
0.026618 -0.144563 
0.006592 -0.158380 
0.007975 -0.159698 
0.003514 -0.162615 
0.019052 -0.149058 
0.013202 -0.155162 
0.016779 -0.148986 
0.005902 -0.165455 
0.009549 -0.160641 
0.011324 -0.161038 
0.044836 -0.112113 
0.038487 -0.122777 
0.041680 -0.114505 
0.030846 -0.137760 
0.034837 -0.130513 
0.037767 -0.127259 
0.028998 -0.133911 
0.031906 -0.132665 
0.025353 -0.141501 
0.017411 -0.154851 
0.021459 -0.148466 
0.023986 -0.147030 
0.000956 -0.148952 
0.000102 -0.151426 
0.004768 -0.141604 
0.002509 -0.145725 
0.000401 -0.152730 
0.001462 -0.149714 
0.002035 -0.150777 
0.019232 -0.114581 
0.015063 -0.122992 
0.011335 -0.138664 
0.013341 -0.131297 
0.015653 -0.132294 
0.011158 -0.130292 
0.007683 -0.136483 
0.001922 -0.158915 
0.004350 -0.155205 
0.005389 -0.156838 
0.002693 -0.152090 
0.003458 -0.153591 
0.000948 -0.155386 
0.010822 -0.146345 
0.006772 -0.150604 