# vtk DataFile Version 2.0
Unstructured Grid Example
ASCII
DATASET UNSTRUCTURED_GRID

POINTS 4225 float
0.049823 -0.223742 0.000000 
0.950177 -0.223742 0.000000 
1.000000 1.000000 0.000000 
0.000000 1.000000 0.000000 
0.500000 -0.100000 0.000000 
0.984581 0.343341 0.000000 
0.500000 1.000000 0.000000 
0.015419 0.343341 0.000000 
0.500000 0.349840 0.000000 
0.267734 -0.100000 0.000000 
0.500000 0.107842 0.000000 
0.239895 0.088903 0.000000 
0.732266 -0.100000 0.000000 
0.760105 0.088903 0.000000 
1.006602 0.049684 0.000000 
0.747329 0.340810 0.000000 
0.952712 0.647321 0.000000 
0.729710 0.646381 0.000000 
0.750000 1.000000 0.000000 
0.500000 0.650032 0.000000 
0.250000 1.000000 0.000000 
0.270290 0.646381 0.000000 
0.047288 0.647321 0.000000 
0.252671 0.340810 0.000000 
-0.006602 0.049684 0.000000 
0.170490 -0.178721 0.000000 
0.246808 -0.017111 0.000000 
0.125975 -0.060895 0.000000 
0.500000 0.001301 0.000000 
0.375465 -0.000939 0.000000 
0.380799 -0.100000 0.000000 
0.371336 0.219028 0.000000 
0.370562 0.103821 0.000000 
0.500000 0.222725 0.000000 
0.619201 -0.100000 0.000000 
0.624535 -0.000939 0.000000 
0.874025 -0.060895 0.000000 
0.753192 -0.017111 0.000000 
0.829510 -0.178721 0.000000 
0.629438 0.103821 0.000000 
0.628664 0.219028 0.000000 
0.989711 -0.095615 0.000000 
0.886756 0.064723 0.000000 
0.867770 0.335946 0.000000 
0.881449 0.196567 0.000000 
1.000645 0.196718 0.000000 
0.756677 0.208574 0.000000 
0.624260 0.347304 0.000000 
0.966660 0.492524 0.000000 
0.852455 0.484382 0.000000 
0.843858 0.817778 0.000000 
0.841421 0.644143 0.000000 
0.951161 0.810204 0.000000 
0.736702 0.486408 0.000000 
0.618992 0.490424 0.000000 
0.875000 1.000000 0.000000 
0.732488 0.819876 0.000000 
0.500000 0.821128 0.000000 
0.617184 0.820769 0.000000 
0.625000 1.000000 0.000000 
0.615688 0.648956 0.000000 
0.500000 0.492182 0.000000 
0.375000 1.000000 0.000000 
0.382816 0.820769 0.000000 
0.156142 0.817778 0.000000 
0.267512 0.819876 0.000000 
0.125000 1.000000 0.000000 
0.384312 0.648956 0.000000 
0.381008 0.490424 0.000000 
0.048839 0.810204 0.000000 
0.158579 0.644143 0.000000 
0.132230 0.335946 0.000000 
0.147545 0.484382 0.000000 
0.033340 0.492524 0.000000 
0.263298 0.486408 0.000000 
0.375740 0.347304 0.000000 
-0.000645 0.196718 0.000000 
0.118551 0.196567 0.000000 
0.113244 0.064723 0.000000 
0.010289 -0.095615 0.000000 
0.243323 0.208574 0.000000 
0.109320 -0.203199 0.000000 
0.143601 -0.121664 0.000000 
0.086796 -0.143269 0.000000 
0.255479 -0.062561 0.000000 
0.197628 -0.092641 0.000000 
0.228385 -0.141968 0.000000 
0.177888 0.018261 0.000000 
0.184388 -0.038211 0.000000 
0.241814 0.033941 0.000000 
0.500000 -0.049995 0.000000 
0.439535 -0.050170 0.000000 
0.440204 -0.100000 0.000000 
0.436423 0.053030 0.000000 
0.437975 0.000834 0.000000 
0.500000 0.053799 0.000000 
0.322422 -0.100000 0.000000 
0.379073 -0.050894 0.000000 
0.318261 -0.053115 0.000000 
0.436578 0.283774 0.000000 
0.435664 0.221794 0.000000 
0.500000 0.284575 0.000000 
0.305212 0.098009 0.000000 
0.370325 0.159927 0.000000 
0.305313 0.154641 0.000000 
0.500000 0.163970 0.000000 
0.435235 0.162973 0.000000 
0.435459 0.106887 0.000000 
0.311766 -0.005596 0.000000 
0.372301 0.050369 0.000000 
0.307264 0.044597 0.000000 
0.559796 -0.100000 0.000000 
0.560465 -0.050170 0.000000 
0.681739 -0.053115 0.000000 
0.620927 -0.050894 0.000000 
0.677578 -0.100000 0.000000 
0.562025 0.000834 0.000000 
0.563577 0.053030 0.000000 
0.913204 -0.143269 0.000000 
0.856399 -0.121664 0.000000 
0.890680 -0.203199 0.000000 
0.758186 0.033941 0.000000 
0.815612 -0.038211 0.000000 
0.822112 0.018261 0.000000 
0.771615 -0.141968 0.000000 
0.802372 -0.092641 0.000000 
0.744521 -0.062561 0.000000 
0.564336 0.221794 0.000000 
0.563422 0.283774 0.000000 
0.564541 0.106887 0.000000 
0.564765 0.162973 0.000000 
0.694687 0.154641 0.000000 
0.629675 0.159927 0.000000 
0.694788 0.098009 0.000000 
0.688234 -0.005596 0.000000 
0.692736 0.044597 0.000000 
0.627699 0.050369 0.000000 
0.971058 -0.162566 0.000000 
0.931844 -0.079631 0.000000 
0.947465 0.054749 0.000000 
0.943137 -0.013296 0.000000 
1.001811 -0.023911 0.000000 
0.883415 0.001250 0.000000 
0.824339 0.077056 0.000000 
0.926642 0.337260 0.000000 
0.934852 0.265017 0.000000 
0.993276 0.269889 0.000000 
0.814326 0.268502 0.000000 
0.875187 0.265234 0.000000 
0.807965 0.337630 0.000000 
1.005591 0.123386 0.000000 
0.941801 0.193973 0.000000 
0.946459 0.123907 0.000000 
0.626742 0.281405 0.000000 
0.562199 0.349265 0.000000 
0.759423 0.147176 0.000000 
0.692873 0.214503 0.000000 
0.686030 0.344312 0.000000 
0.689827 0.277681 0.000000 
0.752450 0.273090 0.000000 
0.885665 0.129775 0.000000 
0.819663 0.202102 0.000000 
0.823257 0.138313 0.000000 
0.975507 0.417373 0.000000 
0.918029 0.410983 0.000000 
0.902345 0.564205 0.000000 
0.909689 0.486512 0.000000 
0.958782 0.569080 0.000000 
0.859963 0.408907 0.000000 
0.801243 0.409640 0.000000 
0.910117 0.906839 0.000000 
0.897575 0.814957 0.000000 
0.960980 0.896597 0.000000 
0.785812 0.645030 0.000000 
0.840077 0.729123 0.000000 
0.785159 0.730480 0.000000 
0.949579 0.727543 0.000000 
0.894580 0.727793 0.000000 
0.896884 0.644460 0.000000 
0.621554 0.416931 0.000000 
0.560849 0.418528 0.000000 
0.741880 0.411865 0.000000 
0.681945 0.414546 0.000000 
0.674906 0.566284 0.000000 
0.678073 0.488515 0.000000 
0.732408 0.564567 0.000000 
0.845972 0.562679 0.000000 
0.789398 0.563133 0.000000 
0.794823 0.484734 0.000000 
0.937500 1.000000 0.000000 
0.855274 0.909219 0.000000 
0.739428 0.909831 0.000000 
0.797968 0.909714 0.000000 
0.812500 1.000000 0.000000 
0.788806 0.819128 0.000000 
0.729443 0.731676 0.000000 
0.500000 0.909995 0.000000 
0.560256 0.909961 0.000000 
0.562500 1.000000 0.000000 
0.557960 0.734007 0.000000 
0.558709 0.821017 0.000000 
0.500000 0.734209 0.000000 
0.687500 1.000000 0.000000 
0.620355 0.909923 0.000000 
0.680139 0.909881 0.000000 
0.559581 0.491721 0.000000 
0.500000 0.419076 0.000000 
0.672988 0.647778 0.000000 
0.616917 0.567812 0.000000 
0.500000 0.569224 0.000000 
0.558556 0.568849 0.000000 
0.557957 0.649741 0.000000 
0.675191 0.820390 0.000000 
0.615673 0.733488 0.000000 
0.672902 0.732692 0.000000 
0.437500 1.000000 0.000000 
0.439744 0.909961 0.000000 
0.319861 0.909881 0.000000 
0.379645 0.909923 0.000000 
0.312500 1.000000 0.000000 
0.441291 0.821017 0.000000 
0.442040 0.734007 0.000000 
0.089883 0.906839 0.000000 
0.144726 0.909219 0.000000 
0.062500 1.000000 0.000000 
0.270557 0.731676 0.000000 
0.211194 0.819128 0.000000 
0.214841 0.730480 0.000000 
0.187500 1.000000 0.000000 
0.202032 0.909714 0.000000 
0.260572 0.909831 0.000000 
0.440419 0.491721 0.000000 
0.439151 0.418528 0.000000 
0.442043 0.649741 0.000000 
0.441444 0.568849 0.000000 
0.325094 0.566284 0.000000 
0.383083 0.567812 0.000000 
0.327012 0.647778 0.000000 
0.324809 0.820390 0.000000 
0.327098 0.732692 0.000000 
0.384327 0.733488 0.000000 
0.039020 0.896597 0.000000 
0.102425 0.814957 0.000000 
0.103116 0.644460 0.000000 
0.105420 0.727793 0.000000 
0.050421 0.727543 0.000000 
0.159923 0.729123 0.000000 
0.214188 0.645030 0.000000 
0.073358 0.337260 0.000000 
0.081971 0.410983 0.000000 
0.024493 0.417373 0.000000 
0.198757 0.409640 0.000000 
0.140037 0.408907 0.000000 
0.192035 0.337630 0.000000 
0.041218 0.569080 0.000000 
0.090311 0.486512 0.000000 
0.097655 0.564205 0.000000 
0.378446 0.416931 0.000000 
0.437801 0.349265 0.000000 
0.267592 0.564567 0.000000 
0.321927 0.488515 0.000000 
0.313970 0.344312 0.000000 
0.318055 0.414546 0.000000 
0.258120 0.411865 0.000000 
0.154028 0.562679 0.000000 
0.205177 0.484734 0.000000 
0.210602 0.563133 0.000000 
0.006724 0.269889 0.000000 
0.065148 0.265017 0.000000 
0.053541 0.123907 0.000000 
0.058199 0.193973 0.000000 
-0.005591 0.123386 0.000000 
0.124813 0.265234 0.000000 
0.185674 0.268502 0.000000 
0.068156 -0.079631 0.000000 
0.028942 -0.162566 0.000000 
0.175661 0.077056 0.000000 
0.116585 0.001250 0.000000 
-0.001811 -0.023911 0.000000 
0.056863 -0.013296 0.000000 
0.052535 0.054749 0.000000 
0.373258 0.281405 0.000000 
0.247550 0.273090 0.000000 
0.310173 0.277681 0.000000 
0.307127 0.214503 0.000000 
0.240577 0.147176 0.000000 
0.114335 0.129775 0.000000 
0.176743 0.138313 0.000000 
0.180337 0.202102 0.000000 
0.079313 -0.213495 0.000000 
0.098041 -0.173716 0.000000 
0.068650 -0.183640 0.000000 
0.156117 -0.150951 0.000000 
0.127337 -0.163101 0.000000 
0.139836 -0.191921 0.000000 
0.105302 -0.102262 0.000000 
0.115488 -0.133129 0.000000 
0.133601 -0.091508 0.000000 
0.261622 -0.081966 0.000000 
0.233578 -0.097816 0.000000 
0.250206 -0.114981 0.000000 
0.219243 -0.051916 0.000000 
0.225020 -0.075800 0.000000 
0.250626 -0.040725 0.000000 
0.200527 -0.162534 0.000000 
0.209492 -0.118743 0.000000 
0.183750 -0.136440 0.000000 
0.208154 0.054511 0.000000 
0.209526 0.026575 0.000000 
0.240499 0.060985 0.000000 
0.154920 -0.049932 0.000000 
0.180520 -0.010250 0.000000 
0.150164 -0.020320 0.000000 
0.243897 0.007860 0.000000 
0.211762 -0.000539 0.000000 
0.214950 -0.026749 0.000000 
0.170921 -0.108267 0.000000 
0.189836 -0.065672 0.000000 
0.161619 -0.079270 0.000000 
0.500000 -0.075184 0.000000 
0.469998 -0.075196 0.000000 
0.470077 -0.100000 0.000000 
0.469418 -0.024561 0.000000 
0.469765 -0.050031 0.000000 
0.500000 -0.024490 0.000000 
0.410424 -0.100000 0.000000 
0.440031 -0.075257 0.000000 
0.410133 -0.075374 0.000000 
0.467956 0.080375 0.000000 
0.468247 0.053609 0.000000 
0.500000 0.080596 0.000000 
0.406818 0.000168 0.000000 
0.437150 0.026759 0.000000 
0.405551 0.025890 0.000000 
0.500000 0.027386 0.000000 
0.468609 0.027233 0.000000 
0.469015 0.001190 0.000000 
0.294143 -0.100000 0.000000 
0.321192 -0.076527 0.000000 
0.291741 -0.077833 0.000000 
0.380339 -0.075574 0.000000 
0.350687 -0.075914 0.000000 
0.351416 -0.100000 0.000000 
0.346300 -0.027337 0.000000 
0.348771 -0.051681 0.000000 
0.377332 -0.026031 0.000000 
0.438808 -0.024800 0.000000 
0.408133 -0.025256 0.000000 
0.409310 -0.050436 0.000000 
[...]
POINT_DATA 4225

SCALARS u_h float 2
LOOKUP_TABLE default
0.049823 -0.223742 
-0.049823 -0.223742 
0.000000 0.000000 
0.000000 0.000000 
-0.000000 -0.100000 
-0.015419 -0.156659 
0.000000 0.000000 
0.015419 -0.156659 
-0.000000 -0.150160 
0.017734 -0.100000 
-0.000000 -0.142158 
-0.010105 -0.161097 
-0.017734 -0.100000 
0.010105 -0.161097 
0.006602 -0.200316 
-0.002671 -0.159190 
-0.047288 -0.102679 
-0.020290 -0.103619 
0.000000 0.000000 
-0.000000 -0.099968 
0.000000 0.000000 
0.020290 -0.103619 
0.047288 -0.102679 
0.002671 -0.159190 
-0.006602 -0.200316 
0.045490 -0.178721 
-0.003192 -0.142111 
0.000975 -0.185895 
-0.000000 -0.123699 
0.000465 -0.125939 
0.005799 -0.100000 
-0.003664 -0.155972 
-0.004438 -0.146179 
-0.000000 -0.152275 
-0.005799 -0.100000 
-0.000465 -0.125939 
-0.000975 -0.185895 
0.003192 -0.142111 
-0.045490 -0.178721 
0.004438 -0.146179 
0.003664 -0.155972 
-0.010289 -0.220615 
0.011756 -0.185277 
-0.007230 -0.164054 
0.006449 -0.178433 
0.000645 -0.178282 
0.006677 -0.166426 
-0.000740 -0.152696 
-0.033340 -0.132476 
-0.022545 -0.140618 
-0.031142 -0.057222 
-0.033579 -0.105857 
-0.048839 -0.064796 
-0.013298 -0.138592 
-0.006008 -0.134576 
0.000000 0.000000 
-0.017512 -0.055124 
0.000000 -0.053872 
-0.007816 -0.054231 
0.000000 0.000000 
-0.009312 -0.101044 
-0.000000 -0.132818 
0.000000 0.000000 
0.007816 -0.054231 
0.031142 -0.057222 
0.017512 -0.055124 
0.000000 0.000000 
0.009312 -0.101044 
0.006008 -0.134576 
0.048839 -0.064796 
0.033579 -0.105857 
0.007230 -0.164054 
0.022545 -0.140618 
0.033340 -0.132476 
0.013298 -0.138592 
0.000740 -0.152696 
-0.000645 -0.178282 
-0.006449 -0.178433 
-0.011756 -0.185277 
0.010289 -0.220615 
-0.006677 -0.166426 
0.046820 -0.203199 
0.018601 -0.184164 
0.024296 -0.205769 
0.005479 -0.125061 
0.010128 -0.155141 
0.040885 -0.141968 
-0.009612 -0.169239 
-0.003112 -0.163211 
-0.008186 -0.153559 
-0.000000 -0.112495 
0.002035 -0.112670 
0.002704 -0.100000 
-0.001077 -0.134470 
0.000475 -0.124166 
-0.000000 -0.133701 
0.009922 -0.100000 
0.004073 -0.113394 
0.005761 -0.115615 
-0.000922 -0.153726 
-0.001836 -0.153206 
-0.000000 -0.152925 
-0.007288 -0.151991 
-0.004675 -0.152573 
-0.007187 -0.157859 
-0.000000 -0.148530 
-0.002265 -0.149527 
-0.002041 -0.143113 
-0.000734 -0.130596 
-0.002699 -0.137131 
-0.005236 -0.142903 
-0.002704 -0.100000 
-0.002035 -0.112670 
-0.005761 -0.115615 
-0.004073 -0.113394 
-0.009922 -0.100000 
-0.000475 -0.124166 
0.001077 -0.134470 
-0.024296 -0.205769 
-0.018601 -0.184164 
-0.046820 -0.203199 
0.008186 -0.153559 
0.003112 -0.163211 
0.009612 -0.169239 
-0.040885 -0.141968 
-0.010128 -0.155141 
-0.005479 -0.125061 
0.001836 -0.153206 
0.000922 -0.153726 
0.002041 -0.143113 
0.002265 -0.149527 
0.007187 -0.157859 
0.004675 -0.152573 
0.007288 -0.151991 
0.000734 -0.130596 
0.005236 -0.142903 
0.002699 -0.137131 
-0.028942 -0.225066 
-0.005656 -0.204631 
0.009965 -0.195251 
0.005637 -0.200796 
0.001811 -0.211411 
0.008415 -0.186250 
0.011839 -0.172944 
-0.010858 -0.162740 
-0.002648 -0.172483 
-0.006724 -0.167611 
0.001826 -0.168998 
0.000187 -0.172266 
-0.004535 -0.162370 
0.005591 -0.189114 
0.004301 -0.181027 
0.008959 -0.188593 
0.001742 -0.156095 
-0.000301 -0.150735 
0.009423 -0.165324 
0.005373 -0.160497 
-0.001470 -0.155688 
0.002327 -0.159819 
0.002450 -0.164410 
0.010665 -0.182725 
0.007163 -0.172898 
0.010757 -0.174187 
-0.024493 -0.145127 
-0.019471 -0.151517 
-0.035155 -0.123295 
-0.027811 -0.138488 
-0.041218 -0.118420 
-0.015037 -0.153593 
-0.011257 -0.152860 
-0.027383 -0.030661 
-0.039925 -0.060043 
-0.039020 -0.040903 
-0.026688 -0.104970 
-0.034923 -0.083377 
-0.027341 -0.082020 
-0.050421 -0.084957 
-0.042920 -0.084707 
-0.040616 -0.105540 
-0.003446 -0.145569 
-0.001651 -0.143972 
-0.008120 -0.150635 
-0.005555 -0.147954 
-0.012594 -0.121216 
-0.009427 -0.136485 
-0.017592 -0.122933 
-0.029028 -0.124821 
-0.023102 -0.124367 
-0.017677 -0.140266 
0.000000 0.000000 
-0.019726 -0.028281 
-0.010572 -0.027669 
-0.014532 -0.027786 
0.000000 0.000000 
-0.023694 -0.055872 
-0.020557 -0.080824 
0.000000 -0.027505 
-0.002244 -0.027539 
0.000000 0.000000 
-0.004540 -0.078493 
-0.003791 -0.053983 
-0.000000 -0.078291 
0.000000 0.000000 
-0.004645 -0.027577 
-0.007361 -0.027619 
-0.002919 -0.133279 
-0.000000 -0.143424 
-0.014512 -0.102222 
-0.008083 -0.119688 
-0.000000 -0.118276 
-0.003944 -0.118651 
-0.004543 -0.100259 
-0.012309 -0.054610 
-0.009327 -0.079012 
-0.014598 -0.079808 
0.000000 0.000000 
0.002244 -0.027539 
0.007361 -0.027619 
0.004645 -0.027577 
0.000000 0.000000 
0.003791 -0.053983 
0.004540 -0.078493 
0.027383 -0.030661 
0.019726 -0.028281 
0.000000 0.000000 
0.020557 -0.080824 
0.023694 -0.055872 
0.027341 -0.082020 
0.000000 0.000000 
0.014532 -0.027786 
0.010572 -0.027669 
0.002919 -0.133279 
0.001651 -0.143972 
0.004543 -0.100259 
0.003944 -0.118651 
0.012594 -0.121216 
0.008083 -0.119688 
0.014512 -0.102222 
0.012309 -0.054610 
0.014598 -0.079808 
0.009327 -0.079012 
0.039020 -0.040903 
0.039925 -0.060043 
0.040616 -0.105540 
0.042920 -0.084707 
0.050421 -0.084957 
0.034923 -0.083377 
0.026688 -0.104970 
0.010858 -0.162740 
0.019471 -0.151517 
0.024493 -0.145127 
0.011257 -0.152860 
0.015037 -0.153593 
0.004535 -0.162370 
0.041218 -0.118420 
0.027811 -0.138488 
0.035155 -0.123295 
0.003446 -0.145569 
0.000301 -0.150735 
0.017592 -0.122933 
0.009427 -0.136485 
0.001470 -0.155688 
0.005555 -0.147954 
0.008120 -0.150635 
0.029028 -0.124821 
0.017677 -0.140266 
0.023102 -0.124367 
0.006724 -0.167611 
0.002648 -0.172483 
-0.008959 -0.188593 
-0.004301 -0.181027 
-0.005591 -0.189114 
-0.000187 -0.172266 
-0.001826 -0.168998 
0.005656 -0.204631 
0.028942 -0.225066 
-0.011839 -0.172944 
-0.008415 -0.186250 
-0.001811 -0.211411 
-0.005637 -0.200796 
-0.009965 -0.195251 
-0.001742 -0.156095 
-0.002450 -0.164410 
-0.002327 -0.159819 
-0.005373 -0.160497 
-0.009423 -0.165324 
-0.010665 -0.182725 
-0.010757 -0.174187 
-0.007163 -0.172898 
0.048063 -0.213495 
0.035541 -0.204966 
0.037400 -0.214890 
0.031117 -0.182201 
0.033587 -0.194351 
0.046086 -0.191921 
0.011552 -0.196012 
0.021738 -0.195629 
0.008601 -0.185258 
0.011622 -0.113216 
0.014828 -0.129066 
0.031456 -0.114981 
0.000493 -0.145666 
0.006270 -0.138300 
0.000626 -0.134475 
0.044277 -0.162534 
0.021992 -0.149993 
0.027500 -0.167690 
-0.010596 -0.164239 
-0.009224 -0.160925 
-0.009501 -0.157765 
-0.001330 -0.174932 
-0.006980 -0.166500 
-0.006086 -0.176570 
-0.006103 -0.148390 
-0.006988 -0.156789 
-0.003800 -0.151749 
0.014671 -0.170767 
0.002336 -0.159422 
0.005369 -0.173020 
-0.000000 -0.106434 
0.001248 -0.106446 
0.001327 -0.100000 
0.000668 -0.118311 
0.001015 -0.112531 
-0.000000 -0.118240 
0.004174 -0.100000 
0.002531 -0.106507 
0.003883 -0.106624 
-0.000794 -0.138375 
-0.000503 -0.133891 
-0.000000 -0.138154 
0.000568 -0.124832 
-0.000350 -0.129491 
-0.000699 -0.130360 
-0.000000 -0.128864 
-0.000141 -0.129017 
0.000265 -0.123810 
0.012893 -0.100000 
0.008692 -0.107777 
0.010491 -0.109083 
0.005339 -0.106824 
0.006937 -0.107164 
0.007666 -0.100000 
0.002550 -0.121087 
0.005021 -0.114181 
0.002332 -0.119781 
0.001308 -0.118550 
0.001883 -0.119006 
0.003060 -0.112936 
-0.000184 -0.152145 
-0.000469 -0.153126 
-0.000000 -0.151978 
-0.002754 -0.154361 
-0.001428 -0.153885 
-0.002124 -0.154964 
-0.000000 -0.153012 
-0.000718 -0.153233 
-0.000917 -0.152512 
-0.008759 -0.156127 
-0.007480 -0.155326 
-0.008836 -0.159145 
-0.004732 -0.149731 
-0.006089 -0.152193 
-0.005819 -0.148696 
-0.005402 -0.156881 
-0.005933 -0.154929 
-0.004305 -0.154665 
-0.000000 -0.145640 
-0.001103 -0.145891 
-0.000995 -0.142398 
-0.001056 -0.151010 
-0.001121 -0.148783 
-0.000000 -0.150763 
-0.003179 -0.144349 
-0.002243 -0.146632 
-0.003448 -0.147896 
-0.003206 -0.152952 
-0.003448 -0.150781 
-0.002122 -0.151737 
0.005983 -0.118535 
0.000063 -0.127726 
0.002378 -0.123346 
0.001662 -0.127378 
-0.001922 -0.135161 
-0.001650 -0.139035 
-0.003763 -0.141961 
-0.002625 -0.140197 
-0.001788 -0.135509 
-0.001265 -0.131760 
-0.008084 -0.152269 
-0.004717 -0.141854 
-0.006754 -0.147531 
-0.006555 -0.147852 
-0.005083 -0.144461 
-0.002119 -0.133913 
-0.003851 -0.139518 
-0.003296 -0.137144 
-0.001327 -0.100000 
-0.001248 -0.106446 
-0.003883 -0.106624 
-0.002531 -0.106507 
-0.004174 -0.100000 
-0.001015 -0.112531 
-0.000668 -0.118311 
-0.010491 -0.109083 
-0.008692 -0.107777 
-0.012893 -0.100000 
-0.002332 -0.119781 
-0.005021 -0.114181 
-0.002550 -0.121087 
-0.007666 -0.100000 
-0.006937 -0.107164 
-0.005339 -0.106824 
0.000503 -0.133891 
0.000794 -0.138375 
-0.000265 -0.123810 
0.000141 -0.129017 
0.000699 -0.130360 
0.000350 -0.129491 
-0.000568 -0.124832 
-0.003060 -0.112936 
-0.001883 -0.119006 
-0.001308 -0.118550 
-0.037400 -0.214890 
-0.035541 -0.204966 
-0.048063 -0.213495 
-0.008601 -0.185258 
-0.021738 -0.195629 
-0.011552 -0.196012 
-0.046086 -0.191921 
-0.033587 -0.194351 
-0.031117 -0.182201 
0.009501 -0.157765 
0.009224 -0.160925 
0.010596 -0.164239 
0.003800 -0.151749 
0.006988 -0.156789 
0.006103 -0.148390 
0.006086 -0.176570 
0.006980 -0.166500 
0.001330 -0.174932 
-0.031456 -0.114981 
-0.014828 -0.129066 
-0.011622 -0.113216 
-0.027500 -0.167690 
-0.021992 -0.149993 
-0.044277 -0.162534 
-0.000626 -0.134475 
-0.006270 -0.138300 
-0.000493 -0.145666 
-0.005369 -0.173020 
-0.002336 -0.159422 
-0.014671 -0.170767 
0.000469 -0.153126 
0.000184 -0.152145 
0.000917 -0.152512 
0.000718 -0.153233 
0.002124 -0.154964 
0.001428 -0.153885 
0.002754 -0.154361 
0.000995 -0.142398 
0.001103 -0.145891 
0.003448 -0.147896 
0.002243 -0.146632 
0.003179 -0.144349 
0.001121 -0.148783 
0.001056 -0.151010 
0.008836 -0.159145 
0.007480 -0.155326 
0.008759 -0.156127 
0.004305 -0.154665 
0.005933 -0.154929 
0.005402 -0.156881 
0.005819 -0.148696 
0.006089 -0.152193 
0.004732 -0.149731 
0.002122 -0.151737 
0.003448 -0.150781 
0.003206 -0.152952 
-0.005983 -0.118535 
0.001922 -0.135161 
-0.001662 -0.127378 
-0.002378 -0.123346 
-0.000063 -0.127726 
0.008084 -0.152269 
0.005083 -0.144461 
0.006555 -0.147852 
0.006754 -0.147531 
0.004717 -0.141854 
0.001650 -0.139035 
0.001265 -0.131760 
0.001788 -0.135509 
0.002625 -0.140197 
0.003763 -0.141961 
0.003296 -0.137144 
0.003851 -0.139518 
0.002119 -0.133913 
-0.039428 -0.224998 
-0.026586 -0.215303 
-0.007886 -0.212780 
-0.016523 -0.214583 
-0.018996 -0.223596 
-0.014143 -0.205611 
-0.003366 -0.195767 
0.008495 -0.198566 
0.007011 -0.202758 
0.005051 -0.205951 
0.009824 -0.192510 
0.008579 -0.198190 
0.011054 -0.190720 
-0.003291 -0.216421 
0.003893 -0.206649 
-0.001045 -0.210062 
0.011191 -0.171394 
0.011174 -0.166784 
0.004596 -0.186222 
0.009298 -0.177877 
0.012032 -0.179234 
0.011220 -0.178783 
0.010731 -0.185947 
0.000937 -0.202981 
0.007151 -0.193961 
0.002821 -0.195058 
-0.013027 -0.160419 
-0.008673 -0.165731 
-0.010959 -0.162201 
-0.004900 -0.168597 
-0.006649 -0.167779 
-0.008924 -0.163877 
-0.002814 -0.172951 
-0.004535 -0.170818 
-0.000717 -0.175723 
-0.000549 -0.164213 
-0.001269 -0.166034 
-0.003509 -0.160885 
0.003514 -0.175593 
0.001148 -0.170896 
0.004245 -0.173688 
-0.005770 -0.163486 
-0.002221 -0.167503 
-0.003426 -0.168428 
0.006700 -0.194675 
0.007487 -0.189709 
0.008575 -0.194193 
0.002660 -0.180486 
0.005450 -0.185140 
0.003505 -0.183656 
0.008132 -0.183367 
0.006993 -0.184923 
0.005562 -0.180239 
-0.001074 -0.172877 
0.002451 -0.176749 
0.001042 -0.176888 
0.000340 -0.152688 
-0.000141 -0.150244 
0.002794 -0.156459 
0.001351 -0.154723 
-0.000495 -0.151564 
0.000467 -0.153599 
0.000549 -0.154850 
0.010057 -0.163607 
0.008376 -0.161346 
0.006100 -0.163326 
0.007442 -0.162739 
0.008272 -0.166263 
0.006464 -0.159585 
0.004547 -0.158027 
-0.002000 -0.157419 
0.000302 -0.160162 
-0.000035 -0.162208 
0.000565 -0.156399 
0.000492 -0.158195 
-0.001058 -0.154089 
0.004711 -0.165812 
0.002463 -0.162050 
0.004418 -0.163100 
0.003420 -0.158345 
0.003974 -0.160580 
0.002076 -0.157810 
0.010018 -0.192040 
0.008875 -0.180804 
0.010016 -0.186150 
0.011051 -0.188600 
0.011677 -0.184210 
0.002249 -0.166776 
0.007049 -0.169673 
0.004809 -0.168591 
0.004666 -0.171281 
0.006974 -0.175897 
0.011031 -0.168588 
0.011883 -0.179193 
0.011661 -0.173879 
0.010243 -0.169668 
0.008888 -0.170030 
0.009232 -0.177541 
0.009225 -0.173863 
0.010908 -0.178635 
-0.019937 -0.151018 
-0.017461 -0.154844 
-0.026309 -0.142712 
-0.021916 -0.148958 
-0.028991 -0.138959 
-0.015157 -0.157333 
-0.013043 -0.158689 
-0.041414 -0.113252 
-0.038210 -0.121376 
-0.044540 -0.110777 
-0.025136 -0.139946 
-0.031658 -0.131185 
-0.028787 -0.132501 
-0.037449 -0.125642 
-0.034552 -0.128964 
-0.030552 -0.136061 
-0.007893 -0.157987 
-0.006558 -0.156776 
-0.011129 -0.159120 
-0.009414 -0.158825 
-0.016640 -0.147450 
-0.013064 -0.153489 
-0.018871 -0.147438 
-0.023718 -0.145250 
-0.021234 -0.146764 
-0.017174 -0.152997 
-0.019930 -0.017111 
-0.032857 -0.034245 
-0.028217 -0.025762 
-0.035393 -0.058379 
-0.035254 -0.045966 
-0.030605 -0.044050 
-0.045326 -0.053488 
-0.040341 -0.049090 
-0.044529 -0.062259 
-0.023415 -0.104321 
-0.027462 -0.093931 
-0.024034 -0.093284 
-0.034754 -0.095076 
-0.031047 -0.094544 
-0.030089 -0.105507 
-0.029857 -0.069946 
-0.031045 -0.082681 
-0.033825 -0.070746 
-0.049311 -0.094087 
-0.045896 -0.095182 
-0.044029 -0.104541 
-0.046481 -0.074176 
-0.046805 -0.085096 
-0.050374 -0.075226 
-0.037110 -0.105916 
-0.042267 -0.095548 
-0.038521 -0.095451 
-0.038000 -0.071736 
-0.038915 -0.084079 
-0.042278 -0.072914 
-0.000977 -0.147838 
-0.000486 -0.147391 
-0.002090 -0.149609 
-0.001505 -0.148588 
-0.003505 -0.139734 
-0.002519 -0.144650 
-0.004766 -0.140561 
-0.005393 -0.155338 
-0.004383 -0.153804 
-0.009101 -0.143884 
-0.006772 -0.149298 
-0.010779 -0.145059 
-0.003509 -0.152281 
-0.002752 -0.150859 
-0.016397 -0.112945 
-0.015027 -0.122076 
-0.019190 -0.113729 
-0.007667 -0.135475 
-0.011131 -0.129325 
-0.009077 -0.128420 
-0.015597 -0.131220 
-0.013302 -0.130279 
-0.011301 -0.137548 
-0.004452 -0.146688 
-0.007547 -0.142693 
-0.006108 -0.141564 
-0.038188 -0.114766 
-0.031613 -0.115758 
-0.034905 -0.115539 
-0.032083 -0.124383 
-0.025965 -0.133093 
-0.022123 -0.114473 
-0.018018 -0.132072 
-0.020286 -0.123723 
-0.025186 -0.115114 
-0.028360 -0.115575 
-0.009611 -0.151862 
-0.020054 -0.140673 
-0.014546 -0.146962 
-0.012593 -0.146122 
-0.015423 -0.139532 
-0.026024 -0.124771 
-0.020562 -0.132743 
-0.023216 -0.133125 
0.000000 0.000000 
-0.015422 -0.014721 
-0.010727 -0.013767 
-0.012697 -0.014003 
0.000000 0.000000 
-0.023111 -0.029019 
-0.026532 -0.042953 
-0.005678 -0.013766 
-0.006693 -0.013735 
0.000000 0.000000 
-0.017051 -0.041700 
-0.012437 -0.027710 
-0.014539 -0.041523 
0.000000 0.000000 
-0.007838 -0.013708 
-0.009158 -0.013705 
-0.023842 -0.081400 
-0.020784 -0.092633 
-0.027243 -0.056430 
-0.026144 -0.069294 
-0.019498 -0.068280 
-0.022695 -0.068749 
-0.020463 -0.055456 
-0.016926 -0.027943 
-0.019843 -0.041946 
-0.022977 -0.042323 
0.000000 -0.013849 
-0.000591 -0.013858 
0.000000 0.000000 
-0.001545 -0.040907 
-0.001111 -0.027523 
0.000000 -0.040879 
0.000000 0.000000 
-0.001195 -0.013859 
-0.001821 -0.013856 
-0.002298 -0.089586 
-0.002254 -0.078351 
-0.000000 -0.089516 
-0.005759 -0.054090 
-0.004265 -0.066533 
-0.006474 -0.066697 
-0.000000 -0.066377 
-0.002117 -0.066426 
-0.001881 -0.053910 
0.000000 0.000000 
-0.003941 -0.013819 
-0.004767 -0.013795 
-0.002480 -0.013848 
-0.003182 -0.013836 
0.000000 0.000000 
-0.008236 -0.041165 
-0.005953 -0.027598 
-0.006435 -0.041078 
-0.003115 -0.040948 
-0.004737 -0.041005 
-0.003415 -0.027557 
-0.000819 -0.143560 
-0.000000 -0.147258 
-0.004432 -0.133833 
-0.002305 -0.139120 
-0.000000 -0.138615 
-0.001143 -0.138744 
-0.001449 -0.132937 
-0.017323 -0.102907 
-0.013745 -0.112173 
-0.008827 -0.110818 
-0.011226 -0.111453 
-0.011847 -0.101593 
-0.010283 -0.120406 
-0.007128 -0.127615 
-0.000000 -0.109573 
-0.002141 -0.109663 
-0.002257 -0.100048 
-0.001725 -0.126142 
-0.001960 -0.118375 
-0.000000 -0.126033 
-0.006886 -0.100594 
-0.004308 -0.109907 
-0.006528 -0.110297 
-0.005267 -0.126949 
-0.005977 -0.119095 
-0.003473 -0.126451 
-0.008891 -0.027642 
-0.009989 -0.054405 
-0.010167 -0.041266 
-0.012257 -0.041383 
-0.014806 -0.054848 
-0.004627 -0.089763 
-0.009493 -0.090418 
-0.007015 -0.090043 
-0.006887 -0.078715 
-0.008776 -0.066915 
-0.017715 -0.092002 
-0.016534 -0.067867 
-0.017481 -0.080292 
-0.014821 -0.091412 
-0.012087 -0.090879 
-0.011201 -0.067185 
-0.011888 -0.079379 
-0.013777 -0.067502 
0.000000 0.000000 
0.000591 -0.013858 
0.001821 -0.013856 
0.001195 -0.013859 
0.000000 0.000000 
0.001111 -0.027523 
0.001545 -0.040907 
0.004767 -0.013795 
0.003941 -0.013819 
0.000000 0.000000 
0.006435 -0.041078 
0.005953 -0.027598 
0.008236 -0.041165 
0.000000 0.000000 
0.003182 -0.013836 
0.002480 -0.013848 
0.002254 -0.078351 
0.002298 -0.089586 
0.001881 -0.053910 
0.002117 -0.066426 
0.006474 -0.066697 
0.004265 -0.066533 
0.005759 -0.054090 
0.003415 -0.027557 
0.004737 -0.041005 
0.003115 -0.040948 
0.019930 -0.017111 
0.015422 -0.014721 
0.000000 0.000000 
0.026532 -0.042953 
0.023111 -0.029019 
0.030605 -0.044050 
0.000000 0.000000 
0.012697 -0.014003 
0.010727 -0.013767 
0.020784 -0.092633 
0.023842 -0.081400 
0.024034 -0.093284 
0.020463 -0.055456 
0.022695 -0.068749 
0.019498 -0.068280 
0.029857 -0.069946 
0.026144 -0.069294 
0.027243 -0.056430 
0.000000 0.000000 
0.006693 -0.013735 
0.005678 -0.013766 
0.009158 -0.013705 
0.007838 -0.013708 
0.000000 0.000000 
0.014539 -0.041523 
0.012437 -0.027710 
0.017051 -0.041700 
0.022977 -0.042323 
0.019843 -0.041946 
0.016926 -0.027943 
0.000819 -0.143560 
0.000486 -0.147391 
0.001449 -0.132937 
0.001143 -0.138744 
0.003505 -0.139734 
0.002305 -0.139120 
0.004432 -0.133833 
0.002257 -0.100048 
0.002141 -0.109663 
0.006528 -0.110297 
0.004308 -0.109907 
0.006886 -0.100594 
0.001960 -0.118375 
0.001725 -0.126142 
0.016397 -0.112945 
0.013745 -0.112173 
0.017323 -0.102907 
0.007128 -0.127615 
0.010283 -0.120406 
0.009077 -0.128420 
0.011847 -0.101593 
0.011226 -0.111453 
0.008827 -0.110818 
0.003473 -0.126451 
0.005977 -0.119095 
0.005267 -0.126949 
0.008891 -0.027642 
0.014806 -0.054848 
0.012257 -0.041383 
0.010167 -0.041266 
0.009989 -0.054405 
0.017715 -0.092002 
0.012087 -0.090879 
0.014821 -0.091412 
0.017481 -0.080292 
0.016534 -0.067867 
0.004627 -0.089763 
0.008776 -0.066915 
0.006887 -0.078715 
0.007015 -0.090043 
0.009493 -0.090418 
0.013777 -0.067502 
0.011888 -0.079379 
0.011201 -0.067185 
0.028217 -0.025762 
0.032857 -0.034245 
0.044529 -0.062259 
0.040341 -0.049090 
0.045326 -0.053488 
0.035254 -0.045966 
0.035393 -0.058379 
0.044029 -0.104541 
0.045896 -0.095182 
0.049311 -0.094087 
0.038521 -0.095451 
0.042267 -0.095548 
0.037110 -0.105916 
0.050374 -0.075226 
0.046805 -0.085096 
0.046481 -0.074176 
0.027462 -0.093931 
0.023415 -0.104321 
0.033825 -0.070746 
0.031045 -0.082681 
0.030089 -0.105507 
0.031047 -0.094544 
0.034754 -0.095076 
0.042278 -0.072914 
0.038915 -0.084079 
0.038000 -0.071736 
0.013027 -0.160419 
0.017461 -0.154844 
0.019937 -0.151018 
0.013043 -0.158689 
0.015157 -0.157333 
0.008924 -0.163877 
0.028991 -0.138959 
0.021916 -0.148958 
0.026309 -0.142712 
0.006558 -0.156776 
0.007893 -0.157987 
0.003509 -0.160885 
0.018871 -0.147438 
0.013064 -0.153489 
0.016640 -0.147450 
0.005770 -0.163486 
0.009414 -0.158825 
0.011129 -0.159120 
0.044540 -0.110777 
0.038210 -0.121376 
0.041414 -0.113252 
0.030552 -0.136061 
0.034552 -0.128964 
0.037449 -0.125642 
0.028787 -0.132501 
0.031658 -0.131185 
0.025136 -0.139946 
0.017174 -0.152997 
0.021234 -0.146764 
0.023718 -0.145250 
0.000977 -0.147838 
0.000141 -0.150244 
0.004766 -0.140561 
0.002519 -0.144650 
0.000495 -0.151564 
0.001505 -0.148588 
0.002090 -0.149609 
0.019190 -0.113729 
0.015027 -0.122076 
0.011301 -0.137548 
0.013302 -0.130279 
0.015597 -0.131220 
0.011131 -0.129325 
0.007667 -0.135475 
0.002000 -0.157419 
0.004383 -0.153804 
0.005393 -0.155338 
0.002752 -0.150859 
0.003509 -0.152281 
0.001058 -0.154089 
0.010779 -0.145059 
0.006772 -0.149298 