# vtk DataFile Version 2.0
Unstructured Grid Example
ASCII
DATASET UNSTRUCTURED_GRID

POINTS 81 float
0.032162 -0.241899 0.000000 
0.967838 -0.241899 0.000000 
1.000000 1.000000 0.000000 
0.000000 1.000000 0.000000 
0.500000 -0.100000 0.000000 
0.977155 0.326430 0.000000 
0.500000 1.000000 0.000000 
0.022845 0.326430 0.000000 
0.500000 0.337607 0.000000 
0.276735 -0.162184 0.000000 
0.500000 0.100250 0.000000 
0.241208 0.062234 0.000000 
0.723265 -0.162184 0.000000 
0.758792 0.062234 0.000000 
0.999294 0.028936 0.000000 
0.744834 0.327909 0.000000 
0.950625 0.636961 0.000000 
0.729207 0.641644 0.000000 
0.750000 1.000000 0.000000 
0.500000 0.647322 0.000000 
0.250000 1.000000 0.000000 
0.270793 0.641644 0.000000 
0.049375 0.636961 0.000000 
0.255166 0.327909 0.000000 
0.000706 0.028936 0.000000 
0.155288 -0.214577 0.000000 
0.248323 -0.056268 0.000000 
0.128541 -0.091942 0.000000 
0.500000 -0.000794 0.000000 
0.371582 -0.012863 0.000000 
0.394011 -0.100000 0.000000 
0.370148 0.206461 0.000000 
0.367644 0.090169 0.000000 
0.500000 0.212279 0.000000 
0.605989 -0.100000 0.000000 
0.628418 -0.012863 0.000000 
0.871459 -0.091942 0.000000 
0.751677 -0.056268 0.000000 
0.844712 -0.214577 0.000000 
0.632356 0.090169 0.000000 
0.629852 0.206461 0.000000 
0.991815 -0.111672 0.000000 
0.880275 0.038501 0.000000 
0.862259 0.320897 0.000000 
0.875363 0.175933 0.000000 
0.992356 0.175556 0.000000 
0.754810 0.189815 0.000000 
0.624093 0.337052 0.000000 
0.962611 0.478347 0.000000 
0.848998 0.473636 0.000000 
0.845996 0.816571 0.000000 
0.839992 0.637494 0.000000 
0.950937 0.806050 0.000000 
0.734569 0.477759 0.000000 
0.617796 0.483029 0.000000 
0.875000 1.000000 0.000000 
0.733188 0.818206 0.000000 
0.500000 0.820953 0.000000 
0.617294 0.819259 0.000000 
0.625000 1.000000 0.000000 
0.615352 0.644966 0.000000 
0.500000 0.485189 0.000000 
0.375000 1.000000 0.000000 
0.382706 0.819259 0.000000 
0.154004 0.816571 0.000000 
0.266812 0.818206 0.000000 
0.125000 1.000000 0.000000 
0.384648 0.644966 0.000000 
0.382204 0.483029 0.000000 
0.049063 0.806050 0.000000 
0.160008 0.637494 0.000000 
0.137741 0.320897 0.000000 
0.151002 0.473636 0.000000 
0.037389 0.478347 0.000000 
0.265431 0.477759 0.000000 
0.375907 0.337052 0.000000 
0.007644 0.175556 0.000000 
0.124637 0.175933 0.000000 
0.119725 0.038501 0.000000 
0.008185 -0.111672 0.000000 
0.245190 0.189815 0.000000 

CELLS 128 512
3  0 25 27 
3  9 26 25 
3  11 27 26 
3  25 26 27 
3  4 28 30 
3  10 29 28 
3  9 30 29 
3  28 29 30 
3  8 31 33 
3  11 32 31 
3  10 33 32 
3  31 32 33 
3  9 29 26 
3  10 32 29 
3  11 26 32 
3  29 32 26 
3  4 34 28 
3  12 35 34 
3  10 28 35 
3  34 35 28 
3  1 36 38 
3  13 37 36 
3  12 38 37 
3  36 37 38 
3  8 33 40 
3  10 39 33 
3  13 40 39 
3  33 39 40 
3  12 37 35 
3  13 39 37 
3  10 35 39 
3  37 39 35 
3  1 41 36 
3  14 42 41 
3  13 36 42 
3  41 42 36 
3  5 43 45 
3  15 44 43 
3  14 45 44 
3  43 44 45 
3  8 40 47 
3  13 46 40 
3  15 47 46 
3  40 46 47 
3  14 44 42 
3  15 46 44 
3  13 42 46 
3  44 46 42 
3  5 48 43 
3  16 49 48 
3  15 43 49 
3  48 49 43 
3  2 50 52 
3  17 51 50 
3  16 52 51 
3  50 51 52 
3  8 47 54 
3  15 53 47 
3  17 54 53 
3  47 53 54 
3  16 51 49 
3  17 53 51 
3  15 49 53 
3  51 53 49 
3  2 55 50 
3  18 56 55 
3  17 50 56 
3  55 56 50 
3  6 57 59 
3  19 58 57 
3  18 59 58 
3  57 58 59 
3  8 54 61 
3  17 60 54 
3  19 61 60 
3  54 60 61 
3  18 58 56 
3  19 60 58 
3  17 56 60 
3  58 60 56 
3  6 62 57 
3  20 63 62 
3  19 57 63 
3  62 63 57 
3  3 64 66 
3  21 65 64 
3  20 66 65 
3  64 65 66 
3  8 61 68 
3  19 67 61 
3  21 68 67 
3  61 67 68 
3  20 65 63 
3  21 67 65 
3  19 63 67 
3  65 67 63 
3  3 69 64 
3  22 70 69 
3  21 64 70 
3  69 70 64 
3  7 71 73 
3  23 72 71 
3  22 73 72 
3  71 72 73 
3  8 68 75 
3  21 74 68 
3  23 75 74 
3  68 74 75 
3  22 72 70 
3  23 74 72 
3  21 70 74 
3  72 74 70 
3  7 76 71 
3  24 77 76 
3  23 71 77 
3  76 77 71 
3  0 27 79 
3  11 78 27 
3  24 79 78 
3  27 78 79 
3  8 75 31 
3  23 80 75 
3  11 31 80 
3  75 80 31 
3  24 78 77 
3  11 80 78 
3  23 77 80 
3  78 80 77 

CELL_TYPES 128
5
5
5
5
5
5
5
5
5
5
5
5
5
5
5
5
5
5
5
5
5
5
5
5
5
5
5
5
5
5
5
5
5
5
5
5
5
5
5
5
5
5
5
5
5
5
5
5
5
5
5
5
5
5
5
5
5
5
5
5
5
5
5
5
5
5
5
5
5
5
5
5
5
5
5
5
5
5
5
5
5
5
5
5
5
5
5
5
5
5
5
5
5
5
5
5
5
5
5
5
5
5
5
5
5
5
5
5
5
5
5
5
5
5
5
5
5
5
5
5
5
5
5
5
5
5
5
5

POINT_DATA 81

SCALARS u_h float 2
LOOKUP_TABLE default
0.032162 -0.241899 
-0.032162 -0.241899 
0.000000 0.000000 
0.000000 0.000000 
-0.000000 -0.100000 
-0.022845 -0.173570 
0.000000 0.000000 
0.022845 -0.173570 
-0.000000 -0.162393 
0.026735 -0.162184 
-0.000000 -0.149750 
-0.008792 -0.187766 
-0.026735 -0.162184 
0.008792 -0.187766 
-0.000706 -0.221064 
-0.005166 -0.172091 
-0.049375 -0.113039 
-0.020793 -0.108356 
0.000000 0.000000 
-0.000000 -0.102678 
0.000000 0.000000 
0.020793 -0.108356 
0.049375 -0.113039 
0.005166 -0.172091 
0.000706 -0.221064 
0.030288 -0.214577 
-0.001677 -0.181268 
0.003541 -0.216942 
-0.000000 -0.125794 
-0.003418 -0.137863 
0.019011 -0.100000 
-0.004852 -0.168539 
-0.007356 -0.159831 
-0.000000 -0.162721 
-0.019011 -0.100000 
0.003418 -0.137863 
-0.003541 -0.216942 
0.001677 -0.181268 
-0.030288 -0.214577 
0.007356 -0.159831 
0.004852 -0.168539 
-0.008185 -0.236672 
0.005275 -0.211499 
-0.012741 -0.179103 
0.000363 -0.199067 
-0.007644 -0.199444 
0.004810 -0.185185 
-0.000907 -0.162948 
-0.037389 -0.146653 
-0.026002 -0.151364 
-0.029004 -0.058429 
-0.035008 -0.112506 
-0.049063 -0.068950 
-0.015431 -0.147241 
-0.007204 -0.141971 
0.000000 0.000000 
-0.016812 -0.056794 
-0.000000 -0.054047 
-0.007706 -0.055741 
0.000000 0.000000 
-0.009648 -0.105034 
-0.000000 -0.139811 
0.000000 0.000000 
0.007706 -0.055741 
0.029004 -0.058429 
0.016812 -0.056794 
0.000000 0.000000 
0.009648 -0.105034 
0.007204 -0.141971 
0.049063 -0.068950 
0.035008 -0.112506 
0.012741 -0.179103 
0.026002 -0.151364 
0.037389 -0.146653 
0.015431 -0.147241 
0.000907 -0.162948 
0.007644 -0.199444 
-0.000363 -0.199067 
-0.005275 -0.211499 
0.008185 -0.236672 
-0.004810 -0.185185 

CELL_DATA 128

SCALARS epsilon float 4
LOOKUP_TABLE default
0.054443 0.051430 0.000000 0.002748
0.111122 0.048021 0.000000 0.129265
-0.023023 0.011978 0.000000 0.120766
0.043123 0.084438 0.000000 0.033944
-0.163285 -0.226206 0.000000 0.000000
0.026968 -0.202218 0.000000 0.059680
0.093215 -0.003891 0.000000 0.266394
0.080759 -0.311723 0.000000 -0.004227
0.038067 0.003619 0.000000 0.023180
0.006877 -0.048351 0.000000 0.129945
0.057126 -0.105470 0.000000 0.044852
0.037318 -0.071881 0.000000 0.034569
0.106993 -0.003159 0.000000 0.089249
0.060671 -0.183455 0.000000 0.034528
0.026305 -0.013735 0.000000 0.089715
0.000083 -0.088819 0.000000 0.195276
-0.163285 -0.226206 0.000000 0.000000
0.093215 -0.003891 0.000000 -0.266394
0.026968 -0.202218 0.000000 -0.059680
0.080759 -0.311723 0.000000 0.004227
0.054443 0.051430 0.000000 -0.002748
-0.023023 0.011978 0.000000 -0.120766
0.111122 0.048021 0.000000 -0.129265
0.043123 0.084438 0.000000 -0.033944
0.038067 0.003619 0.000000 -0.023180
0.057126 -0.105470 0.000000 -0.044852
0.006877 -0.048351 0.000000 -0.129945
0.037318 -0.071881 0.000000 -0.034569
0.106993 -0.003159 0.000000 -0.089249
0.026305 -0.013735 0.000000 -0.089715
0.060671 -0.183455 0.000000 -0.034528
0.000083 -0.088819 0.000000 -0.195276
0.009104 0.082251 0.000000 0.023394
-0.043183 0.123912 0.000000 -0.002934
-0.013066 0.072752 0.000000 -0.054769
-0.024426 0.065661 0.000000 -0.039050
-0.073322 0.191682 0.000000 -0.045905
-0.063141 0.143227 0.000000 -0.078876
-0.064972 0.158183 0.000000 -0.030288
-0.061722 0.146918 0.000000 -0.056240
-0.006492 0.043547 0.000000 -0.025287
-0.004014 0.024858 0.000000 -0.081165
-0.037298 0.096258 0.000000 -0.074024
-0.005246 0.046077 0.000000 -0.086745
-0.051146 0.094385 0.000000 -0.055174
-0.041694 0.096561 0.000000 -0.091214
-0.034119 0.032863 0.000000 -0.109278
-0.039633 0.095990 0.000000 -0.070634
-0.074137 0.198109 0.000000 -0.043133
-0.088670 0.237892 0.000000 -0.035611
-0.063292 0.194277 0.000000 -0.077533
-0.087114 0.202146 0.000000 -0.041095
-0.105435 0.442414 0.000000 0.175100
-0.118131 0.349051 0.000000 0.013214
-0.121411 0.294757 0.000000 -0.000240
-0.168851 0.353049 0.000000 -0.002386
-0.006530 0.153839 0.000000 -0.026748
-0.037300 0.176537 0.000000 -0.071859
-0.068832 0.264618 0.000000 -0.037672
-0.068845 0.152862 0.000000 -0.044370
-0.119754 0.265020 0.000000 -0.040018
-0.120603 0.264670 0.000000 -0.035297
-0.087749 0.177633 0.000000 -0.057287
-0.088269 0.263771 0.000000 -0.049637
0.012501 0.369270 0.000000 0.104244
0.004276 0.361208 0.000000 0.060686
-0.101599 0.335024 0.000000 0.011562
-0.084692 0.371374 0.000000 0.110976
0.000000 0.347421 0.000000 0.000000
-0.063542 0.319357 0.000000 -0.004856
0.000909 0.355958 0.000000 0.027893
-0.061898 0.356565 0.000000 0.025052
-0.059283 0.164841 0.000000 -0.007292
-0.093395 0.253945 0.000000 -0.020335
-0.080146 0.255379 0.000000 -0.007216
-0.059431 0.253947 0.000000 -0.016484
-0.069685 0.361986 0.000000 0.062549
-0.079847 0.323128 0.000000 0.001032
-0.092139 0.335487 0.000000 0.006671
-0.075313 0.322926 0.000000 0.004706
0.000000 0.347421 0.000000 0.000000
0.000909 0.355958 0.000000 -0.027893
-0.063542 0.319357 0.000000 0.004856
-0.061898 0.356565 0.000000 -0.025052
0.012501 0.369270 0.000000 -0.104244
-0.101599 0.335024 0.000000 -0.011562
0.004276 0.361208 0.000000 -0.060686
-0.084692 0.371374 0.000000 -0.110976
-0.059283 0.164841 0.000000 0.007292
-0.080146 0.255379 0.000000 0.007216
-0.093395 0.253945 0.000000 0.020335
-0.059431 0.253947 0.000000 0.016484
-0.069685 0.361986 0.000000 -0.062549
-0.092139 0.335487 0.000000 -0.006671
-0.079847 0.323128 0.000000 -0.001032
-0.075313 0.322926 0.000000 -0.004706
-0.105435 0.442414 0.000000 -0.175100
-0.121411 0.294757 0.000000 0.000240
-0.118131 0.349051 0.000000 -0.013214
-0.168851 0.353049 0.000000 0.002386
-0.074137 0.198109 0.000000 0.043133
-0.063292 0.194277 0.000000 0.077533
-0.088670 0.237892 0.000000 0.035611
-0.087114 0.202146 0.000000 0.041095
-0.006530 0.153839 0.000000 0.026748
-0.068832 0.264618 0.000000 0.037672
-0.037300 0.176537 0.000000 0.071859
-0.068845 0.152862 0.000000 0.044370
-0.119754 0.265020 0.000000 0.040018
-0.087749 0.177633 0.000000 0.057287
-0.120603 0.264670 0.000000 0.035297
-0.088269 0.263771 0.000000 0.049637
-0.073322 0.191682 0.000000 0.045905
-0.064972 0.158183 0.000000 0.030288
-0.063141 0.143227 0.000000 0.078876
-0.061722 0.146918 0.000000 0.056240
0.009104 0.082251 0.000000 -0.023394
-0.013066 0.072752 0.000000 0.054769
-0.043183 0.123912 0.000000 0.002934
-0.024426 0.065661 0.000000 0.039050
-0.006492 0.043547 0.000000 0.025287
-0.037298 0.096258 0.000000 0.074024
-0.004014 0.024858 0.000000 0.081165
-0.005246 0.046077 0.000000 0.086745
-0.051146 0.094385 0.000000 0.055174
-0.034119 0.032863 0.000000 0.109278
-0.041694 0.096561 0.000000 0.091214
-0.039633 0.095990 0.000000 0.070634

SCALARS sigma float 4
LOOKUP_TABLE default
1.874307 1.817838 1.114580 0.415837
3.126190 1.197368 1.363964 2.242463
-0.662386 -0.852657 -0.407653 1.978000
1.990441 2.316871 1.325389 1.031138
-7.109254 -9.278420 -3.156185 0.000000
-1.451879 -7.025660 -1.932799 0.953380
1.892812 -3.764723 -0.533326 3.257590
-1.375230 -12.566073 -2.813491 -2.994834
0.995947 0.450664 0.408868 0.366452
-0.695141 -2.248631 -0.759115 2.164860
0.277262 -2.751727 -0.644185 0.696847
0.170093 -1.764042 -0.423181 0.582314
2.569872 0.299795 0.872267 1.433010
-0.426798 -5.712047 -1.474284 0.340758
0.461110 -0.615290 -0.042492 1.401234
-1.467701 -5.442519 -1.650167 2.996285
-7.109254 -9.278420 -3.156185 0.000000
1.892812 -3.764723 -0.533326 -3.257590
-1.451879 -7.025660 -1.932799 -0.953380
-1.375230 -12.566073 -2.813491 2.994834
1.874307 1.817838 1.114580 -0.415837
-0.662386 -0.852657 -0.407653 -1.978000
3.126190 1.197368 1.363964 -2.242463
1.990441 2.316871 1.325389 -1.031138
0.995947 0.450664 0.408868 -0.366452
0.277262 -2.751727 -0.644185 -0.696847
-0.695141 -2.248631 -0.759115 -2.164860
0.170093 -1.764042 -0.423181 -0.582314
2.569872 0.299795 0.872267 -1.433010
0.461110 -0.615290 -0.042492 -1.401234
-0.426798 -5.712047 -1.474284 -0.340758
-1.467701 -5.442519 -1.650167 -2.996285
0.982159 2.120257 0.917580 -0.009983
-0.005937 2.438627 0.700107 -0.192586
0.363313 1.445416 0.517847 -1.013161
-0.008712 1.245477 0.349775 -0.747214
-0.447328 3.420158 0.860361 -0.413971
-0.702918 2.458609 0.495563 -1.135521
-0.407221 2.877446 0.708206 -0.377091
-0.519055 2.650461 0.607338 -0.715454
0.229731 1.021146 0.352105 -0.372127
-0.032470 0.303475 0.074697 -1.327579
-0.301007 1.751674 0.408203 -1.128509
0.107330 0.799885 0.252980 -1.395840
-0.630322 1.615603 0.274959 -0.891540
-0.513077 1.594769 0.301753 -1.441159
-0.928912 -0.091887 -0.273815 -1.860746
-0.316094 1.694852 0.387700 -1.142374
-0.401053 3.533086 0.908770 -0.371943
-0.495983 4.080485 1.044972 -0.272182
-0.210155 3.465162 0.943707 -1.021147
-0.792630 3.454881 0.764353 -0.381883
-0.611399 6.670178 1.823668 1.087269
-0.529388 5.530717 1.481028 0.008845
-1.118662 4.641406 1.017718 -0.015616
-2.599291 4.921713 0.649615 -0.289167
1.325052 3.463429 1.438687 -0.290324
0.495411 3.435965 1.157394 -0.973107
0.451811 4.763352 1.565192 -0.485729
-0.613710 2.690012 0.590314 -0.650408
-1.392522 4.147751 0.785892 -0.458305
-1.400709 4.128274 0.777352 -0.489812
-1.083294 2.930713 0.521460 -0.795250
-0.273362 4.491140 1.240091 -0.600642
3.692699 7.393593 3.692699 0.540522
3.612084 7.265954 3.612084 0.323291
-0.021371 5.529683 1.650815 0.057726
0.403572 6.128529 1.991461 0.837017
3.474207 7.045228 3.474207 0.000000
1.187792 5.771832 2.151836 -0.085237
3.559584 7.182272 3.559584 0.151216
1.564554 6.373391 2.492709 0.129879
-0.120546 3.087986 0.859071 -0.127382
-0.458547 4.301373 1.122885 -0.290773
0.030063 4.497960 1.341939 -0.129145
0.703016 4.723313 1.637880 -0.207390
1.213218 6.305869 2.340262 0.430801
0.662271 5.623828 1.916778 -0.055611
0.333455 5.660090 1.814361 -0.033917
0.817506 5.678832 1.989272 0.009697
3.474207 7.045228 3.474207 0.000000
3.559584 7.182272 3.559584 -0.151216
1.187792 5.771832 2.151836 0.085237
1.564554 6.373391 2.492709 -0.129879
3.692699 7.393593 3.692699 -0.540522
-0.021371 5.529683 1.650815 -0.057726
3.612084 7.265954 3.612084 -0.323291
0.403572 6.128529 1.991461 -0.837017
-0.120546 3.087986 0.859071 0.127382
0.030063 4.497960 1.341939 0.129145
-0.458547 4.301373 1.122885 0.290773
0.703016 4.723313 1.637880 0.207390
1.213218 6.305869 2.340262 -0.430801
0.333455 5.660090 1.814361 0.033917
0.662271 5.623828 1.916778 0.055611
0.817506 5.678832 1.989272 -0.009697
-0.611399 6.670178 1.823668 -1.087269
-1.118662 4.641406 1.017718 0.015616
-0.529388 5.530717 1.481028 -0.008845
-2.599291 4.921713 0.649615 0.289167
-0.401053 3.533086 0.908770 0.371943
-0.210155 3.465162 0.943707 1.021147
-0.495983 4.080485 1.044972 0.272182
-0.792630 3.454881 0.764353 0.381883
1.325052 3.463429 1.438687 0.290324
0.451811 4.763352 1.565192 0.485729
0.495411 3.435965 1.157394 0.973107
-0.613710 2.690012 0.590314 0.650408
-1.392522 4.147751 0.785892 0.458305
-1.083294 2.930713 0.521460 0.795250
-1.400709 4.128274 0.777352 0.489812
-0.273362 4.491140 1.240091 0.600642
-0.447328 3.420158 0.860361 0.413971
-0.407221 2.877446 0.708206 0.377091
-0.702918 2.458609 0.495563 1.135521
-0.519055 2.650461 0.607338 0.715454
0.982159 2.120257 0.917580 0.009983
0.363313 1.445416 0.517847 1.013161
-0.005937 2.438627 0.700107 0.192586
-0.008712 1.245477 0.349775 0.747214
0.229731 1.021146 0.352105 0.372127
-0.301007 1.751674 0.408203 1.128509
-0.032470 0.303475 0.074697 1.327579
0.107330 0.799885 0.252980 1.395840
-0.630322 1.615603 0.274959 0.891540
-0.928912 -0.091887 -0.273815 1.860746
-0.513077 1.594769 0.301753 1.441159
-0.316094 1.694852 0.387700 1.142374

