# vtk DataFile Version 2.0
Unstructured Grid Example
ASCII
DATASET UNSTRUCTURED_GRID

POINTS 9 float
-0.018758 -0.163331 0.000000 
1.018758 -0.163331 0.000000 
1.000000 1.000000 0.000000 
0.000000 1.000000 0.000000 
0.500000 0.009808 0.000000 
0.977821 0.375978 0.000000 
0.500000 1.000000 0.000000 
0.022179 0.375978 0.000000 
0.500000 0.400669 0.000000 

CELLS 8 32
3  0 4 8 
3  4 1 8 
3  1 5 8 
3  5 2 8 
3  2 6 8 
3  6 3 8 
3  3 7 8 
3  7 0 8 

CELL_TYPES 8
5
5
5
5
5
5
5
5

POINT_DATA 9

SCALARS u_h float 2
LOOKUP_TABLE default
-0.018758 -0.163331 
0.018758 -0.163331 
0.000000 0.000000 
0.000000 0.000000 
-0.000000 0.009808 
-0.022179 -0.124022 
0.000000 0.000000 
0.022179 -0.124022 
-0.000000 -0.099331 

CELL_DATA 8

SCALARS epsilon float 4
LOOKUP_TABLE default
0.036813 -0.149099 0.000000 0.221194
0.036813 -0.149099 0.000000 -0.221194
-0.046080 0.072790 0.000000 -0.065465
-0.042819 0.221113 0.000000 0.002533
0.000000 0.179471 0.000000 0.000000
0.000000 0.179471 0.000000 0.000000
-0.042819 0.221113 0.000000 -0.002533
-0.046080 0.072790 0.000000 0.065465

SCALARS sigma float 4
LOOKUP_TABLE default
-1.551336 -8.534087 -2.211173 3.500986
-1.551336 -8.534087 -2.211173 -3.500986
-0.762772 1.176932 0.114299 -1.031921
0.930149 4.344661 1.593459 -0.125325
1.794708 4.064408 1.794708 0.000000
1.794708 4.064408 1.794708 0.000000
0.930149 4.344661 1.593459 0.125325
-0.762772 1.176932 0.114299 1.031921

