# vtk DataFile Version 2.0
Unstructured Grid Example
ASCII
DATASET UNSTRUCTURED_GRID

POINTS 16641 float
0.051835 -0.215745 0.000000 
0.948165 -0.215745 0.000000 
1.000000 1.000000 0.000000 
0.000000 1.000000 0.000000 
0.500000 -0.100000 0.000000 
0.985265 0.348257 0.000000 
0.500000 1.000000 0.000000 
0.014735 0.348257 0.000000 
0.500000 0.352192 0.000000 
0.260422 -0.100000 0.000000 
0.500000 0.109245 0.000000 
0.240283 0.094611 0.000000 
0.739578 -0.100000 0.000000 
0.759717 0.094611 0.000000 
1.008744 0.057888 0.000000 
0.747119 0.344394 0.000000 
0.953589 0.649604 0.000000 
0.729923 0.648227 0.000000 
0.750000 1.000000 0.000000 
0.500000 0.651475 0.000000 
0.250000 1.000000 0.000000 
0.270077 0.648227 0.000000 
0.046411 0.649604 0.000000 
0.252881 0.344394 0.000000 
-0.008744 0.057888 0.000000 
0.172678 -0.165868 0.000000 
0.246922 -0.009829 0.000000 
0.123105 -0.050368 0.000000 
0.500000 0.001805 0.000000 
0.375221 0.000378 0.000000 
0.379018 -0.100000 0.000000 
0.371784 0.221818 0.000000 
0.371084 0.106309 0.000000 
0.500000 0.224804 0.000000 
0.620982 -0.100000 0.000000 
0.624779 0.000378 0.000000 
0.876895 -0.050368 0.000000 
0.753078 -0.009829 0.000000 
0.827322 -0.165868 0.000000 
0.628916 0.106309 0.000000 
0.628216 0.221818 0.000000 
0.991651 -0.088082 0.000000 
0.888050 0.072648 0.000000 
0.867919 0.340444 0.000000 
0.881797 0.202527 0.000000 
1.001660 0.203493 0.000000 
0.756309 0.213067 0.000000 
0.624016 0.349959 0.000000 
0.967391 0.495997 0.000000 
0.852766 0.487662 0.000000 
0.844307 0.818760 0.000000 
0.841924 0.646286 0.000000 
0.951983 0.811422 0.000000 
0.736739 0.489156 0.000000 
0.618944 0.492658 0.000000 
0.875000 1.000000 0.000000 
0.732698 0.820748 0.000000 
0.500000 0.821837 0.000000 
0.617257 0.821546 0.000000 
0.625000 1.000000 0.000000 
0.615748 0.650529 0.000000 
0.500000 0.494204 0.000000 
0.375000 1.000000 0.000000 
0.382743 0.821546 0.000000 
0.155693 0.818760 0.000000 
0.267302 0.820748 0.000000 
0.125000 1.000000 0.000000 
0.384252 0.650529 0.000000 
0.381056 0.492658 0.000000 
0.048017 0.811422 0.000000 
0.158076 0.646286 0.000000 
0.132081 0.340444 0.000000 
0.147234 0.487662 0.000000 
0.032609 0.495997 0.000000 
0.263261 0.489156 0.000000 
0.375984 0.349959 0.000000 
-0.001660 0.203493 0.000000 
0.118203 0.202527 0.000000 
0.111950 0.072648 0.000000 
0.008349 -0.088082 0.000000 
0.243691 0.213067 0.000000 
0.110977 -0.193344 0.000000 
0.141202 -0.110387 0.000000 
0.085949 -0.134104 0.000000 
0.254637 -0.055496 0.000000 
0.192728 -0.077565 0.000000 
0.232163 -0.117205 0.000000 
0.177010 0.027047 0.000000 
0.182441 -0.027026 0.000000 
0.242142 0.040430 0.000000 
0.500000 -0.049803 0.000000 
0.438911 -0.049921 0.000000 
0.439379 -0.100000 0.000000 
0.436537 0.054220 0.000000 
0.437764 0.001502 0.000000 
0.500000 0.054741 0.000000 
0.319246 -0.100000 0.000000 
0.377871 -0.050376 0.000000 
0.316792 -0.051611 0.000000 
0.436784 0.286151 0.000000 
0.435922 0.224060 0.000000 
0.500000 0.286823 0.000000 
0.305864 0.101913 0.000000 
0.370847 0.162641 0.000000 
0.305912 0.158425 0.000000 
0.500000 0.165765 0.000000 
0.435525 0.165007 0.000000 
0.435723 0.108558 0.000000 
0.311847 -0.002468 0.000000 
0.372628 0.052406 0.000000 
0.307836 0.048395 0.000000 
0.560621 -0.100000 0.000000 
0.561089 -0.049921 0.000000 
0.683208 -0.051611 0.000000 
0.622129 -0.050376 0.000000 
0.680754 -0.100000 0.000000 
0.562236 0.001502 0.000000 
0.563463 0.054220 0.000000 
0.914051 -0.134104 0.000000 
0.858798 -0.110387 0.000000 
0.889023 -0.193344 0.000000 
0.757858 0.040430 0.000000 
0.817559 -0.027026 0.000000 
0.822990 0.027047 0.000000 
0.767837 -0.117205 0.000000 
0.807272 -0.077565 0.000000 
0.745363 -0.055496 0.000000 
0.564078 0.224060 0.000000 
0.563216 0.286151 0.000000 
0.564277 0.108558 0.000000 
0.564475 0.165007 0.000000 
0.694088 0.158425 0.000000 
0.629153 0.162641 0.000000 
0.694136 0.101913 0.000000 
0.688153 -0.002468 0.000000 
0.692164 0.048395 0.000000 
0.627372 0.052406 0.000000 
0.971055 -0.155243 0.000000 
0.934300 -0.070695 0.000000 
0.949357 0.062720 0.000000 
0.945662 -0.004720 0.000000 
1.004359 -0.015769 0.000000 
0.885482 0.010457 0.000000 
0.824726 0.084302 0.000000 
0.927040 0.342060 0.000000 
0.935314 0.270590 0.000000 
0.994030 0.275718 0.000000 
0.814226 0.273163 0.000000 
0.875362 0.270422 0.000000 
0.807903 0.341707 0.000000 
1.007092 0.131032 0.000000 
0.942516 0.200362 0.000000 
0.947662 0.131118 0.000000 
0.626393 0.284168 0.000000 
0.562056 0.351641 0.000000 
0.759028 0.152222 0.000000 
0.692370 0.218085 0.000000 
0.685758 0.347395 0.000000 
0.689436 0.281026 0.000000 
0.752144 0.277107 0.000000 
0.886380 0.136629 0.000000 
0.819610 0.207435 0.000000 
0.823360 0.144471 0.000000 
0.976174 0.421537 0.000000 
0.918452 0.415075 0.000000 
0.902952 0.567037 0.000000 
0.910196 0.489955 0.000000 
0.959595 0.571931 0.000000 
0.860172 0.412777 0.000000 
0.801279 0.413185 0.000000 
0.910445 0.907274 0.000000 
0.898201 0.816021 0.000000 
0.961553 0.897172 0.000000 
0.786154 0.647032 0.000000 
0.840603 0.730691 0.000000 
0.785525 0.731945 0.000000 
0.950472 0.729290 0.000000 
0.895290 0.729455 0.000000 
0.897571 0.646705 0.000000 
0.621419 0.419409 0.000000 
0.560772 0.420803 0.000000 
0.741795 0.415034 0.000000 
0.681803 0.417339 0.000000 
0.674967 0.568386 0.000000 
0.678044 0.490983 0.000000 
0.732550 0.566877 0.000000 
0.846392 0.565389 0.000000 
0.789660 0.565657 0.000000 
0.794975 0.487768 0.000000 
0.937500 1.000000 0.000000 
0.855531 0.909653 0.000000 
0.739559 0.910241 0.000000 
0.798160 0.910140 0.000000 
0.812500 1.000000 0.000000 
0.789120 0.820053 0.000000 
0.729682 0.733037 0.000000 
0.500000 0.910336 0.000000 
0.560274 0.910322 0.000000 
0.562500 1.000000 0.000000 
0.557995 0.735130 0.000000 
0.558741 0.821758 0.000000 
0.500000 0.735294 0.000000 
0.687500 1.000000 0.000000 
0.620399 0.910299 0.000000 
0.680221 0.910273 0.000000 
0.559549 0.493800 0.000000 
0.500000 0.421289 0.000000 
0.673108 0.649475 0.000000 
0.616934 0.569741 0.000000 
0.500000 0.570986 0.000000 
0.558558 0.570660 0.000000 
0.557981 0.651228 0.000000 
0.675323 0.821212 0.000000 
0.615753 0.734671 0.000000 
0.673047 0.733956 0.000000 
0.437500 1.000000 0.000000 
0.439726 0.910322 0.000000 
0.319779 0.910273 0.000000 
0.379601 0.910299 0.000000 
0.312500 1.000000 0.000000 
0.441259 0.821758 0.000000 
0.442005 0.735130 0.000000 
0.089555 0.907274 0.000000 
0.144469 0.909653 0.000000 
0.062500 1.000000 0.000000 
0.270318 0.733037 0.000000 
0.210880 0.820053 0.000000 
0.214475 0.731945 0.000000 
0.187500 1.000000 0.000000 
0.201840 0.910140 0.000000 
0.260441 0.910241 0.000000 
0.440451 0.493800 0.000000 
0.439228 0.420803 0.000000 
0.442019 0.651228 0.000000 
0.441442 0.570660 0.000000 
0.325033 0.568386 0.000000 
0.383066 0.569741 0.000000 
0.326892 0.649475 0.000000 
0.324677 0.821212 0.000000 
0.326953 0.733956 0.000000 
0.384247 0.734671 0.000000 
0.038447 0.897172 0.000000 
0.101799 0.816021 0.000000 
0.102429 0.646705 0.000000 
0.104710 0.729455 0.000000 
0.049528 0.729290 0.000000 
0.159397 0.730691 0.000000 
0.213846 0.647032 0.000000 
0.072960 0.342060 0.000000 
0.081548 0.415075 0.000000 
0.023826 0.421537 0.000000 
0.198721 0.413185 0.000000 
0.139828 0.412777 0.000000 
0.192097 0.341707 0.000000 
0.040405 0.571931 0.000000 
0.089804 0.489955 0.000000 
0.097048 0.567037 0.000000 
0.378581 0.419409 0.000000 
0.437944 0.351641 0.000000 
0.267450 0.566877 0.000000 
0.321956 0.490983 0.000000 
0.314242 0.347395 0.000000 
0.318197 0.417339 0.000000 
0.258205 0.415034 0.000000 
0.153608 0.565389 0.000000 
0.205025 0.487768 0.000000 
0.210340 0.565657 0.000000 
0.005970 0.275718 0.000000 
0.064686 0.270590 0.000000 
0.052338 0.131118 0.000000 
0.057484 0.200362 0.000000 
-0.007092 0.131032 0.000000 
0.124638 0.270422 0.000000 
0.185774 0.273163 0.000000 
0.065700 -0.070695 0.000000 
0.028945 -0.155243 0.000000 
0.175274 0.084302 0.000000 
0.114518 0.010457 0.000000 
-0.004359 -0.015769 0.000000 
0.054338 -0.004720 0.000000 
0.050643 0.062720 0.000000 
0.373607 0.284168 0.000000 
0.247856 0.277107 0.000000 
0.310564 0.281026 0.000000 
0.307630 0.218085 0.000000 
0.240972 0.152222 0.000000 
0.113620 0.136629 0.000000 
0.176640 0.144471 0.000000 
0.180390 0.207435 0.000000 
0.081086 -0.204609 0.000000 
0.098513 -0.164288 0.000000 
0.069415 -0.175080 0.000000 
0.155632 -0.139282 0.000000 
0.127477 -0.152717 0.000000 
0.141612 -0.180874 0.000000 
0.102923 -0.092342 0.000000 
0.114047 -0.123057 0.000000 
0.130606 -0.080502 0.000000 
0.258733 -0.077456 0.000000 
0.225662 -0.080074 0.000000 
0.220020 -0.091117 0.000000 
0.217853 -0.040647 0.000000 
0.222082 -0.062171 0.000000 
0.250453 -0.033238 0.000000 
0.203479 -0.146312 0.000000 
0.203400 -0.101546 0.000000 
0.181654 -0.122743 0.000000 
0.208109 0.061646 0.000000 
0.209345 0.034397 0.000000 
0.240866 0.067070 0.000000 
0.152205 -0.038718 0.000000 
0.179230 -0.000412 0.000000 
0.148102 -0.010153 0.000000 
0.244151 0.014763 0.000000 
0.211376 0.008126 0.000000 
0.214221 -0.016995 0.000000 
0.167091 -0.095224 0.000000 
0.186769 -0.052737 0.000000 
0.158153 -0.067016 0.000000 
0.500000 -0.075095 0.000000 
0.469617 -0.075107 0.000000 
0.469674 -0.100000 0.000000 
0.469200 -0.024210 0.000000 
0.469451 -0.049830 0.000000 
0.500000 -0.024162 0.000000 
0.409148 -0.100000 0.000000 
0.439258 -0.075148 0.000000 
0.408950 -0.075225 0.000000 
0.468056 0.081621 0.000000 
0.468296 0.054614 0.000000 
0.500000 0.081772 0.000000 
0.406556 0.001075 0.000000 
0.437123 0.027685 0.000000 
0.405560 0.027113 0.000000 
0.500000 0.028099 0.000000 
0.468586 0.027999 0.000000 
0.468899 0.001732 0.000000 
0.289703 -0.100000 0.000000 
0.318591 -0.075918 0.000000 
0.288718 -0.076530 0.000000 
0.378719 -0.075354 0.000000 
0.348591 -0.075565 0.000000 
0.349033 -0.100000 0.000000 
0.345607 -0.025902 0.000000 
0.347356 -0.050840 0.000000 
0.376634 -0.025131 0.000000 
0.438387 -0.024364 0.000000 
0.407542 -0.024653 0.000000 
0.408384 -0.050092 0.000000 
[...]
POINT_DATA 16641

SCALARS u_h float 2
LOOKUP_TABLE default
0.051835 -0.215745 
-0.051835 -0.215745 
0.000000 0.000000 
0.000000 0.000000 
0.000000 -0.100000 
-0.014735 -0.151743 
0.000000 0.000000 
0.014735 -0.151743 
0.000000 -0.147808 
0.010422 -0.100000 
0.000000 -0.140755 
-0.009717 -0.155389 
-0.010422 -0.100000 
0.009717 -0.155389 
0.008744 -0.192112 
-0.002881 -0.155606 
-0.046411 -0.100396 
-0.020077 -0.101773 
0.000000 0.000000 
0.000000 -0.098525 
0.000000 0.000000 
0.020077 -0.101773 
0.046411 -0.100396 
0.002881 -0.155606 
-0.008744 -0.192112 
0.047678 -0.165868 
-0.003078 -0.134829 
-0.001895 -0.175368 
0.000000 -0.123195 
0.000221 -0.124622 
0.004018 -0.100000 
-0.003216 -0.153182 
-0.003916 -0.143691 
0.000000 -0.150196 
-0.004018 -0.100000 
-0.000221 -0.124622 
0.001895 -0.175368 
0.003078 -0.134829 
-0.047678 -0.165868 
0.003916 -0.143691 
0.003216 -0.153182 
-0.008349 -0.213082 
0.013050 -0.177352 
-0.007081 -0.159556 
0.006797 -0.172473 
0.001660 -0.171507 
0.006309 -0.161933 
-0.000984 -0.150041 
-0.032609 -0.129003 
-0.022234 -0.137338 
-0.030693 -0.056240 
-0.033076 -0.103714 
-0.048017 -0.063578 
-0.013261 -0.135844 
-0.006056 -0.132342 
0.000000 0.000000 
-0.017302 -0.054252 
-0.000000 -0.053163 
-0.007743 -0.053454 
0.000000 0.000000 
-0.009252 -0.099471 
0.000000 -0.130796 
0.000000 0.000000 
0.007743 -0.053454 
0.030693 -0.056240 
0.017302 -0.054252 
0.000000 0.000000 
0.009252 -0.099471 
0.006056 -0.132342 
0.048017 -0.063578 
0.033076 -0.103714 
0.007081 -0.159556 
0.022234 -0.137338 
0.032609 -0.129003 
0.013261 -0.135844 
0.000984 -0.150041 
-0.001660 -0.171507 
-0.006797 -0.172473 
-0.013050 -0.177352 
0.008349 -0.213082 
-0.006309 -0.161933 
0.048477 -0.193344 
0.016202 -0.172887 
0.023449 -0.196604 
0.004637 -0.117996 
0.005228 -0.140065 
0.044663 -0.117205 
-0.010490 -0.160453 
-0.005059 -0.152026 
-0.007858 -0.147070 
0.000000 -0.112303 
0.001411 -0.112421 
0.001879 -0.100000 
-0.000963 -0.133280 
0.000264 -0.123498 
0.000000 -0.132759 
0.006746 -0.100000 
0.002871 -0.112876 
0.004292 -0.114111 
-0.000716 -0.151349 
-0.001578 -0.150940 
0.000000 -0.150677 
-0.006636 -0.148087 
-0.004153 -0.149859 
-0.006588 -0.154075 
0.000000 -0.146735 
-0.001975 -0.147493 
-0.001777 -0.141442 
-0.000653 -0.127468 
-0.002372 -0.135094 
-0.004664 -0.139105 
-0.001879 -0.100000 
-0.001411 -0.112421 
-0.004292 -0.114111 
-0.002871 -0.112876 
-0.006746 -0.100000 
-0.000264 -0.123498 
0.000963 -0.133280 
-0.023449 -0.196604 
-0.016202 -0.172887 
-0.048477 -0.193344 
0.007858 -0.147070 
0.005059 -0.152026 
0.010490 -0.160453 
-0.044663 -0.117205 
-0.005228 -0.140065 
-0.004637 -0.117996 
0.001578 -0.150940 
0.000716 -0.151349 
0.001777 -0.141442 
0.001975 -0.147493 
0.006588 -0.154075 
0.004153 -0.149859 
0.006636 -0.148087 
0.000653 -0.127468 
0.004664 -0.139105 
0.002372 -0.135094 
-0.028945 -0.217743 
-0.003200 -0.195695 
0.011857 -0.187280 
0.008162 -0.192220 
0.004359 -0.203269 
0.010482 -0.177043 
0.012226 -0.165698 
-0.010460 -0.157940 
-0.002186 -0.166910 
-0.005970 -0.161782 
0.001726 -0.164337 
0.000362 -0.167078 
-0.004597 -0.158293 
0.007092 -0.181468 
0.005016 -0.174638 
0.010162 -0.181382 
0.001393 -0.153332 
-0.000444 -0.148359 
0.009028 -0.160278 
0.004870 -0.156915 
-0.001742 -0.152605 
0.001936 -0.156474 
0.002144 -0.160393 
0.011380 -0.175871 
0.007110 -0.167565 
0.010860 -0.168029 
-0.023826 -0.140963 
-0.019048 -0.147425 
-0.034548 -0.120463 
-0.027304 -0.135045 
-0.040405 -0.115569 
-0.014828 -0.149723 
-0.011221 -0.149315 
-0.027055 -0.030226 
-0.039299 -0.058979 
-0.038447 -0.040328 
-0.026346 -0.102968 
-0.034397 -0.081809 
-0.026975 -0.080555 
-0.049528 -0.083210 
-0.042210 -0.083045 
-0.039929 -0.103295 
-0.003581 -0.143091 
-0.001728 -0.141697 
-0.008205 -0.147466 
-0.005697 -0.145161 
-0.012533 -0.119114 
-0.009456 -0.134017 
-0.017450 -0.120623 
-0.028608 -0.122111 
-0.022840 -0.121843 
-0.017525 -0.137232 
0.000000 0.000000 
-0.019469 -0.027847 
-0.010441 -0.027259 
-0.014340 -0.027360 
0.000000 0.000000 
-0.023380 -0.054947 
-0.020318 -0.079463 
-0.000000 -0.027164 
-0.002226 -0.027178 
0.000000 0.000000 
-0.004505 -0.077370 
-0.003759 -0.053242 
0.000000 -0.077206 
0.000000 0.000000 
-0.004601 -0.027201 
-0.007279 -0.027227 
-0.002951 -0.131200 
0.000000 -0.141211 
-0.014392 -0.100525 
-0.008066 -0.117759 
0.000000 -0.116514 
-0.003942 -0.116840 
-0.004519 -0.098772 
-0.012177 -0.053788 
-0.009247 -0.077829 
-0.014453 -0.078544 
0.000000 0.000000 
0.002226 -0.027178 
0.007279 -0.027227 
0.004601 -0.027201 
0.000000 0.000000 
0.003759 -0.053242 
0.004505 -0.077370 
0.027055 -0.030226 
0.019469 -0.027847 
0.000000 0.000000 
0.020318 -0.079463 
0.023380 -0.054947 
0.026975 -0.080555 
0.000000 0.000000 
0.014340 -0.027360 
0.010441 -0.027259 
0.002951 -0.131200 
0.001728 -0.141697 
0.004519 -0.098772 
0.003942 -0.116840 
0.012533 -0.119114 
0.008066 -0.117759 
0.014392 -0.100525 
0.012177 -0.053788 
0.014453 -0.078544 
0.009247 -0.077829 
0.038447 -0.040328 
0.039299 -0.058979 
0.039929 -0.103295 
0.042210 -0.083045 
0.049528 -0.083210 
0.034397 -0.081809 
0.026346 -0.102968 
0.010460 -0.157940 
0.019048 -0.147425 
0.023826 -0.140963 
0.011221 -0.149315 
0.014828 -0.149723 
0.004597 -0.158293 
0.040405 -0.115569 
0.027304 -0.135045 
0.034548 -0.120463 
0.003581 -0.143091 
0.000444 -0.148359 
0.017450 -0.120623 
0.009456 -0.134017 
0.001742 -0.152605 
0.005697 -0.145161 
0.008205 -0.147466 
0.028608 -0.122111 
0.017525 -0.137232 
0.022840 -0.121843 
0.005970 -0.161782 
0.002186 -0.166910 
-0.010162 -0.181382 
-0.005016 -0.174638 
-0.007092 -0.181468 
-0.000362 -0.167078 
-0.001726 -0.164337 
0.003200 -0.195695 
0.028945 -0.217743 
-0.012226 -0.165698 
-0.010482 -0.177043 
-0.004359 -0.203269 
-0.008162 -0.192220 
-0.011857 -0.187280 
-0.001393 -0.153332 
-0.002144 -0.160393 
-0.001936 -0.156474 
-0.004870 -0.156915 
-0.009028 -0.160278 
-0.011380 -0.175871 
-0.010860 -0.168029 
-0.007110 -0.167565 
0.049836 -0.204609 
0.036013 -0.195538 
0.038165 -0.206330 
0.030632 -0.170532 
0.033727 -0.183967 
0.047862 -0.180874 
0.009173 -0.186092 
0.020297 -0.185557 
0.005606 -0.174252 
0.008733 -0.108706 
0.006912 -0.111324 
0.001270 -0.091117 
-0.000897 -0.134397 
0.003332 -0.124671 
0.000453 -0.126988 
0.047229 -0.146312 
0.015900 -0.132796 
0.025404 -0.153993 
-0.010641 -0.157104 
-0.009405 -0.153103 
-0.009134 -0.151680 
-0.004045 -0.163718 
-0.008270 -0.156662 
-0.008148 -0.166403 
-0.005849 -0.141487 
-0.007374 -0.148124 
-0.004529 -0.141995 
0.010841 -0.157724 
-0.000731 -0.146487 
0.001903 -0.160766 
0.000000 -0.106345 
0.000867 -0.106357 
0.000924 -0.100000 
0.000450 -0.117960 
0.000701 -0.112330 
0.000000 -0.117912 
0.002898 -0.100000 
0.001758 -0.106398 
0.002700 -0.106475 
-0.000694 -0.137129 
-0.000454 -0.132886 
0.000000 -0.136978 
0.000306 -0.123925 
-0.000377 -0.128565 
-0.000690 -0.129137 
0.000000 -0.128151 
-0.000164 -0.128251 
0.000149 -0.123268 
0.008453 -0.100000 
0.006091 -0.107168 
0.007468 -0.107780 
0.003719 -0.106604 
0.004841 -0.106815 
0.005283 -0.100000 
0.001857 -0.119652 
0.003606 -0.113340 
0.001634 -0.118881 
0.000887 -0.118114 
0.001292 -0.118403 
0.002134 -0.112592 
-0.000087 -0.149830 
-0.000360 -0.150845 
0.000000 -0.149676 
-0.002389 -0.151872 
-0.001195 -0.151549 
-0.001796 -0.152436 
0.000000 -0.150835 
-0.000596 -0.151015 
-0.000784 -0.150383 
-0.008173 -0.151338 
-0.006847 -0.151466 
-0.008270 -0.154542 
-0.004195 -0.147107 
-0.005473 -0.149004 
-0.005202 -0.145572 
-0.004856 -0.153685 
-0.005345 -0.151720 
-0.003815 -0.151898 
0.000000 -0.144028 
-0.000958 -0.144211 
-0.000865 -0.140925 
-0.000913 -0.149001 
-0.000973 -0.146924 
0.000000 -0.148811 
-0.002782 -0.142343 
-0.001956 -0.144763 
-0.003026 -0.145713 
-0.002809 -0.150531 
-0.003030 -0.148461 
-0.001844 -0.149571 
0.004787 -0.115445 
-0.000065 -0.125724 
0.001860 -0.120916 
0.001468 -0.123070 
-0.001654 -0.130273 
-0.001441 -0.137593 
-0.003304 -0.139665 
-0.002295 -0.138412 
-0.001583 -0.133987 
-0.001165 -0.130052 
-0.007495 -0.147314 
-0.004242 -0.136772 
-0.006193 -0.142460 
-0.005916 -0.143957 
-0.004507 -0.141464 
-0.001873 -0.131456 
-0.003386 -0.136734 
-0.002887 -0.133579 
-0.000924 -0.100000 
-0.000867 -0.106357 
-0.002700 -0.106475 
-0.001758 -0.106398 
-0.002898 -0.100000 
-0.000701 -0.112330 
-0.000450 -0.117960 
-0.007468 -0.107780 
-0.006091 -0.107168 
-0.008453 -0.100000 
-0.001634 -0.118881 
-0.003606 -0.113340 
-0.001857 -0.119652 
-0.005283 -0.100000 
-0.004841 -0.106815 
-0.003719 -0.106604 
0.000454 -0.132886 
0.000694 -0.137129 
-0.000149 -0.123268 
0.000164 -0.128251 
0.000690 -0.129137 
0.000377 -0.128565 
-0.000306 -0.123925 
-0.002134 -0.112592 
-0.001292 -0.118403 
-0.000887 -0.118114 
-0.038165 -0.206330 
-0.036013 -0.195538 
-0.049836 -0.204609 
-0.005606 -0.174252 
-0.020297 -0.185557 
-0.009173 -0.186092 
-0.047862 -0.180874 
-0.033727 -0.183967 
-0.030632 -0.170532 
0.009134 -0.151680 
0.009405 -0.153103 
0.010641 -0.157104 
0.004529 -0.141995 
0.007374 -0.148124 
0.005849 -0.141487 
0.008148 -0.166403 
0.008270 -0.156662 
0.004045 -0.163718 
-0.001270 -0.091117 
-0.006912 -0.111324 
-0.008733 -0.108706 
-0.025404 -0.153993 
-0.015900 -0.132796 
-0.047229 -0.146312 
-0.000453 -0.126988 
-0.003332 -0.124671 
0.000897 -0.134397 
-0.001903 -0.160766 
0.000731 -0.146487 
-0.010841 -0.157724 
0.000360 -0.150845 
0.000087 -0.149830 
0.000784 -0.150383 
0.000596 -0.151015 
0.001796 -0.152436 
0.001195 -0.151549 
0.002389 -0.151872 
0.000865 -0.140925 
0.000958 -0.144211 
0.003026 -0.145713 
0.001956 -0.144763 
0.002782 -0.142343 
0.000973 -0.146924 
0.000913 -0.149001 
0.008270 -0.154542 
0.006847 -0.151466 
0.008173 -0.151338 
0.003815 -0.151898 
0.005345 -0.151720 
0.004856 -0.153685 
0.005202 -0.145572 
0.005473 -0.149004 
0.004195 -0.147107 
0.001844 -0.149571 
0.003030 -0.148461 
0.002809 -0.150531 
-0.004787 -0.115445 
0.001654 -0.130273 
-0.001468 -0.123070 
-0.001860 -0.120916 
0.000065 -0.125724 
0.007495 -0.147314 
0.004507 -0.141464 
0.005916 -0.143957 
0.006193 -0.142460 
0.004242 -0.136772 
0.001441 -0.137593 
0.001165 -0.130052 
0.001583 -0.133987 
0.002295 -0.138412 
0.003304 -0.139665 
0.002887 -0.133579 
0.003386 -0.136734 
0.001873 -0.131456 
-0.040522 -0.217378 
-0.026171 -0.206974 
-0.005671 -0.204545 
-0.015043 -0.206352 
-0.017907 -0.216295 
-0.012269 -0.196573 
-0.000662 -0.186067 
0.010545 -0.190565 
0.009381 -0.194575 
0.007467 -0.197688 
0.011841 -0.184047 
0.010824 -0.189891 
0.012696 -0.182737 
-0.000869 -0.208555 
0.006469 -0.198379 
0.001514 -0.201790 
0.011787 -0.163452 
0.011123 -0.160224 
0.007090 -0.176331 
0.010858 -0.168654 
0.012892 -0.171534 
0.012390 -0.170379 
0.012391 -0.177406 
0.003571 -0.194192 
0.009524 -0.185029 
0.005461 -0.185698 
-0.012492 -0.155527 
-0.008125 -0.160434 
-0.010262 -0.156836 
-0.004624 -0.163572 
-0.006239 -0.162599 
-0.008655 -0.159210 
-0.001956 -0.166649 
-0.003930 -0.165102 
-0.000007 -0.169577 
-0.000736 -0.160126 
-0.001360 -0.161673 
-0.003654 -0.157049 
0.003754 -0.170032 
0.001180 -0.165954 
0.004317 -0.168393 
-0.005733 -0.159186 
-0.002199 -0.162890 
-0.003280 -0.163593 
0.008516 -0.186690 
0.008856 -0.182323 
0.010274 -0.186465 
0.003529 -0.173910 
0.006539 -0.178146 
0.004734 -0.176424 
0.008866 -0.176754 
0.007921 -0.178121 
0.006103 -0.174048 
-0.000755 -0.167480 
0.002856 -0.170964 
0.001603 -0.170912 
0.000163 -0.150298 
-0.000216 -0.147927 
0.002395 -0.153672 
0.001063 -0.152182 
-0.000696 -0.149071 
0.000222 -0.151072 
0.000252 -0.152132 
0.009661 -0.158245 
0.007839 -0.156935 
0.005639 -0.159291 
0.006940 -0.158519 
0.007886 -0.161504 
0.005911 -0.155897 
0.004051 -0.154867 
-0.002252 -0.154090 
-0.000009 -0.156659 
-0.000297 -0.158411 
0.000239 -0.153448 
0.000160 -0.154978 
-0.001327 -0.151234 
0.004370 -0.161564 
0.002098 -0.158373 
0.004003 -0.159246 
0.002979 -0.155240 
0.003526 -0.157114 
0.001691 -0.154775 
0.011549 -0.184436 
0.009381 -0.174416 
0.011001 -0.179097 
0.012342 -0.181089 
0.012655 -0.176846 
0.002034 -0.162427 
0.006820 -0.164739 
0.004579 -0.163962 
0.004577 -0.166298 
0.007120 -0.170221 
0.010908 -0.162519 
0.012494 -0.172100 
0.011888 -0.167218 
0.010067 -0.164024 
0.008677 -0.164761 
0.009490 -0.171446 
0.009236 -0.168142 
0.011320 -0.172072 
-0.019277 -0.146482 
-0.016934 -0.150334 
-0.025735 -0.138905 
-0.021374 -0.144808 
-0.028297 -0.135149 
-0.014756 -0.152895 
-0.012761 -0.154364 
-0.040663 -0.110690 
-0.037501 -0.118518 
-0.043691 -0.108216 
-0.024732 -0.136571 
-0.031100 -0.128051 
-0.028329 -0.129426 
-0.036676 -0.122487 
-0.033889 -0.125801 
-0.029936 -0.132583 
-0.007911 -0.154180 
-0.006649 -0.153181 
-0.010957 -0.154942 
-0.009343 -0.154822 
-0.016470 -0.144012 
-0.012948 -0.149773 
-0.018614 -0.143867 
-0.023258 -0.141489 
-0.020880 -0.143083 
-0.016863 -0.149001 
-0.019857 -0.017059 
-0.032429 -0.033772 
-0.027898 -0.025884 
-0.034861 -0.057361 
-0.034740 -0.045213 
-0.030177 -0.043334 
-0.044595 -0.052556 
-0.039723 -0.048281 
-0.043804 -0.061138 
-0.023142 -0.102397 
-0.027099 -0.092197 
-0.023741 -0.091614 
-0.034229 -0.093219 
-0.030607 -0.092746 
-0.029670 -0.103431 
-0.029436 -0.068713 
-0.030602 -0.081164 
-0.033322 -0.069471 
-0.048418 -0.092075 
-0.045093 -0.093193 
-0.043247 -0.102268 
-0.045699 -0.072758 
-0.046001 -0.083392 
-0.049503 -0.073742 
-0.036517 -0.103715 
-0.041559 -0.093594 
-0.037906 -0.093541 
-0.037408 -0.070415 
-0.038299 -0.082462 
-0.041592 -0.071547 
-0.001083 -0.145500 
-0.000536 -0.145104 
-0.002277 -0.147034 
-0.001658 -0.146152 
-0.003580 -0.137473 
-0.002630 -0.142291 
-0.004855 -0.138197 
-0.005541 -0.151963 
-0.004569 -0.150649 
-0.009161 -0.141090 
-0.006894 -0.146321 
-0.010802 -0.142099 
-0.003715 -0.149339 
-0.002957 -0.148112 
-0.016263 -0.110955 
-0.014932 -0.119873 
-0.019007 -0.111648 
-0.007712 -0.133132 
-0.011112 -0.127035 
-0.009079 -0.126238 
-0.015505 -0.128688 
-0.013252 -0.127871 
-0.011303 -0.134943 
-0.004598 -0.144064 
-0.007631 -0.140057 
-0.006200 -0.139073 
-0.037536 -0.112229 
-0.031146 -0.113331 
-0.034348 -0.113049 
-0.031573 -0.121601 
-0.025599 -0.130100 
-0.021883 -0.112299 
-0.017873 -0.129414 
-0.020089 -0.121305 
-0.024879 -0.112850 
-0.027977 -0.113225 
-0.009643 -0.148502 
-0.019828 -0.137509 
-0.014453 -0.143674 
-0.012564 -0.142995 
-0.015335 -0.136639 
-0.025687 -0.122148 
-0.020352 -0.129963 
-0.022933 -0.130232 
0.000000 0.000000 
-0.015284 -0.014553 
-0.010580 -0.013563 
-0.012539 -0.013803 
0.000000 0.000000 
-0.022825 -0.028587 
-0.026170 -0.042257 
-0.005606 -0.013570 
-0.006604 -0.013536 
0.000000 0.000000 
-0.016835 -0.041047 
-0.012276 -0.027292 
-0.014362 -0.040887 
0.000000 0.000000 
-0.007731 -0.013506 
-0.009030 -0.013501 
-0.023544 -0.079988 
-0.020551 -0.091028 
-0.026867 -0.055478 
-0.025795 -0.068102 
-0.019267 -0.067164 
-0.022408 -0.067596 
-0.020204 -0.054557 
-0.016701 -0.027512 
-0.019583 -0.041278 
-0.022668 -0.041642 
-0.000000 -0.013683 
-0.000588 -0.013685 
0.000000 0.000000 
-0.001532 -0.040370 
-0.001104 -0.027170 
-0.000000 -0.040357 
0.000000 0.000000 
-0.001187 -0.013682 
-0.001806 -0.013675 
-0.002284 -0.088303 
-0.002238 -0.077250 
0.000000 -0.088249 
-0.005709 -0.053332 
-0.004230 -0.065600 
-0.006419 -0.065742 
-0.000000 -0.065480 
-0.002100 -0.065512 
-0.001866 -0.053185 
0.000000 0.000000 
-0.003897 -0.013629 
-0.004711 -0.013602 
-0.002457 -0.013665 
-0.003150 -0.013650 
0.000000 0.000000 
-0.008152 -0.040576 
-0.005892 -0.027214 
-0.006374 -0.040503 
-0.003089 -0.040399 
-0.004695 -0.040444 
-0.003386 -0.027189 
-0.000856 -0.141334 
0.000000 -0.144974 
-0.004475 -0.131688 
-0.002357 -0.136933 
0.000000 -0.136489 
-0.001170 -0.136601 
-0.001466 -0.130898 
-0.017161 -0.101138 
-0.013650 -0.110269 
-0.008785 -0.109062 
-0.011162 -0.109627 
-0.011761 -0.099962 
-0.010249 -0.118397 
-0.007141 -0.125526 
0.000000 -0.107965 
-0.002134 -0.108039 
-0.002246 -0.098589 
-0.001733 -0.124226 
-0.001959 -0.116598 
0.000000 -0.124133 
-0.006846 -0.099070 
-0.004293 -0.108252 
-0.006503 -0.108597 
-0.005283 -0.124937 
-0.005970 -0.117233 
-0.003487 -0.124498 
-0.008787 -0.027241 
-0.009889 -0.053607 
-0.010056 -0.040662 
-0.012115 -0.040763 
-0.014638 -0.054001 
-0.004596 -0.088455 
-0.009420 -0.089037 
-0.006966 -0.088702 
-0.006832 -0.077565 
-0.008697 -0.065934 
-0.017534 -0.090460 
-0.016350 -0.066789 
-0.017293 -0.078981 
-0.014684 -0.089928 
-0.011985 -0.089450 
-0.011093 -0.066175 
-0.011779 -0.078158 
-0.013634 -0.066460 
0.000000 0.000000 
0.000588 -0.013685 
0.001806 -0.013675 
0.001187 -0.013682 
0.000000 0.000000 
0.001104 -0.027170 
0.001532 -0.040370 
0.004711 -0.013602 
0.003897 -0.013629 
0.000000 0.000000 
0.006374 -0.040503 
0.005892 -0.027214 
0.008152 -0.040576 
0.000000 0.000000 
0.003150 -0.013650 
0.002457 -0.013665 
0.002238 -0.077250 
0.002284 -0.088303 
0.001866 -0.053185 
0.002100 -0.065512 
0.006419 -0.065742 
0.004230 -0.065600 
0.005709 -0.053332 
0.003386 -0.027189 
0.004695 -0.040444 
0.003089 -0.040399 
0.019857 -0.017059 
0.015284 -0.014553 
0.000000 0.000000 
0.026170 -0.042257 
0.022825 -0.028587 
0.030177 -0.043334 
0.000000 0.000000 
0.012539 -0.013803 
0.010580 -0.013563 
0.020551 -0.091028 
0.023544 -0.079988 
0.023741 -0.091614 
0.020204 -0.054557 
0.022408 -0.067596 
0.019267 -0.067164 
0.029436 -0.068713 
0.025795 -0.068102 
0.026867 -0.055478 
0.000000 0.000000 
0.006604 -0.013536 
0.005606 -0.013570 
0.009030 -0.013501 
0.007731 -0.013506 
0.000000 0.000000 
0.014362 -0.040887 
0.012276 -0.027292 
0.016835 -0.041047 
0.022668 -0.041642 
0.019583 -0.041278 
0.016701 -0.027512 
0.000856 -0.141334 
0.000536 -0.145104 
0.001466 -0.130898 
0.001170 -0.136601 
0.003580 -0.137473 
0.002357 -0.136933 
0.004475 -0.131688 
0.002246 -0.098589 
0.002134 -0.108039 
0.006503 -0.108597 
0.004293 -0.108252 
0.006846 -0.099070 
0.001959 -0.116598 
0.001733 -0.124226 
0.016263 -0.110955 
0.013650 -0.110269 
0.017161 -0.101138 
0.007141 -0.125526 
0.010249 -0.118397 
0.009079 -0.126238 
0.011761 -0.099962 
0.011162 -0.109627 
0.008785 -0.109062 
0.003487 -0.124498 
0.005970 -0.117233 
0.005283 -0.124937 
0.008787 -0.027241 
0.014638 -0.054001 
0.012115 -0.040763 
0.010056 -0.040662 
0.009889 -0.053607 
0.017534 -0.090460 
0.011985 -0.089450 
0.014684 -0.089928 
0.017293 -0.078981 
0.016350 -0.066789 
0.004596 -0.088455 
0.008697 -0.065934 
0.006832 -0.077565 
0.006966 -0.088702 
0.009420 -0.089037 
0.013634 -0.066460 
0.011779 -0.078158 
0.011093 -0.066175 
0.027898 -0.025884 
0.032429 -0.033772 
0.043804 -0.061138 
0.039723 -0.048281 
0.044595 -0.052556 
0.034740 -0.045213 
0.034861 -0.057361 
0.043247 -0.102268 
0.045093 -0.093193 
0.048418 -0.092075 
0.037906 -0.093541 
0.041559 -0.093594 
0.036517 -0.103715 
0.049503 -0.073742 
0.046001 -0.083392 
0.045699 -0.072758 
0.027099 -0.092197 
0.023142 -0.102397 
0.033322 -0.069471 
0.030602 -0.081164 
0.029670 -0.103431 
0.030607 -0.092746 
0.034229 -0.093219 
0.041592 -0.071547 
0.038299 -0.082462 
0.037408 -0.070415 
0.012492 -0.155527 
0.016934 -0.150334 
0.019277 -0.146482 
0.012761 -0.154364 
0.014756 -0.152895 
0.008655 -0.159210 
0.028297 -0.135149 
0.021374 -0.144808 
0.025735 -0.138905 
0.006649 -0.153181 
0.007911 -0.154180 
0.003654 -0.157049 
0.018614 -0.143867 
0.012948 -0.149773 
0.016470 -0.144012 
0.005733 -0.159186 
0.009343 -0.154822 
0.010957 -0.154942 
0.043691 -0.108216 
0.037501 -0.118518 
0.040663 -0.110690 
0.029936 -0.132583 
0.033889 -0.125801 
0.036676 -0.122487 
0.028329 -0.129426 
0.031100 -0.128051 
0.024732 -0.136571 
0.016863 -0.149001 
0.020880 -0.143083 
0.023258 -0.141489 
0.001083 -0.145500 
0.000216 -0.147927 
0.004855 -0.138197 
0.002630 -0.142291 
0.000696 -0.149071 
0.001658 -0.146152 
0.002277 -0.147034 
0.019007 -0.111648 
0.014932 -0.119873 
0.011303 -0.134943 
0.013252 -0.127871 
0.015505 -0.128688 
0.011112 -0.127035 
0.007712 -0.133132 
0.002252 -0.154090 
0.004569 -0.150649 
0.005541 -0.151963 
0.002957 -0.148112 
0.003715 -0.149339 
0.001327 -0.151234 
0.010802 -0.142099 
0.006894 -0.146321 
0.009161 -0.141090 