# vtk DataFile Version 2.0
Unstructured Grid Example
ASCII
DATASET UNSTRUCTURED_GRID

POINTS 25 float
0.010629 -0.256220 0.000000 
0.989371 -0.256220 0.000000 
1.000000 1.000000 0.000000 
0.000000 1.000000 0.000000 
0.500000 -0.100000 0.000000 
0.965283 0.311374 0.000000 
0.500000 1.000000 0.000000 
0.034717 0.311374 0.000000 
0.500000 0.325248 0.000000 
0.257087 -0.217012 0.000000 
0.500000 0.085501 0.000000 
0.247326 0.028937 0.000000 
0.742913 -0.217012 0.000000 
0.752674 0.028937 0.000000 
0.992235 0.012780 0.000000 
0.735129 0.309607 0.000000 
0.946208 0.625084 0.000000 
0.728177 0.636606 0.000000 
0.750000 1.000000 0.000000 
0.500000 0.646345 0.000000 
0.250000 1.000000 0.000000 
0.271823 0.636606 0.000000 
0.053792 0.625084 0.000000 
0.264871 0.309607 0.000000 
0.007765 0.012780 0.000000 

CELLS 32 128
3  0 9 11 
3  4 10 9 
3  8 11 10 
3  9 10 11 
3  4 12 10 
3  1 13 12 
3  8 10 13 
3  12 13 10 
3  1 14 13 
3  5 15 14 
3  8 13 15 
3  14 15 13 
3  5 16 15 
3  2 17 16 
3  8 15 17 
3  16 17 15 
3  2 18 17 
3  6 19 18 
3  8 17 19 
3  18 19 17 
3  6 20 19 
3  3 21 20 
3  8 19 21 
3  20 21 19 
3  3 22 21 
3  7 23 22 
3  8 21 23 
3  22 23 21 
3  7 24 23 
3  0 11 24 
3  8 23 11 
3  24 11 23 

CELL_TYPES 32
5
5
5
5
5
5
5
5
5
5
5
5
5
5
5
5
5
5
5
5
5
5
5
5
5
5
5
5
5
5
5
5

POINT_DATA 25

SCALARS u_h float 2
LOOKUP_TABLE default
0.010629 -0.256220 
-0.010629 -0.256220 
0.000000 0.000000 
0.000000 0.000000 
0.000000 -0.100000 
-0.034717 -0.188626 
0.000000 0.000000 
0.034717 -0.188626 
0.000000 -0.174752 
0.007087 -0.217012 
0.000000 -0.164499 
-0.002674 -0.221063 
-0.007087 -0.217012 
0.002674 -0.221063 
-0.007765 -0.237220 
-0.014871 -0.190393 
-0.053792 -0.124916 
-0.021823 -0.113394 
0.000000 0.000000 
0.000000 -0.103655 
0.000000 0.000000 
0.021823 -0.113394 
0.053792 -0.124916 
0.014871 -0.190393 
0.007765 -0.237220 

CELL_DATA 32

SCALARS epsilon float 4
LOOKUP_TABLE default
-0.007172 0.002869 0.000000 0.059901
-0.028751 -0.076526 0.000000 0.315127
0.010640 -0.014604 0.000000 0.117954
0.020242 0.017945 0.000000 0.095634
-0.028751 -0.076526 0.000000 -0.315127
-0.007172 0.002869 0.000000 -0.059901
0.010640 -0.014604 0.000000 -0.117954
0.020242 0.017945 0.000000 -0.095634
-0.041850 0.075802 0.000000 -0.024030
-0.077021 0.176683 0.000000 -0.054051
-0.063170 0.112896 0.000000 -0.064632
-0.044699 0.112888 0.000000 -0.064930
-0.079866 0.224174 0.000000 -0.036928
-0.115146 0.396003 0.000000 0.094176
-0.062401 0.263156 0.000000 -0.037787
-0.136678 0.262952 0.000000 -0.032297
0.001803 0.360726 0.000000 0.039397
0.000000 0.336050 0.000000 -0.000000
-0.091069 0.246482 0.000000 -0.015026
-0.086378 0.363464 0.000000 0.029828
0.000000 0.336050 0.000000 -0.000000
0.001803 0.360726 0.000000 -0.039397
-0.091069 0.246482 0.000000 0.015026
-0.086378 0.363464 0.000000 -0.029828
-0.115146 0.396003 0.000000 -0.094176
-0.079866 0.224174 0.000000 0.036928
-0.062401 0.263156 0.000000 0.037787
-0.136678 0.262952 0.000000 0.032297
-0.077021 0.176683 0.000000 0.054051
-0.041850 0.075802 0.000000 0.024030
-0.063170 0.112896 0.000000 0.064632
-0.044699 0.112888 0.000000 0.064930

SCALARS sigma float 4
LOOKUP_TABLE default
-0.193423 -0.228123 -0.115210 0.981100
-3.570558 -11.813313 -2.994864 5.323395
-0.144978 -1.052369 -0.321012 1.914179
0.583269 0.153287 0.206211 1.544552
-3.570558 -11.813313 -2.994864 -5.323395
-0.193423 -0.228123 -0.115210 -0.981100
-0.144978 -1.052369 -0.321012 -1.914179
0.583269 0.153287 0.206211 -1.544552
-0.436134 1.382327 0.264523 -0.427762
-0.734121 3.066859 0.666029 -0.640719
-0.892522 1.865918 0.271080 -1.003342
-0.315785 2.070685 0.496662 -0.976039
-0.311929 3.935733 1.057727 -0.378217
-0.412814 6.154206 1.719228 0.626033
0.659111 4.810881 1.650562 -0.546180
-2.030930 3.899908 0.523086 -0.509919
3.607261 7.258285 3.607261 0.210217
3.360503 6.860835 3.360503 -0.000000
-0.434387 4.203264 1.100685 -0.272481
0.752927 6.156737 2.125161 0.093832
3.360503 6.860835 3.360503 -0.000000
3.607261 7.258285 3.607261 -0.210217
-0.434387 4.203264 1.100685 0.272481
0.752927 6.156737 2.125161 -0.093832
-0.412814 6.154206 1.719228 -0.626033
-0.311929 3.935733 1.057727 0.378217
0.659111 4.810881 1.650562 0.546180
-2.030930 3.899908 0.523086 0.509919
-0.734121 3.066859 0.666029 0.640719
-0.436134 1.382327 0.264523 0.427762
-0.892522 1.865918 0.271080 1.003342
-0.315785 2.070685 0.496662 0.976039

