# vtk DataFile Version 2.0
Unstructured Grid Example
ASCII
DATASET UNSTRUCTURED_GRID

POINTS 81 float
0.031295 -0.287571 0.000000 
0.968705 -0.287571 0.000000 
1.000000 1.000000 0.000000 
0.000000 1.000000 0.000000 
0.500000 -0.100000 0.000000 
0.965348 0.294858 0.000000 
0.500000 1.000000 0.000000 
0.034652 0.294858 0.000000 
0.500000 0.307535 0.000000 
0.276554 -0.237151 0.000000 
0.500000 0.066014 0.000000 
0.247589 0.012180 0.000000 
0.723446 -0.237151 0.000000 
0.752411 0.012180 0.000000 
0.989310 -0.012127 0.000000 
0.737961 0.294322 0.000000 
0.939046 0.618707 0.000000 
0.723471 0.625369 0.000000 
0.750000 1.000000 0.000000 
0.500000 0.632428 0.000000 
0.250000 1.000000 0.000000 
0.276529 0.625369 0.000000 
0.060954 0.618707 0.000000 
0.262039 0.294322 0.000000 
0.010690 -0.012127 0.000000 
0.154559 -0.268767 0.000000 
0.253792 -0.115992 0.000000 
0.134527 -0.141879 0.000000 
0.500000 -0.027269 0.000000 
0.373081 -0.074562 0.000000 
0.391982 -0.181968 0.000000 
0.372922 0.165672 0.000000 
0.369810 0.040503 0.000000 
0.500000 0.178018 0.000000 
0.608018 -0.181968 0.000000 
0.626919 -0.074562 0.000000 
0.865473 -0.141879 0.000000 
0.746208 -0.115992 0.000000 
0.845441 -0.268767 0.000000 
0.630190 0.040503 0.000000 
0.627078 0.165672 0.000000 
0.985603 -0.155335 0.000000 
0.871657 -0.006552 0.000000 
0.852584 0.288222 0.000000 
0.865894 0.136680 0.000000 
0.980880 0.138541 0.000000 
0.748191 0.148131 0.000000 
0.620731 0.304404 0.000000 
0.950497 0.452949 0.000000 
0.839444 0.448303 0.000000 
0.839760 0.808784 0.000000 
0.831143 0.620387 0.000000 
0.941194 0.795667 0.000000 
0.728130 0.452578 0.000000 
0.614748 0.458682 0.000000 
0.875000 1.000000 0.000000 
0.729285 0.810879 0.000000 
0.500000 0.814327 0.000000 
0.615430 0.812160 0.000000 
0.625000 1.000000 0.000000 
0.612602 0.629300 0.000000 
0.500000 0.462087 0.000000 
0.375000 1.000000 0.000000 
0.384570 0.812160 0.000000 
0.160240 0.808784 0.000000 
0.270715 0.810879 0.000000 
0.125000 1.000000 0.000000 
0.387398 0.629300 0.000000 
0.385252 0.458682 0.000000 
0.058806 0.795667 0.000000 
0.168857 0.620387 0.000000 
0.147416 0.288222 0.000000 
0.160556 0.448303 0.000000 
0.049503 0.452949 0.000000 
0.271870 0.452578 0.000000 
0.379269 0.304404 0.000000 
0.019120 0.138541 0.000000 
0.134106 0.136680 0.000000 
0.128343 -0.006552 0.000000 
0.014397 -0.155335 0.000000 
0.251809 0.148131 0.000000 

CELLS 128 512
3  0 25 27 
3  9 26 25 
3  11 27 26 
3  25 26 27 
3  4 28 30 
3  10 29 28 
3  9 30 29 
3  28 29 30 
3  8 31 33 
3  11 32 31 
3  10 33 32 
3  31 32 33 
3  9 29 26 
3  10 32 29 
3  11 26 32 
3  29 32 26 
3  4 34 28 
3  12 35 34 
3  10 28 35 
3  34 35 28 
3  1 36 38 
3  13 37 36 
3  12 38 37 
3  36 37 38 
3  8 33 40 
3  10 39 33 
3  13 40 39 
3  33 39 40 
3  12 37 35 
3  13 39 37 
3  10 35 39 
3  37 39 35 
3  1 41 36 
3  14 42 41 
3  13 36 42 
3  41 42 36 
3  5 43 45 
3  15 44 43 
3  14 45 44 
3  43 44 45 
3  8 40 47 
3  13 46 40 
3  15 47 46 
3  40 46 47 
3  14 44 42 
3  15 46 44 
3  13 42 46 
3  44 46 42 
3  5 48 43 
3  16 49 48 
3  15 43 49 
3  48 49 43 
3  2 50 52 
3  17 51 50 
3  16 52 51 
3  50 51 52 
3  8 47 54 
3  15 53 47 
3  17 54 53 
3  47 53 54 
3  16 51 49 
3  17 53 51 
3  15 49 53 
3  51 53 49 
3  2 55 50 
3  18 56 55 
3  17 50 56 
3  55 56 50 
3  6 57 59 
3  19 58 57 
3  18 59 58 
3  57 58 59 
3  8 54 61 
3  17 60 54 
3  19 61 60 
3  54 60 61 
3  18 58 56 
3  19 60 58 
3  17 56 60 
3  58 60 56 
3  6 62 57 
3  20 63 62 
3  19 57 63 
3  62 63 57 
3  3 64 66 
3  21 65 64 
3  20 66 65 
3  64 65 66 
3  8 61 68 
3  19 67 61 
3  21 68 67 
3  61 67 68 
3  20 65 63 
3  21 67 65 
3  19 63 67 
3  65 67 63 
3  3 69 64 
3  22 70 69 
3  21 64 70 
3  69 70 64 
3  7 71 73 
3  23 72 71 
3  22 73 72 
3  71 72 73 
3  8 68 75 
3  21 74 68 
3  23 75 74 
3  68 74 75 
3  22 72 70 
3  23 74 72 
3  21 70 74 
3  72 74 70 
3  7 76 71 
3  24 77 76 
3  23 71 77 
3  76 77 71 
3  0 27 79 
3  11 78 27 
3  24 79 78 
3  27 78 79 
3  8 75 31 
3  23 80 75 
3  11 31 80 
3  75 80 31 
3  24 78 77 
3  11 80 78 
3  23 77 80 
3  78 80 77 

CELL_TYPES 128
5
5
5
5
5
5
5
5
5
5
5
5
5
5
5
5
5
5
5
5
5
5
5
5
5
5
5
5
5
5
5
5
5
5
5
5
5
5
5
5
5
5
5
5
5
5
5
5
5
5
5
5
5
5
5
5
5
5
5
5
5
5
5
5
5
5
5
5
5
5
5
5
5
5
5
5
5
5
5
5
5
5
5
5
5
5
5
5
5
5
5
5
5
5
5
5
5
5
5
5
5
5
5
5
5
5
5
5
5
5
5
5
5
5
5
5
5
5
5
5
5
5
5
5
5
5
5
5

POINT_DATA 81

SCALARS u_h float 2
LOOKUP_TABLE default
0.031295 -0.287571 
-0.031295 -0.287571 
0.000000 0.000000 
0.000000 0.000000 
-0.000000 -0.100000 
-0.034652 -0.205142 
0.000000 0.000000 
0.034652 -0.205142 
-0.000000 -0.192465 
0.026554 -0.237151 
-0.000000 -0.183986 
-0.002411 -0.237820 
-0.026554 -0.237151 
0.002411 -0.237820 
-0.010690 -0.262127 
-0.012039 -0.205678 
-0.060954 -0.131293 
-0.026529 -0.124631 
0.000000 0.000000 
-0.000000 -0.117572 
0.000000 0.000000 
0.026529 -0.124631 
0.060954 -0.131293 
0.012039 -0.205678 
0.010690 -0.262127 
0.029559 -0.268767 
0.003792 -0.240992 
0.009527 -0.266879 
-0.000000 -0.152269 
-0.001919 -0.199562 
0.016982 -0.181968 
-0.002078 -0.209328 
-0.005190 -0.209497 
-0.000000 -0.196982 
-0.016982 -0.181968 
0.001919 -0.199562 
-0.009527 -0.266879 
-0.003792 -0.240992 
-0.029559 -0.268767 
0.005190 -0.209497 
0.002078 -0.209328 
-0.014397 -0.280335 
-0.003343 -0.256552 
-0.022416 -0.211778 
-0.009106 -0.238320 
-0.019120 -0.236459 
-0.001809 -0.226869 
-0.004269 -0.195596 
-0.049503 -0.172051 
-0.035556 -0.176697 
-0.035240 -0.066216 
-0.043857 -0.129613 
-0.058806 -0.079333 
-0.021870 -0.172422 
-0.010252 -0.166318 
0.000000 0.000000 
-0.020715 -0.064121 
-0.000000 -0.060673 
-0.009570 -0.062840 
0.000000 0.000000 
-0.012398 -0.120700 
-0.000000 -0.162913 
0.000000 0.000000 
0.009570 -0.062840 
0.035240 -0.066216 
0.020715 -0.064121 
0.000000 0.000000 
0.012398 -0.120700 
0.010252 -0.166318 
0.058806 -0.079333 
0.043857 -0.129613 
0.022416 -0.211778 
0.035556 -0.176697 
0.049503 -0.172051 
0.021870 -0.172422 
0.004269 -0.195596 
0.019120 -0.236459 
0.009106 -0.238320 
0.003343 -0.256552 
0.014397 -0.280335 
0.001809 -0.226869 

CELL_DATA 128

SCALARS epsilon float 4
LOOKUP_TABLE default
0.022038 0.049540 0.000000 -0.007051
0.040038 0.048834 0.000000 0.037140
-0.035230 0.057434 0.000000 0.074870
-0.000465 0.070021 0.000000 0.018196
-0.144854 0.390035 0.000000 0.549580
0.015233 -0.157545 0.000000 0.253433
0.016559 0.060895 0.000000 0.175459
0.091818 -0.005126 0.000000 0.145070
0.016485 0.039880 0.000000 0.047646
-0.027923 0.022665 0.000000 0.125777
0.040660 -0.085391 0.000000 0.113703
0.014367 0.003665 0.000000 0.061549
0.033511 0.088560 0.000000 0.075616
0.046573 -0.054690 0.000000 0.098146
-0.010126 0.061169 0.000000 0.085126
-0.036489 -0.003064 0.000000 0.166138
-0.144854 0.390035 0.000000 -0.549580
0.016559 0.060895 0.000000 -0.175459
0.015233 -0.157545 0.000000 -0.253433
0.091818 -0.005126 0.000000 -0.145070
0.022038 0.049540 0.000000 0.007051
-0.035230 0.057434 0.000000 -0.074870
0.040038 0.048834 0.000000 -0.037140
-0.000465 0.070021 0.000000 -0.018196
0.016485 0.039880 0.000000 -0.047646
0.040660 -0.085391 0.000000 -0.113703
-0.027923 0.022665 0.000000 -0.125777
0.014367 0.003665 0.000000 -0.061549
0.033511 0.088560 0.000000 -0.075616
-0.010126 0.061169 0.000000 -0.085126
0.046573 -0.054690 0.000000 -0.098146
-0.036489 -0.003064 0.000000 -0.166138
-0.016937 0.075830 0.000000 0.019162
-0.058893 0.137287 0.000000 -0.003893
-0.038828 0.096708 0.000000 -0.043345
-0.033509 0.089595 0.000000 -0.024087
-0.090867 0.227100 0.000000 -0.044972
-0.086449 0.186917 0.000000 -0.076295
-0.080553 0.185838 0.000000 -0.029455
-0.077343 0.191954 0.000000 -0.049980
-0.034794 0.102979 0.000000 -0.037299
-0.035563 0.088263 0.000000 -0.081750
-0.067271 0.152281 0.000000 -0.077079
-0.037090 0.105924 0.000000 -0.089099
-0.061475 0.134368 0.000000 -0.043483
-0.064074 0.152273 0.000000 -0.081590
-0.051437 0.089469 0.000000 -0.086290
-0.063057 0.135160 0.000000 -0.063904
-0.091816 0.237557 0.000000 -0.042073
-0.111854 0.279324 0.000000 -0.034583
-0.086733 0.239858 0.000000 -0.073529
-0.110087 0.246948 0.000000 -0.041955
-0.111960 0.497249 0.000000 0.210133
-0.144524 0.395473 0.000000 0.022559
-0.145613 0.336965 0.000000 0.004471
-0.198181 0.401990 0.000000 0.004507
-0.034930 0.207033 0.000000 -0.034025
-0.067195 0.229431 0.000000 -0.071845
-0.098212 0.314248 0.000000 -0.036458
-0.098367 0.206722 0.000000 -0.045017
-0.145064 0.310407 0.000000 -0.040355
-0.148713 0.314237 0.000000 -0.034027
-0.115298 0.230403 0.000000 -0.055538
-0.115744 0.309713 0.000000 -0.046752
0.016982 0.406246 0.000000 0.124055
0.005999 0.396526 0.000000 0.073336
-0.121616 0.379991 0.000000 0.017956
-0.097809 0.409389 0.000000 0.134725
0.000000 0.380166 0.000000 0.000000
-0.079469 0.361812 0.000000 -0.005916
0.001298 0.390501 0.000000 0.033995
-0.077001 0.391427 0.000000 0.031066
-0.085351 0.209779 0.000000 -0.010925
-0.119667 0.303035 0.000000 -0.020323
-0.104047 0.301811 0.000000 -0.009068
-0.085628 0.303002 0.000000 -0.018582
-0.084669 0.397643 0.000000 0.077110
-0.103475 0.367039 0.000000 0.002852
-0.117613 0.380656 0.000000 0.012987
-0.092785 0.366659 0.000000 0.007708
0.000000 0.380166 0.000000 0.000000
0.001298 0.390501 0.000000 -0.033995
-0.079469 0.361812 0.000000 0.005916
-0.077001 0.391427 0.000000 -0.031066
0.016982 0.406246 0.000000 -0.124055
-0.121616 0.379991 0.000000 -0.017956
0.005999 0.396526 0.000000 -0.073336
-0.097809 0.409389 0.000000 -0.134725
-0.085351 0.209779 0.000000 0.010925
-0.104047 0.301811 0.000000 0.009068
-0.119667 0.303035 0.000000 0.020323
-0.085628 0.303002 0.000000 0.018582
-0.084669 0.397643 0.000000 -0.077110
-0.117613 0.380656 0.000000 -0.012987
-0.103475 0.367039 0.000000 -0.002852
-0.092785 0.366659 0.000000 -0.007708
-0.111960 0.497249 0.000000 -0.210133
-0.145613 0.336965 0.000000 -0.004471
-0.144524 0.395473 0.000000 -0.022559
-0.198181 0.401990 0.000000 -0.004507
-0.091816 0.237557 0.000000 0.042073
-0.086733 0.239858 0.000000 0.073529
-0.111854 0.279324 0.000000 0.034583
-0.110087 0.246948 0.000000 0.041955
-0.034930 0.207033 0.000000 0.034025
-0.098212 0.314248 0.000000 0.036458
-0.067195 0.229431 0.000000 0.071845
-0.098367 0.206722 0.000000 0.045017
-0.145064 0.310407 0.000000 0.040355
-0.115298 0.230403 0.000000 0.055538
-0.148713 0.314237 0.000000 0.034027
-0.115744 0.309713 0.000000 0.046752
-0.090867 0.227100 0.000000 0.044972
-0.080553 0.185838 0.000000 0.029455
-0.086449 0.186917 0.000000 0.076295
-0.077343 0.191954 0.000000 0.049980
-0.016937 0.075830 0.000000 -0.019162
-0.038828 0.096708 0.000000 0.043345
-0.058893 0.137287 0.000000 0.003893
-0.033509 0.089595 0.000000 0.024087
-0.034794 0.102979 0.000000 0.037299
-0.067271 0.152281 0.000000 0.077079
-0.035563 0.088263 0.000000 0.081750
-0.037090 0.105924 0.000000 0.089099
-0.061475 0.134368 0.000000 0.043483
-0.051437 0.089469 0.000000 0.086290
-0.064074 0.152273 0.000000 0.081590
-0.063057 0.135160 0.000000 0.063904

SCALARS sigma float 4
LOOKUP_TABLE default
1.047254 1.476186 0.736625 0.114029
1.559309 1.458920 0.900235 0.857229
-0.461196 0.711634 0.069465 1.312395
0.713236 1.641091 0.688283 0.568554
-8.417911 -43.614062 -4.718915 10.694394
-2.468546 -11.187684 -2.755681 4.094399
0.907154 -0.292587 0.178995 2.822961
2.062168 -0.564866 0.436607 2.126268
0.788837 1.075815 0.531389 0.768820
-0.924585 -0.509609 -0.381633 2.137030
-0.104343 -2.904968 -0.775319 1.793248
0.312831 0.069126 0.105604 0.993834
1.799664 2.020449 1.165707 1.587591
0.462745 -1.672857 -0.324763 1.496560
0.253260 0.994317 0.353116 1.461395
-1.495240 -2.194351 -0.945334 2.763940
-8.417911 -43.614062 -4.718915 -10.694394
0.907154 -0.292587 0.178995 -2.822961
-2.468546 -11.187684 -2.755681 -4.094399
2.062168 -0.564866 0.436607 -2.126268
1.047254 1.476186 0.736625 -0.114029
-0.461196 0.711634 0.069465 -1.312395
1.559309 1.458920 0.900235 -0.857229
0.713236 1.641091 0.688283 -0.568554
0.788837 1.075815 0.531389 -0.768820
-0.104343 -2.904968 -0.775319 -1.793248
-0.924585 -0.509609 -0.381633 -2.137030
0.312831 0.069126 0.105604 -0.993834
1.799664 2.020449 1.165707 -1.587591
0.253260 0.994317 0.353116 -1.461395
0.462745 -1.672857 -0.324763 -1.496560
-1.495240 -2.194351 -0.945334 -2.763940
0.242715 1.694067 0.555891 0.094628
-0.364252 2.541676 0.621935 -0.142380
-0.144403 1.784684 0.466128 -0.829573
-0.044411 1.764568 0.489216 -0.495976
-0.718370 3.858939 0.909153 -0.350768
-1.060787 3.059798 0.565086 -1.057995
-0.666994 3.234590 0.736106 -0.313477
-0.585049 3.361797 0.799226 -0.545850
-0.015237 2.057318 0.582373 -0.533662
-0.305205 1.485069 0.330561 -1.342235
-0.715639 2.578031 0.526392 -1.154565
-0.231154 1.830132 0.450992 -1.429982
-0.545426 2.400924 0.525915 -0.652361
-0.632260 2.588023 0.553715 -1.229622
-0.793073 1.297498 0.139354 -1.450165
-0.650388 2.312506 0.468902 -1.016051
-0.642098 4.033874 0.985783 -0.303340
-0.959221 4.498695 1.025907 -0.248775
-0.559628 4.032019 1.007044 -0.932215
-1.212197 3.970797 0.789685 -0.367140
-0.981932 7.165482 1.856343 1.226872
-1.220604 5.862957 1.356207 0.070437
-1.730700 4.991701 0.931790 0.003704
-3.608196 5.231854 0.444342 -0.282960
0.998592 4.154940 1.553246 -0.405783
0.047310 4.068903 1.210795 -0.977679
-0.120782 5.214237 1.516522 -0.494106
-1.122953 3.364714 0.636321 -0.663653
-2.008909 4.560250 0.720277 -0.483880
-2.097469 4.573544 0.697465 -0.495109
-1.587816 3.570167 0.558061 -0.756180
-0.860507 4.906485 1.179022 -0.571953
4.062457 7.966265 4.062457 0.566385
3.965257 7.817699 3.965257 0.346405
-0.401721 5.944698 1.653048 0.096436
0.008506 6.435194 1.951950 0.999794
3.801661 7.564496 3.801661 0.000000
1.029754 6.230952 2.247674 -0.105786
3.905007 7.724913 3.905007 0.163963
1.347988 6.698344 2.522163 0.152803
-0.566589 3.626100 0.883792 -0.196747
-0.993517 4.784395 1.100161 -0.304346
-0.402763 4.971059 1.347950 -0.167118
0.264102 5.217905 1.647928 -0.256192
0.924129 6.614613 2.337461 0.520369
0.200191 5.995366 1.875893 -0.063044
-0.231990 6.009688 1.731655 0.001023
0.591562 6.130143 2.057135 0.024745
3.801661 7.564496 3.801661 0.000000
3.905007 7.724913 3.905007 -0.163963
1.029754 6.230952 2.247674 0.105786
1.347988 6.698344 2.522163 -0.152803
4.062457 7.966265 4.062457 -0.566385
-0.401721 5.944698 1.653048 -0.096436
3.965257 7.817699 3.965257 -0.346405
0.008506 6.435194 1.951950 -0.999794
-0.566589 3.626100 0.883792 0.196747
-0.402763 4.971059 1.347950 0.167118
-0.993517 4.784395 1.100161 0.304346
0.264102 5.217905 1.647928 0.256192
0.924129 6.614613 2.337461 -0.520369
-0.231990 6.009688 1.731655 -0.001023
0.200191 5.995366 1.875893 0.063044
0.591562 6.130143 2.057135 -0.024745
-0.981932 7.165482 1.856343 -1.226872
-1.730700 4.991701 0.931790 -0.003704
-1.220604 5.862957 1.356207 -0.070437
-3.608196 5.231854 0.444342 0.282960
-0.642098 4.033874 0.985783 0.303340
-0.559628 4.032019 1.007044 0.932215
-0.959221 4.498695 1.025907 0.248775
-1.212197 3.970797 0.789685 0.367140
0.998592 4.154940 1.553246 0.405783
-0.120782 5.214237 1.516522 0.494106
0.047310 4.068903 1.210795 0.977679
-1.122953 3.364714 0.636321 0.663653
-2.008909 4.560250 0.720277 0.483880
-1.587816 3.570167 0.558061 0.756180
-2.097469 4.573544 0.697465 0.495109
-0.860507 4.906485 1.179022 0.571953
-0.718370 3.858939 0.909153 0.350768
-0.666994 3.234590 0.736106 0.313477
-1.060787 3.059798 0.565086 1.057995
-0.585049 3.361797 0.799226 0.545850
0.242715 1.694067 0.555891 -0.094628
-0.144403 1.784684 0.466128 0.829573
-0.364252 2.541676 0.621935 0.142380
-0.044411 1.764568 0.489216 0.495976
-0.015237 2.057318 0.582373 0.533662
-0.715639 2.578031 0.526392 1.154565
-0.305205 1.485069 0.330561 1.342235
-0.231154 1.830132 0.450992 1.429982
-0.545426 2.400924 0.525915 0.652361
-0.793073 1.297498 0.139354 1.450165
-0.632260 2.588023 0.553715 1.229622
-0.650388 2.312506 0.468902 1.016051

