# vtk DataFile Version 2.0
Unstructured Grid Example
ASCII
DATASET UNSTRUCTURED_GRID

POINTS 1089 float
0.042779 -0.312149 0.000000 
0.957221 -0.312149 0.000000 
1.000000 1.000000 0.000000 
0.000000 1.000000 0.000000 
0.500000 -0.100000 0.000000 
0.965200 0.281559 0.000000 
0.500000 1.000000 0.000000 
0.034800 0.281559 0.000000 
0.500000 0.294264 0.000000 
0.293178 -0.257876 0.000000 
0.500000 0.044482 0.000000 
0.246890 -0.003589 0.000000 
0.706822 -0.257876 0.000000 
0.753110 -0.003589 0.000000 
0.986228 -0.034387 0.000000 
0.738862 0.280691 0.000000 
0.932813 0.613606 0.000000 
0.720010 0.616001 0.000000 
0.750000 1.000000 0.000000 
0.500000 0.621449 0.000000 
0.250000 1.000000 0.000000 
0.279990 0.616001 0.000000 
0.067187 0.613606 0.000000 
0.261138 0.280691 0.000000 
0.013772 -0.034387 0.000000 
0.167015 -0.291390 0.000000 
0.258192 -0.135147 0.000000 
0.142349 -0.163742 0.000000 
0.500000 -0.047335 0.000000 
0.371207 -0.087976 0.000000 
0.405674 -0.194326 0.000000 
0.372511 0.151335 0.000000 
0.367964 0.026750 0.000000 
0.500000 0.159783 0.000000 
0.594326 -0.194326 0.000000 
0.628793 -0.087976 0.000000 
0.857651 -0.163742 0.000000 
0.741808 -0.135147 0.000000 
0.832985 -0.291390 0.000000 
0.632036 0.026750 0.000000 
0.627489 0.151335 0.000000 
0.976379 -0.180972 0.000000 
0.870074 -0.025473 0.000000 
0.853574 0.274190 0.000000 
0.866862 0.120589 0.000000 
0.980991 0.121531 0.000000 
0.749475 0.133850 0.000000 
0.620833 0.290383 0.000000 
0.946834 0.444709 0.000000 
0.837634 0.437065 0.000000 
0.832099 0.802357 0.000000 
0.826511 0.612081 0.000000 
0.933814 0.790846 0.000000 
0.727101 0.440609 0.000000 
0.614383 0.446361 0.000000 
0.875000 1.000000 0.000000 
0.725294 0.805763 0.000000 
0.500000 0.807921 0.000000 
0.613776 0.807208 0.000000 
0.625000 1.000000 0.000000 
0.610966 0.619784 0.000000 
0.500000 0.448933 0.000000 
0.375000 1.000000 0.000000 
0.386224 0.807208 0.000000 
0.167901 0.802357 0.000000 
0.274706 0.805763 0.000000 
0.125000 1.000000 0.000000 
0.389034 0.619784 0.000000 
0.385617 0.446361 0.000000 
0.066186 0.790846 0.000000 
0.173489 0.612081 0.000000 
0.146426 0.274190 0.000000 
0.162366 0.437065 0.000000 
0.053166 0.444709 0.000000 
0.272899 0.440609 0.000000 
0.379167 0.290383 0.000000 
0.019009 0.121531 0.000000 
0.133138 0.120589 0.000000 
0.129926 -0.025473 0.000000 
0.023621 -0.180972 0.000000 
0.250525 0.133850 0.000000 
0.104388 -0.302206 0.000000 
0.154037 -0.229109 0.000000 
0.093409 -0.239206 0.000000 
0.272540 -0.198350 0.000000 
0.214044 -0.216092 0.000000 
0.230350 -0.277304 0.000000 
0.192263 -0.084682 0.000000 
0.200857 -0.151550 0.000000 
0.250047 -0.070011 0.000000 
0.500000 -0.080039 0.000000 
0.435948 -0.107555 0.000000 
0.450407 -0.149593 0.000000 
0.431508 -0.013334 0.000000 
0.431715 -0.062122 0.000000 
0.500000 -0.004951 0.000000 
0.353152 -0.230989 0.000000 
0.381676 -0.142935 0.000000 
0.328475 -0.174291 0.000000 
0.437507 0.223246 0.000000 
0.435733 0.157524 0.000000 
0.500000 0.224745 0.000000 
0.306414 0.011300 0.000000 
0.369788 0.087469 0.000000 
0.307698 0.075941 0.000000 
0.500000 0.099601 0.000000 
0.434054 0.096255 0.000000 
0.432565 0.039346 0.000000 
0.314504 -0.113756 0.000000 
0.367848 -0.031485 0.000000 
0.308069 -0.051773 0.000000 
0.549593 -0.149593 0.000000 
0.564052 -0.107555 0.000000 
0.671525 -0.174291 0.000000 
0.618324 -0.142935 0.000000 
0.646848 -0.230989 0.000000 
0.568285 -0.062122 0.000000 
0.568492 -0.013334 0.000000 
0.906591 -0.239206 0.000000 
0.845963 -0.229109 0.000000 
0.895612 -0.302206 0.000000 
0.749953 -0.070011 0.000000 
0.799143 -0.151550 0.000000 
0.807737 -0.084682 0.000000 
0.769650 -0.277304 0.000000 
0.785956 -0.216092 0.000000 
0.727460 -0.198350 0.000000 
0.564267 0.157524 0.000000 
0.562493 0.223246 0.000000 
0.567435 0.039346 0.000000 
0.565946 0.096255 0.000000 
0.692302 0.075941 0.000000 
0.630212 0.087469 0.000000 
0.693586 0.011300 0.000000 
0.685496 -0.113756 0.000000 
0.691931 -0.051773 0.000000 
0.632152 -0.031485 0.000000 
0.967185 -0.248509 0.000000 
0.916951 -0.173008 0.000000 
0.928368 -0.031587 0.000000 
0.924583 -0.103656 0.000000 
0.983135 -0.109352 0.000000 
0.865944 -0.095709 0.000000 
0.811711 -0.016087 0.000000 
0.909789 0.275360 0.000000 
0.917954 0.196258 0.000000 
0.973958 0.201125 0.000000 
0.803276 0.199994 0.000000 
0.861025 0.196367 0.000000 
0.796607 0.276421 0.000000 
0.985364 0.042866 0.000000 
0.924383 0.118690 0.000000 
0.928135 0.042669 0.000000 
0.624273 0.218849 0.000000 
0.560648 0.293554 0.000000 
0.752586 0.064218 0.000000 
0.689208 0.142826 0.000000 
0.680276 0.285740 0.000000 
0.685022 0.212585 0.000000 
0.744655 0.205837 0.000000 
0.870167 0.046663 0.000000 
0.808595 0.126012 0.000000 
0.811707 0.054091 0.000000 
0.955980 0.362522 0.000000 
0.900983 0.356100 0.000000 
0.884758 0.523755 0.000000 
0.892330 0.438771 0.000000 
0.938754 0.528316 0.000000 
0.845496 0.354312 0.000000 
0.789455 0.355661 0.000000 
0.900535 0.898955 0.000000 
0.883049 0.797999 0.000000 
0.947371 0.885483 0.000000 
0.773516 0.613855 0.000000 
0.826060 0.705194 0.000000 
0.773758 0.707524 0.000000 
0.930428 0.700909 0.000000 
0.877922 0.702609 0.000000 
0.879413 0.611500 0.000000 
0.617390 0.366155 0.000000 
0.558810 0.368534 0.000000 
0.732784 0.358824 0.000000 
0.675425 0.362652 0.000000 
0.667614 0.528802 0.000000 
0.671025 0.443627 0.000000 
0.722553 0.526309 0.000000 
0.830917 0.522845 0.000000 
0.776937 0.524063 0.000000 
0.782606 0.438090 0.000000 
0.937500 1.000000 0.000000 
0.847964 0.902253 0.000000 
0.735137 0.903353 0.000000 
0.792301 0.903073 0.000000 
0.812500 1.000000 0.000000 
0.779466 0.804534 0.000000 
0.720537 0.709432 0.000000 
0.500000 0.903870 0.000000 
0.559290 0.903722 0.000000 
0.562500 1.000000 0.000000 
0.555836 0.712978 0.000000 
0.557031 0.807636 0.000000 
0.500000 0.713381 0.000000 
0.687500 1.000000 0.000000 
0.618369 0.903618 0.000000 
0.677057 0.903503 0.000000 
0.557299 0.448239 0.000000 
0.500000 0.369319 0.000000 
0.665818 0.618071 0.000000 
0.612113 0.530990 0.000000 
0.500000 0.533087 0.000000 
0.556171 0.532492 0.000000 
0.555613 0.620947 0.000000 
0.669958 0.806598 0.000000 
0.611383 0.712171 0.000000 
0.666362 0.710979 0.000000 
0.437500 1.000000 0.000000 
0.440710 0.903722 0.000000 
0.322943 0.903503 0.000000 
0.381631 0.903618 0.000000 
0.312500 1.000000 0.000000 
0.442969 0.807636 0.000000 
0.444164 0.712978 0.000000 
0.099465 0.898955 0.000000 
0.152036 0.902253 0.000000 
0.062500 1.000000 0.000000 
0.279463 0.709432 0.000000 
0.220534 0.804534 0.000000 
0.226242 0.707524 0.000000 
0.187500 1.000000 0.000000 
0.207699 0.903073 0.000000 
0.264863 0.903353 0.000000 
0.442701 0.448239 0.000000 
0.441190 0.368534 0.000000 
0.444387 0.620947 0.000000 
0.443829 0.532492 0.000000 
0.332386 0.528802 0.000000 
0.387887 0.530990 0.000000 
0.334182 0.618071 0.000000 
0.330042 0.806598 0.000000 
0.333638 0.710979 0.000000 
0.388617 0.712171 0.000000 
0.052629 0.885483 0.000000 
0.116951 0.797999 0.000000 
0.120587 0.611500 0.000000 
0.122078 0.702609 0.000000 
0.069572 0.700909 0.000000 
0.173940 0.705194 0.000000 
0.226484 0.613855 0.000000 
0.090211 0.275360 0.000000 
0.099017 0.356100 0.000000 
0.044020 0.362522 0.000000 
0.210545 0.355661 0.000000 
0.154504 0.354312 0.000000 
0.203393 0.276421 0.000000 
0.061246 0.528316 0.000000 
0.107670 0.438771 0.000000 
0.115242 0.523755 0.000000 
0.382610 0.366155 0.000000 
0.439352 0.293554 0.000000 
0.277447 0.526309 0.000000 
0.328975 0.443627 0.000000 
0.319724 0.285740 0.000000 
0.324575 0.362652 0.000000 
0.267216 0.358824 0.000000 
0.169083 0.522845 0.000000 
0.217394 0.438090 0.000000 
0.223063 0.524063 0.000000 
0.026042 0.201125 0.000000 
0.082046 0.196258 0.000000 
0.071865 0.042669 0.000000 
0.075617 0.118690 0.000000 
0.014636 0.042866 0.000000 
0.138975 0.196367 0.000000 
0.196724 0.199994 0.000000 
0.083049 -0.173008 0.000000 
0.032815 -0.248509 0.000000 
0.188289 -0.016087 0.000000 
0.134056 -0.095709 0.000000 
0.016865 -0.109352 0.000000 
0.075417 -0.103656 0.000000 
0.071632 -0.031587 0.000000 
0.375727 0.218849 0.000000 
0.255345 0.205837 0.000000 
0.314978 0.212585 0.000000 
0.310792 0.142826 0.000000 
0.247414 0.064218 0.000000 
0.129833 0.046663 0.000000 
0.188293 0.054091 0.000000 
0.191405 0.126012 0.000000 
0.073488 -0.307101 0.000000 
0.098992 -0.271076 0.000000 
0.068323 -0.275858 0.000000 
0.160560 -0.260650 0.000000 
0.129751 -0.266110 0.000000 
0.135569 -0.297071 0.000000 
0.117989 -0.201904 0.000000 
0.123756 -0.234397 0.000000 
0.147864 -0.196789 0.000000 
0.282164 -0.228721 0.000000 
0.252325 -0.238691 0.000000 
0.261939 -0.268386 0.000000 
0.235947 -0.176266 0.000000 
0.243548 -0.207915 0.000000 
0.264539 -0.167073 0.000000 
0.198650 -0.284887 0.000000 
0.221984 -0.247181 0.000000 
0.191343 -0.254423 0.000000 
0.218809 -0.044183 0.000000 
0.221185 -0.077819 0.000000 
0.247930 -0.036955 0.000000 
0.171734 -0.158100 0.000000 
0.195961 -0.118357 0.000000 
0.166935 -0.124634 0.000000 
0.253410 -0.102757 0.000000 
0.224776 -0.111090 0.000000 
0.229680 -0.143940 0.000000 
0.184167 -0.223084 0.000000 
0.206923 -0.184168 0.000000 
0.177536 -0.190946 0.000000 
0.500000 -0.091711 0.000000 
0.468794 -0.108779 0.000000 
0.475216 -0.124784 0.000000 
0.464925 -0.072476 0.000000 
0.465946 -0.091345 0.000000 
0.500000 -0.065114 0.000000 
0.427829 -0.172171 0.000000 
0.441489 -0.128987 0.000000 
0.416062 -0.149350 0.000000 
0.465624 0.017234 0.000000 
0.465240 -0.007318 0.000000 
0.500000 0.018993 0.000000 
0.400707 -0.074564 0.000000 
0.431351 -0.038180 0.000000 
0.399437 -0.048437 0.000000 
0.500000 -0.027154 0.000000 
0.464918 -0.030474 0.000000 
0.464743 -0.052194 0.000000 
0.323738 -0.245503 0.000000 
0.339302 -0.203395 0.000000 
0.311252 -0.217036 0.000000 
0.391433 -0.169372 0.000000 
0.366050 -0.187557 0.000000 
0.380760 -0.214043 0.000000 
0.347747 -0.130620 0.000000 
0.355322 -0.159506 0.000000 
0.375226 -0.115691 0.000000 
0.433015 -0.085238 0.000000 
0.403388 -0.100175 0.000000 
[...]
POINT_DATA 1089

SCALARS u_h float 2
LOOKUP_TABLE default
0.042779 -0.312149 
-0.042779 -0.312149 
0.000000 0.000000 
0.000000 0.000000 
-0.000000 -0.100000 
-0.034800 -0.218441 
0.000000 0.000000 
0.034800 -0.218441 
-0.000000 -0.205736 
0.043178 -0.257876 
-0.000000 -0.205518 
-0.003110 -0.253589 
-0.043178 -0.257876 
0.003110 -0.253589 
-0.013772 -0.284387 
-0.011138 -0.219309 
-0.067187 -0.136394 
-0.029990 -0.133999 
0.000000 0.000000 
-0.000000 -0.128551 
0.000000 0.000000 
0.029990 -0.133999 
0.067187 -0.136394 
0.011138 -0.219309 
0.013772 -0.284387 
0.042015 -0.291390 
0.008192 -0.260147 
0.017349 -0.288742 
-0.000000 -0.172335 
-0.003793 -0.212976 
0.030674 -0.194326 
-0.002489 -0.223665 
-0.007036 -0.223250 
-0.000000 -0.215217 
-0.030674 -0.194326 
0.003793 -0.212976 
-0.017349 -0.288742 
-0.008192 -0.260147 
-0.042015 -0.291390 
0.007036 -0.223250 
0.002489 -0.223665 
-0.023621 -0.305972 
-0.004926 -0.275473 
-0.021426 -0.225810 
-0.008138 -0.254411 
-0.019009 -0.253469 
-0.000525 -0.241150 
-0.004167 -0.209617 
-0.053166 -0.180291 
-0.037366 -0.187935 
-0.042901 -0.072643 
-0.048489 -0.137919 
-0.066186 -0.084154 
-0.022899 -0.184391 
-0.010617 -0.178639 
0.000000 0.000000 
-0.024706 -0.069237 
-0.000000 -0.067079 
-0.011224 -0.067792 
0.000000 0.000000 
-0.014034 -0.130216 
-0.000000 -0.176067 
0.000000 0.000000 
0.011224 -0.067792 
0.042901 -0.072643 
0.024706 -0.069237 
0.000000 0.000000 
0.014034 -0.130216 
0.010617 -0.178639 
0.066186 -0.084154 
0.048489 -0.137919 
0.021426 -0.225810 
0.037366 -0.187935 
0.053166 -0.180291 
0.022899 -0.184391 
0.004167 -0.209617 
0.019009 -0.253469 
0.008138 -0.254411 
0.004926 -0.275473 
0.023621 -0.305972 
0.000525 -0.241150 
0.041888 -0.302206 
0.029037 -0.291609 
0.030909 -0.301706 
0.022540 -0.260850 
0.026544 -0.278592 
0.042850 -0.277304 
0.004763 -0.272182 
0.013357 -0.276550 
0.000047 -0.257511 
-0.000000 -0.142539 
-0.001552 -0.170055 
0.012907 -0.149593 
-0.005992 -0.200834 
-0.005785 -0.187122 
-0.000000 -0.192451 
0.040652 -0.230989 
0.006676 -0.205435 
0.015975 -0.236791 
0.000007 -0.214254 
-0.001767 -0.217476 
-0.000000 -0.212755 
-0.006086 -0.238700 
-0.005212 -0.225031 
-0.004802 -0.236559 
-0.000000 -0.212899 
-0.003446 -0.216245 
-0.004935 -0.210654 
0.002004 -0.238756 
-0.007152 -0.218985 
-0.004431 -0.239273 
-0.012907 -0.149593 
0.001552 -0.170055 
-0.015975 -0.236791 
-0.006676 -0.205435 
-0.040652 -0.230989 
0.005785 -0.187122 
0.005992 -0.200834 
-0.030909 -0.301706 
-0.029037 -0.291609 
-0.041888 -0.302206 
-0.000047 -0.257511 
-0.013357 -0.276550 
-0.004763 -0.272182 
-0.042850 -0.277304 
-0.026544 -0.278592 
-0.022540 -0.260850 
0.001767 -0.217476 
-0.000007 -0.214254 
0.004935 -0.210654 
0.003446 -0.216245 
0.004802 -0.236559 
0.005212 -0.225031 
0.006086 -0.238700 
-0.002004 -0.238756 
0.004431 -0.239273 
0.007152 -0.218985 
-0.032815 -0.311009 
-0.020549 -0.298008 
-0.009132 -0.281587 
-0.012917 -0.291156 
-0.016865 -0.296852 
-0.009056 -0.283209 
-0.000789 -0.266087 
-0.027711 -0.224640 
-0.019546 -0.241242 
-0.026042 -0.236375 
-0.009224 -0.237506 
-0.013975 -0.241133 
-0.015893 -0.223579 
-0.014636 -0.269634 
-0.013117 -0.256310 
-0.009365 -0.269831 
-0.000727 -0.218651 
-0.001852 -0.206446 
0.002586 -0.248282 
0.001708 -0.232174 
-0.007224 -0.214260 
-0.002478 -0.224915 
-0.005345 -0.231663 
-0.004833 -0.265837 
-0.003905 -0.248988 
-0.000793 -0.258409 
-0.044020 -0.199978 
-0.036517 -0.206400 
-0.052742 -0.163745 
-0.045170 -0.186229 
-0.061246 -0.159184 
-0.029504 -0.208188 
-0.023045 -0.206839 
-0.036965 -0.038545 
-0.054451 -0.077001 
-0.052629 -0.052017 
-0.038984 -0.136145 
-0.048940 -0.107306 
-0.038742 -0.104976 
-0.069572 -0.111591 
-0.059578 -0.109891 
-0.058087 -0.138500 
-0.007610 -0.196345 
-0.003690 -0.193966 
-0.017216 -0.203676 
-0.012075 -0.199848 
-0.019886 -0.158698 
-0.016475 -0.181373 
-0.027447 -0.161191 
-0.044083 -0.164655 
-0.035563 -0.163437 
-0.029894 -0.186910 
0.000000 0.000000 
-0.027036 -0.035247 
-0.014863 -0.034147 
-0.020199 -0.034427 
0.000000 0.000000 
-0.033034 -0.070466 
-0.029463 -0.103068 
-0.000000 -0.033630 
-0.003210 -0.033778 
0.000000 0.000000 
-0.006664 -0.099522 
-0.005469 -0.067364 
-0.000000 -0.099119 
0.000000 0.000000 
-0.006631 -0.033882 
-0.010443 -0.033997 
-0.005201 -0.176761 
-0.000000 -0.193181 
-0.021682 -0.131929 
-0.012887 -0.156510 
-0.000000 -0.154413 
-0.006329 -0.155008 
-0.006887 -0.129053 
-0.017542 -0.068402 
-0.013617 -0.100329 
-0.021138 -0.101521 
0.000000 0.000000 
0.003210 -0.033778 
0.010443 -0.033997 
0.006631 -0.033882 
0.000000 0.000000 
0.005469 -0.067364 
0.006664 -0.099522 
0.036965 -0.038545 
0.027036 -0.035247 
0.000000 0.000000 
0.029463 -0.103068 
0.033034 -0.070466 
0.038742 -0.104976 
0.000000 0.000000 
0.020199 -0.034427 
0.014863 -0.034147 
0.005201 -0.176761 
0.003690 -0.193966 
0.006887 -0.129053 
0.006329 -0.155008 
0.019886 -0.158698 
0.012887 -0.156510 
0.021682 -0.131929 
0.017542 -0.068402 
0.021138 -0.101521 
0.013617 -0.100329 
0.052629 -0.052017 
0.054451 -0.077001 
0.058087 -0.138500 
0.059578 -0.109891 
0.069572 -0.111591 
0.048940 -0.107306 
0.038984 -0.136145 
0.027711 -0.224640 
0.036517 -0.206400 
0.044020 -0.199978 
0.023045 -0.206839 
0.029504 -0.208188 
0.015893 -0.223579 
0.061246 -0.159184 
0.045170 -0.186229 
0.052742 -0.163745 
0.007610 -0.196345 
0.001852 -0.206446 
0.027447 -0.161191 
0.016475 -0.181373 
0.007224 -0.214260 
0.012075 -0.199848 
0.017216 -0.203676 
0.044083 -0.164655 
0.029894 -0.186910 
0.035563 -0.163437 
0.026042 -0.236375 
0.019546 -0.241242 
0.009365 -0.269831 
0.013117 -0.256310 
0.014636 -0.269634 
0.013975 -0.241133 
0.009224 -0.237506 
0.020549 -0.298008 
0.032815 -0.311009 
0.000789 -0.266087 
0.009056 -0.283209 
0.016865 -0.296852 
0.012917 -0.291156 
0.009132 -0.281587 
0.000727 -0.218651 
0.005345 -0.231663 
0.002478 -0.224915 
-0.001708 -0.232174 
-0.002586 -0.248282 
0.004833 -0.265837 
0.000793 -0.258409 
0.003905 -0.248988 
0.042238 -0.307101 
0.036492 -0.302326 
0.037073 -0.307108 
0.035560 -0.291900 
0.036001 -0.297360 
0.041819 -0.297071 
0.024239 -0.295654 
0.030006 -0.296897 
0.022864 -0.290539 
0.032164 -0.259971 
0.033575 -0.269941 
0.043189 -0.268386 
0.017197 -0.270016 
0.024798 -0.270415 
0.014539 -0.260823 
0.042400 -0.284887 
0.034484 -0.278431 
0.035093 -0.285673 
0.000059 -0.262933 
0.002435 -0.265319 
-0.002070 -0.255705 
0.015484 -0.283100 
0.008461 -0.274607 
0.010685 -0.280884 
0.003410 -0.259007 
0.006026 -0.267340 
0.010930 -0.268940 
0.027917 -0.285584 
0.019423 -0.277918 
0.021286 -0.284696 
-0.000000 -0.122961 
0.000044 -0.140029 
0.006466 -0.124784 
-0.003825 -0.166226 
-0.002804 -0.153845 
-0.000000 -0.158864 
0.021579 -0.172171 
0.003989 -0.160237 
0.009812 -0.180600 
-0.003126 -0.201516 
-0.003510 -0.194818 
-0.000000 -0.199757 
-0.005543 -0.199564 
-0.006149 -0.194430 
-0.006813 -0.204687 
-0.000000 -0.183404 
-0.003832 -0.186724 
-0.004007 -0.177194 
0.042488 -0.245503 
0.026802 -0.234645 
0.030002 -0.248286 
0.016433 -0.200622 
0.022300 -0.218807 
0.037010 -0.214043 
0.003997 -0.224370 
0.011572 -0.222006 
0.000226 -0.209441 
-0.004485 -0.178988 
-0.002862 -0.193925 
0.001955 -0.187698 
0.000391 -0.210009 
-0.000058 -0.213106 
-0.000000 -0.209794 
-0.002302 -0.220165 
-0.000888 -0.216429 
-0.001047 -0.218680 
-0.000000 -0.214572 
-0.000509 -0.215031 
-0.000961 -0.215786 
-0.004776 -0.246362 
-0.005728 -0.237867 
-0.004668 -0.244653 
-0.006273 -0.224496 
-0.006298 -0.231035 
-0.006890 -0.230871 
-0.003908 -0.229557 
-0.005269 -0.230626 
-0.003933 -0.224776 
-0.000000 -0.209869 
-0.002289 -0.210936 
-0.002715 -0.206871 
-0.001411 -0.215366 
-0.001854 -0.213757 
-0.000000 -0.214668 
-0.006401 -0.216319 
-0.004223 -0.213988 
-0.005583 -0.218661 
-0.003493 -0.220632 
-0.004598 -0.220116 
-0.002623 -0.217411 
0.019633 -0.249701 
-0.001109 -0.226269 
0.007845 -0.238038 
0.011411 -0.250194 
0.005179 -0.250089 
-0.005546 -0.206258 
-0.007387 -0.221381 
-0.006975 -0.213155 
-0.007181 -0.209246 
-0.006078 -0.216159 
-0.004047 -0.247723 
0.000697 -0.249587 
-0.002295 -0.248790 
-0.005720 -0.239143 
-0.006903 -0.230229 
-0.004330 -0.227868 
-0.006140 -0.229201 
-0.001962 -0.239142 
-0.006466 -0.124784 
-0.000044 -0.140029 
-0.009812 -0.180600 
-0.003989 -0.160237 
-0.021579 -0.172171 
0.002804 -0.153845 
0.003825 -0.166226 
-0.030002 -0.248286 
-0.026802 -0.234645 
-0.042488 -0.245503 
-0.000226 -0.209441 
-0.011572 -0.222006 
-0.003997 -0.224370 
-0.037010 -0.214043 
-0.022300 -0.218807 
-0.016433 -0.200622 
0.003510 -0.194818 
0.003126 -0.201516 
0.004007 -0.177194 
0.003832 -0.186724 
0.006813 -0.204687 
0.006149 -0.194430 
0.005543 -0.199564 
-0.001955 -0.187698 
0.002862 -0.193925 
0.004485 -0.178988 
-0.037073 -0.307108 
-0.036492 -0.302326 
-0.042238 -0.307101 
-0.022864 -0.290539 
-0.030006 -0.296897 
-0.024239 -0.295654 
-0.041819 -0.297071 
-0.036001 -0.297360 
-0.035560 -0.291900 
0.002070 -0.255705 
-0.002435 -0.265319 
-0.000059 -0.262933 
-0.010930 -0.268940 
-0.006026 -0.267340 
-0.003410 -0.259007 
-0.010685 -0.280884 
-0.008461 -0.274607 
-0.015484 -0.283100 
-0.043189 -0.268386 
-0.033575 -0.269941 
-0.032164 -0.259971 
-0.035093 -0.285673 
-0.034484 -0.278431 
-0.042400 -0.284887 
-0.014539 -0.260823 
-0.024798 -0.270415 
-0.017197 -0.270016 
-0.021286 -0.284696 
-0.019423 -0.277918 
-0.027917 -0.285584 
0.000058 -0.213106 
-0.000391 -0.210009 
0.000961 -0.215786 
0.000509 -0.215031 
0.001047 -0.218680 
0.000888 -0.216429 
0.002302 -0.220165 
0.002715 -0.206871 
0.002289 -0.210936 
0.005583 -0.218661 
0.004223 -0.213988 
0.006401 -0.216319 
0.001854 -0.213757 
0.001411 -0.215366 
0.004668 -0.244653 
0.005728 -0.237867 
0.004776 -0.246362 
0.003933 -0.224776 
0.005269 -0.230626 
0.003908 -0.229557 
0.006890 -0.230871 
0.006298 -0.231035 
0.006273 -0.224496 
0.002623 -0.217411 
0.004598 -0.220116 
0.003493 -0.220632 
-0.019633 -0.249701 
-0.005179 -0.250089 
-0.011411 -0.250194 
-0.007845 -0.238038 
0.001109 -0.226269 
0.004047 -0.247723 
0.006903 -0.230229 
0.005720 -0.239143 
0.002295 -0.248790 
-0.000697 -0.249587 
0.005546 -0.206258 
0.006078 -0.216159 
0.007181 -0.209246 
0.006975 -0.213155 
0.007387 -0.221381 
0.001962 -0.239142 
0.006140 -0.229201 
0.004330 -0.227868 
-0.037774 -0.312013 
-0.031821 -0.306313 
-0.022048 -0.302035 
-0.026727 -0.304629 
-0.028021 -0.309015 
-0.025497 -0.300268 
-0.019013 -0.293647 
-0.011353 -0.283411 
-0.012585 -0.289151 
-0.014821 -0.290972 
-0.008496 -0.283509 
-0.010513 -0.286678 
-0.007010 -0.278940 
-0.019840 -0.301892 
-0.014826 -0.294229 
-0.018021 -0.298550 
-0.002230 -0.269332 
0.001221 -0.260201 
-0.012705 -0.286277 
-0.006976 -0.278125 
-0.002851 -0.271186 
-0.004375 -0.274880 
-0.006463 -0.279593 
-0.016298 -0.294954 
-0.011021 -0.287519 
-0.014555 -0.290918 
-0.031149 -0.222295 
-0.026744 -0.231065 
-0.030260 -0.227521 
-0.020411 -0.233965 
-0.023469 -0.233140 
-0.024474 -0.225742 
-0.022253 -0.245024 
-0.022665 -0.239532 
-0.019020 -0.247702 
-0.010192 -0.228558 
-0.012442 -0.230873 
-0.013414 -0.221618 
-0.010798 -0.248013 
-0.011497 -0.239676 
-0.008470 -0.246135 
-0.018566 -0.225031 
-0.014899 -0.232655 
-0.017557 -0.233743 
-0.013724 -0.277233 
-0.011875 -0.270316 
-0.011131 -0.277104 
-0.015927 -0.255571 
-0.013508 -0.263120 
-0.016432 -0.261688 
-0.008396 -0.262304 
-0.010849 -0.263272 
-0.010531 -0.255871 
-0.016656 -0.241713 
-0.013323 -0.249009 
-0.016056 -0.248964 
-0.000919 -0.210930 
-0.000891 -0.205700 
0.000925 -0.221641 
-0.000253 -0.216140 
-0.002931 -0.207788 
-0.001585 -0.212516 
-0.002435 -0.214655 
0.003234 -0.251132 
0.003880 -0.242527 
0.000757 -0.236713 
0.002540 -0.239906 
0.001295 -0.244977 
0.003430 -0.234689 
0.002293 -0.227748 
-0.009073 -0.216806 
-0.006365 -0.222981 
-0.008162 -0.225874 
-0.003503 -0.217212 
-0.004811 -0.220040 
-0.005592 -0.211817 
-0.002769 -0.236734 
-0.003776 -0.228317 
-0.001376 -0.232873 
0.000486 -0.225128 
-0.000284 -0.228939 
-0.001462 -0.221633 
-0.008765 -0.275952 
-0.006112 -0.260348 
-0.007032 -0.268305 
-0.006542 -0.273859 
-0.004407 -0.270881 
-0.007168 -0.234781 
-0.002092 -0.245298 
-0.004435 -0.240342 
-0.006343 -0.243528 
-0.005927 -0.252072 
0.001533 -0.257109 
-0.002339 -0.267062 
-0.000346 -0.262450 
0.001004 -0.253626 
-0.000243 -0.249707 
-0.003983 -0.257521 
-0.002017 -0.253934 
-0.002750 -0.262510 
-0.039349 -0.209351 
-0.035642 -0.213250 
-0.044752 -0.194094 
-0.040211 -0.203866 
-0.048665 -0.190298 
-0.032082 -0.215739 
-0.028680 -0.217024 
-0.060236 -0.150283 
-0.057030 -0.162033 
-0.064561 -0.148017 
-0.041236 -0.187511 
-0.049156 -0.175301 
-0.045030 -0.176395 
-0.057401 -0.169930 
-0.053286 -0.173220 
-0.049150 -0.183892 
-0.019455 -0.215584 
-0.016726 -0.213919 
-0.025439 -0.217305 
-0.022362 -0.216767 
-0.029976 -0.198139 
-0.026201 -0.207818 
-0.033517 -0.198414 
-0.040917 -0.196579 
-0.037168 -0.197955 
-0.032945 -0.207776 
-0.026532 -0.020730 
-0.044397 -0.043552 
-0.038979 -0.031647 
-0.048501 -0.074463 
-0.047840 -0.058546 
-0.041710 -0.055721 
-0.061136 -0.068958 
-0.054529 -0.062930 
-0.060488 -0.080295 
-0.034406 -0.135085 
-0.039426 -0.121033 
-0.034706 -0.119980 
-0.049341 -0.123120 
-0.044321 -0.122096 
-0.043693 -0.137118 
-0.041661 -0.089135 
-0.043742 -0.106087 
-0.046936 -0.090463 
-0.068935 -0.124271 
-0.064326 -0.124843 
-0.062737 -0.137910 
-0.063631 -0.096205 
-0.064742 -0.110987 
-0.068794 -0.098268 
-0.053311 -0.138433 
-0.059448 -0.124664 
-0.054415 -0.124021 
-0.052457 -0.092103 
-0.054258 -0.108604 
-0.058093 -0.094056 
-0.002817 -0.200799 
-0.001418 -0.200151 
-0.005926 -0.203526 
-0.004305 -0.201951 
-0.006789 -0.186845 
-0.005596 -0.194974 
-0.009186 -0.188051 
-0.014182 -0.211928 
-0.011830 -0.209756 
-0.017178 -0.192834 
-0.014557 -0.201779 
-0.020151 -0.194509 
-0.009673 -0.207546 
-0.007709 -0.205428 
-0.024951 -0.146929 
-0.023593 -0.159936 
-0.029031 -0.148089 
-0.013480 -0.179929 
-0.018341 -0.170560 
-0.015040 -0.169268 
-0.025365 -0.173291 
-0.021781 -0.171927 
-0.019613 -0.182890 
-0.009763 -0.198000 
-0.014363 -0.191131 
-0.011703 -0.189506 
-0.055778 -0.151500 
-0.046662 -0.151747 
-0.051235 -0.151918 
-0.048414 -0.164550 
-0.040933 -0.176700 
-0.033263 -0.149229 
-0.029088 -0.174562 
-0.031442 -0.162388 
-0.037633 -0.150280 
-0.042112 -0.151155 
-0.020047 -0.205409 
-0.033579 -0.187681 
-0.026559 -0.197296 
-0.023281 -0.196039 
-0.026329 -0.185770 
-0.039787 -0.164235 
-0.032936 -0.175637 
-0.036893 -0.176395 
0.000000 0.000000 
-0.020976 -0.018072 
-0.014860 -0.016929 
-0.017470 -0.017234 
0.000000 0.000000 
-0.031423 -0.036300 
-0.036379 -0.054069 
-0.008008 -0.016813 
-0.009400 -0.016798 
0.000000 0.000000 
-0.023840 -0.052035 
-0.017390 -0.034258 
-0.020445 -0.051718 
0.000000 0.000000 
-0.010961 -0.016793 
-0.012750 -0.016821 
-0.033979 -0.103973 
-0.030183 -0.118966 
-0.037751 -0.071375 
-0.036692 -0.088064 
-0.027681 -0.086432 
-0.032037 -0.087180 
-0.028702 -0.069782 
-0.023371 -0.034715 
-0.027571 -0.052461 
-0.031714 -0.053085 
-0.000000 -0.016772 
-0.000839 -0.016820 
0.000000 0.000000 
-0.002218 -0.050563 
-0.001589 -0.033717 
-0.000000 -0.050450 
0.000000 0.000000 
-0.001703 -0.016842 
-0.002600 -0.016851 
-0.003427 -0.114387 
-0.003314 -0.099271 
-0.000000 -0.114228 
-0.008293 -0.067557 
-0.006197 -0.083701 
-0.009387 -0.083974 
-0.000000 -0.083354 
-0.003080 -0.083496 
-0.002716 -0.067208 
0.000000 0.000000 
-0.005598 -0.016843 
-0.006749 -0.016830 
-0.003539 -0.016854 
-0.004534 -0.016851 
0.000000 0.000000 
-0.011742 -0.051076 
-0.008476 -0.033937 
-0.009204 -0.050921 
-0.004472 -0.050670 
-0.006790 -0.050787 
-0.004883 -0.033830 
-0.001842 -0.193363 
-0.000000 -0.200014 
-0.007866 -0.177567 
-0.004484 -0.185946 
-0.000000 -0.185201 
-0.002233 -0.185392 
-0.002589 -0.176255 
-0.025748 -0.132935 
-0.021029 -0.145806 
-0.013628 -0.143856 
-0.017259 -0.144769 
-0.017783 -0.131014 
-0.016321 -0.157538 
-0.011867 -0.168117 
-0.000000 -0.141976 
-0.003332 -0.142146 
-0.003429 -0.128715 
-0.002899 -0.165976 
-0.003151 -0.154589 
-0.000000 -0.165794 
-0.010412 -0.129557 
-0.006693 -0.142524 
-0.010115 -0.143100 
-0.008803 -0.167160 
-0.009565 -0.155655 
-0.005823 -0.166437 
-0.012561 -0.034065 
-0.014295 -0.068073 
-0.014438 -0.051256 
-0.017326 -0.051466 
-0.020999 -0.068786 
-0.006886 -0.114682 
-0.014049 -0.115672 
-0.010416 -0.115113 
-0.010086 -0.099875 
-0.012688 -0.084318 
-0.025866 -0.118012 
-0.023598 -0.085785 
-0.025188 -0.102251 
-0.021750 -0.117135 
-0.017818 -0.116350 
-0.016134 -0.084734 
-0.017291 -0.100879 
-0.019760 -0.085222 
0.000000 0.000000 
0.000839 -0.016820 
0.002600 -0.016851 
0.001703 -0.016842 
0.000000 0.000000 
0.001589 -0.033717 
0.002218 -0.050563 
0.006749 -0.016830 
0.005598 -0.016843 
0.000000 0.000000 
0.009204 -0.050921 
0.008476 -0.033937 
0.011742 -0.051076 
0.000000 0.000000 
0.004534 -0.016851 
0.003539 -0.016854 
0.003314 -0.099271 
0.003427 -0.114387 
0.002716 -0.067208 
0.003080 -0.083496 
0.009387 -0.083974 
0.006197 -0.083701 
0.008293 -0.067557 
0.004883 -0.033830 
0.006790 -0.050787 
0.004472 -0.050670 
0.026532 -0.020730 
0.020976 -0.018072 
0.000000 0.000000 
0.036379 -0.054069 
0.031423 -0.036300 
0.041710 -0.055721 
0.000000 0.000000 
0.017470 -0.017234 
0.014860 -0.016929 
0.030183 -0.118966 
0.033979 -0.103973 
0.034706 -0.119980 
0.028702 -0.069782 
0.032037 -0.087180 
0.027681 -0.086432 
0.041661 -0.089135 
0.036692 -0.088064 
0.037751 -0.071375 
0.000000 0.000000 
0.009400 -0.016798 
0.008008 -0.016813 
0.012750 -0.016821 
0.010961 -0.016793 
0.000000 0.000000 
0.020445 -0.051718 
0.017390 -0.034258 
0.023840 -0.052035 
0.031714 -0.053085 
0.027571 -0.052461 
0.023371 -0.034715 
0.001842 -0.193363 
0.001418 -0.200151 
0.002589 -0.176255 
0.002233 -0.185392 
0.006789 -0.186845 
0.004484 -0.185946 
0.007866 -0.177567 
0.003429 -0.128715 
0.003332 -0.142146 
0.010115 -0.143100 
0.006693 -0.142524 
0.010412 -0.129557 
0.003151 -0.154589 
0.002899 -0.165976 
0.024951 -0.146929 
0.021029 -0.145806 
0.025748 -0.132935 
0.011867 -0.168117 
0.016321 -0.157538 
0.015040 -0.169268 
0.017783 -0.131014 
0.017259 -0.144769 
0.013628 -0.143856 
0.005823 -0.166437 
0.009565 -0.155655 
0.008803 -0.167160 
0.012561 -0.034065 
0.020999 -0.068786 
0.017326 -0.051466 
0.014438 -0.051256 
0.014295 -0.068073 
0.025866 -0.118012 
0.017818 -0.116350 
0.021750 -0.117135 
0.025188 -0.102251 
0.023598 -0.085785 
0.006886 -0.114682 
0.012688 -0.084318 
0.010086 -0.099875 
0.010416 -0.115113 
0.014049 -0.115672 
0.019760 -0.085222 
0.017291 -0.100879 
0.016134 -0.084734 
0.038979 -0.031647 
0.044397 -0.043552 
0.060488 -0.080295 
0.054529 -0.062930 
0.061136 -0.068958 
0.047840 -0.058546 
0.048501 -0.074463 
0.062737 -0.137910 
0.064326 -0.124843 
0.068935 -0.124271 
0.054415 -0.124021 
0.059448 -0.124664 
0.053311 -0.138433 
0.068794 -0.098268 
0.064742 -0.110987 
0.063631 -0.096205 
0.039426 -0.121033 
0.034406 -0.135085 
0.046936 -0.090463 
0.043742 -0.106087 
0.043693 -0.137118 
0.044321 -0.122096 
0.049341 -0.123120 
0.058093 -0.094056 
0.054258 -0.108604 
0.052457 -0.092103 
0.031149 -0.222295 
0.035642 -0.213250 
0.039349 -0.209351 
0.028680 -0.217024 
0.032082 -0.215739 
0.024474 -0.225742 
0.048665 -0.190298 
0.040211 -0.203866 
0.044752 -0.194094 
0.016726 -0.213919 
0.019455 -0.215584 
0.013414 -0.221618 
0.033517 -0.198414 
0.026201 -0.207818 
0.029976 -0.198139 
0.018566 -0.225031 
0.022362 -0.216767 
0.025439 -0.217305 
0.064561 -0.148017 
0.057030 -0.162033 
0.060236 -0.150283 
0.049150 -0.183892 
0.053286 -0.173220 
0.057401 -0.169930 
0.045030 -0.176395 
0.049156 -0.175301 
0.041236 -0.187511 
0.032945 -0.207776 
0.037168 -0.197955 
0.040917 -0.196579 
0.002817 -0.200799 
0.000891 -0.205700 
0.009186 -0.188051 
0.005596 -0.194974 
0.002931 -0.207788 
0.004305 -0.201951 
0.005926 -0.203526 
0.029031 -0.148089 
0.023593 -0.159936 
0.019613 -0.182890 
0.021781 -0.171927 
0.025365 -0.173291 
0.018341 -0.170560 
0.013480 -0.179929 
0.009073 -0.216806 
0.011830 -0.209756 
0.014182 -0.211928 
0.007709 -0.205428 
0.009673 -0.207546 