# vtk DataFile Version 2.0
Unstructured Grid Example
ASCII
DATASET UNSTRUCTURED_GRID

POINTS 1089 float
0.016568 -0.209803 0.000000 
0.983432 -0.209803 0.000000 
1.000000 1.000000 0.000000 
0.000000 1.000000 0.000000 
0.500000 -0.100000 0.000000 
0.954004 0.351303 0.000000 
0.500000 1.000000 0.000000 
0.045996 0.351303 0.000000 
0.500000 0.352528 0.000000 
0.266252 -0.215463 0.000000 
0.500000 0.058946 0.000000 
0.265941 0.053514 0.000000 
0.733748 -0.215463 0.000000 
0.734059 0.053514 0.000000 
0.968872 0.058424 0.000000 
0.728268 0.350172 0.000000 
0.951968 0.661490 0.000000 
0.732054 0.668841 0.000000 
0.750000 1.000000 0.000000 
0.500000 0.669808 0.000000 
0.250000 1.000000 0.000000 
0.267946 0.668841 0.000000 
0.048032 0.661490 0.000000 
0.271732 0.350172 0.000000 
0.031128 0.058424 0.000000 
0.141062 -0.214585 0.000000 
0.264293 -0.085142 0.000000 
0.144262 -0.084675 0.000000 
0.500000 -0.074245 0.000000 
0.382743 -0.080352 0.000000 
0.394245 -0.205755 0.000000 
0.384145 0.200906 0.000000 
0.382501 0.056582 0.000000 
0.500000 0.202089 0.000000 
0.605755 -0.205755 0.000000 
0.617257 -0.080352 0.000000 
0.855738 -0.084675 0.000000 
0.735707 -0.085142 0.000000 
0.858938 -0.214585 0.000000 
0.617499 0.056582 0.000000 
0.615855 0.200906 0.000000 
0.976704 -0.079606 0.000000 
0.851058 0.053505 0.000000 
0.840949 0.348956 0.000000 
0.845533 0.198310 0.000000 
0.960780 0.202413 0.000000 
0.730812 0.198781 0.000000 
0.614653 0.351891 0.000000 
0.950149 0.504178 0.000000 
0.839514 0.505150 0.000000 
0.856222 0.832827 0.000000 
0.843705 0.666704 0.000000 
0.963433 0.824051 0.000000 
0.728252 0.507168 0.000000 
0.614830 0.508526 0.000000 
0.875000 1.000000 0.000000 
0.739933 0.833677 0.000000 
0.500000 0.833762 0.000000 
0.620488 0.833744 0.000000 
0.625000 1.000000 0.000000 
0.616831 0.669580 0.000000 
0.500000 0.509011 0.000000 
0.375000 1.000000 0.000000 
0.379512 0.833744 0.000000 
0.143778 0.832827 0.000000 
0.260067 0.833677 0.000000 
0.125000 1.000000 0.000000 
0.383169 0.669580 0.000000 
0.385170 0.508526 0.000000 
0.036567 0.824051 0.000000 
0.156295 0.666704 0.000000 
0.159051 0.348956 0.000000 
0.160486 0.505150 0.000000 
0.049851 0.504178 0.000000 
0.271748 0.507168 0.000000 
0.385347 0.351891 0.000000 
0.039220 0.202413 0.000000 
0.154467 0.198310 0.000000 
0.148942 0.053505 0.000000 
0.023296 -0.079606 0.000000 
0.269188 0.198781 0.000000 
0.078737 -0.212506 0.000000 
0.142554 -0.150800 0.000000 
0.081145 -0.148753 0.000000 
0.264896 -0.151573 0.000000 
0.203835 -0.151795 0.000000 
0.203539 -0.215639 0.000000 
0.205739 -0.017152 0.000000 
0.204465 -0.085507 0.000000 
0.264740 -0.016690 0.000000 
0.500000 -0.122589 0.000000 
0.448498 -0.141683 0.000000 
0.435771 -0.139324 0.000000 
0.440897 -0.010611 0.000000 
0.441558 -0.077397 0.000000 
0.500000 -0.009226 0.000000 
0.329539 -0.213431 0.000000 
0.386160 -0.145313 0.000000 
0.325601 -0.149704 0.000000 
0.442343 0.276294 0.000000 
0.441971 0.201767 0.000000 
0.500000 0.276509 0.000000 
0.324185 0.054823 0.000000 
0.383295 0.127861 0.000000 
0.325339 0.126491 0.000000 
0.500000 0.129489 0.000000 
0.441521 0.129012 0.000000 
0.441090 0.058182 0.000000 
0.323678 -0.083421 0.000000 
0.382085 -0.012857 0.000000 
0.323450 -0.015167 0.000000 
0.564229 -0.139324 0.000000 
0.551502 -0.141683 0.000000 
0.674399 -0.149704 0.000000 
0.613840 -0.145313 0.000000 
0.670461 -0.213431 0.000000 
0.558442 -0.077397 0.000000 
0.559103 -0.010611 0.000000 
0.918855 -0.148753 0.000000 
0.857446 -0.150800 0.000000 
0.921263 -0.212506 0.000000 
0.735260 -0.016690 0.000000 
0.795535 -0.085507 0.000000 
0.794261 -0.017152 0.000000 
0.796461 -0.215639 0.000000 
0.796165 -0.151795 0.000000 
0.735104 -0.151573 0.000000 
0.558029 0.201767 0.000000 
0.557657 0.276294 0.000000 
0.558910 0.058182 0.000000 
0.558479 0.129012 0.000000 
0.674661 0.126491 0.000000 
0.616705 0.127861 0.000000 
0.675815 0.054823 0.000000 
0.676322 -0.083421 0.000000 
0.676550 -0.015167 0.000000 
0.617915 -0.012857 0.000000 
0.980271 -0.145815 0.000000 
0.916190 -0.082709 0.000000 
0.909910 0.055222 0.000000 
0.913194 -0.014633 0.000000 
0.972888 -0.011440 0.000000 
0.853596 -0.016492 0.000000 
0.792438 0.053005 0.000000 
0.897323 0.349361 0.000000 
0.899961 0.273818 0.000000 
0.957099 0.276274 0.000000 
0.786175 0.273046 0.000000 
0.843004 0.272931 0.000000 
0.784666 0.349370 0.000000 
0.964776 0.129763 0.000000 
0.903084 0.199563 0.000000 
0.906474 0.126665 0.000000 
0.615129 0.275622 0.000000 
0.557410 0.352434 0.000000 
0.732472 0.125356 0.000000 
0.673428 0.199798 0.000000 
0.671616 0.351081 0.000000 
0.672351 0.274688 0.000000 
0.729336 0.273738 0.000000 
0.848296 0.125143 0.000000 
0.788137 0.198177 0.000000 
0.790309 0.124810 0.000000 
0.951505 0.427181 0.000000 
0.895453 0.426171 0.000000 
0.895362 0.583675 0.000000 
0.894688 0.504265 0.000000 
0.950173 0.582268 0.000000 
0.839697 0.426370 0.000000 
0.783914 0.427113 0.000000 
0.923670 0.915594 0.000000 
0.911266 0.830560 0.000000 
0.975715 0.908775 0.000000 
0.788450 0.668063 0.000000 
0.848804 0.749324 0.000000 
0.792873 0.750478 0.000000 
0.956093 0.741971 0.000000 
0.902937 0.746742 0.000000 
0.897912 0.664469 0.000000 
0.614528 0.429575 0.000000 
0.557340 0.430019 0.000000 
0.727855 0.428017 0.000000 
0.671394 0.428878 0.000000 
0.672905 0.588147 0.000000 
0.671795 0.507949 0.000000 
0.729619 0.587499 0.000000 
0.840731 0.585274 0.000000 
0.785574 0.586568 0.000000 
0.784134 0.506207 0.000000 
0.937500 1.000000 0.000000 
0.865462 0.916574 0.000000 
0.744889 0.916719 0.000000 
0.805516 0.916727 0.000000 
0.812500 1.000000 0.000000 
0.798722 0.833487 0.000000 
0.735547 0.750981 0.000000 
0.500000 0.916630 0.000000 
0.561382 0.916632 0.000000 
0.562500 1.000000 0.000000 
0.559327 0.751420 0.000000 
0.560303 0.833751 0.000000 
0.500000 0.751455 0.000000 
0.687500 1.000000 0.000000 
0.622704 0.916650 0.000000 
0.683903 0.916682 0.000000 
0.557504 0.508881 0.000000 
0.500000 0.430160 0.000000 
0.674758 0.669300 0.000000 
0.615598 0.588584 0.000000 
0.500000 0.588944 0.000000 
0.557895 0.588843 0.000000 
0.558510 0.669741 0.000000 
0.680424 0.833730 0.000000 
0.618490 0.751349 0.000000 
0.677308 0.751221 0.000000 
0.437500 1.000000 0.000000 
0.438618 0.916632 0.000000 
0.316097 0.916682 0.000000 
0.377296 0.916650 0.000000 
0.312500 1.000000 0.000000 
0.439697 0.833751 0.000000 
0.440673 0.751420 0.000000 
0.076330 0.915594 0.000000 
0.134538 0.916574 0.000000 
0.062500 1.000000 0.000000 
0.264453 0.750981 0.000000 
0.201278 0.833487 0.000000 
0.207127 0.750478 0.000000 
0.187500 1.000000 0.000000 
0.194484 0.916727 0.000000 
0.255111 0.916719 0.000000 
0.442496 0.508881 0.000000 
0.442660 0.430019 0.000000 
0.441490 0.669741 0.000000 
0.442105 0.588843 0.000000 
0.327095 0.588147 0.000000 
0.384402 0.588584 0.000000 
0.325242 0.669300 0.000000 
0.319576 0.833730 0.000000 
0.322692 0.751221 0.000000 
0.381510 0.751349 0.000000 
0.024285 0.908775 0.000000 
0.088734 0.830560 0.000000 
0.102088 0.664469 0.000000 
0.097063 0.746742 0.000000 
0.043907 0.741971 0.000000 
0.151196 0.749324 0.000000 
0.211550 0.668063 0.000000 
0.102677 0.349361 0.000000 
0.104547 0.426171 0.000000 
0.048495 0.427181 0.000000 
0.216086 0.427113 0.000000 
0.160303 0.426370 0.000000 
0.215334 0.349370 0.000000 
0.049827 0.582268 0.000000 
0.105312 0.504265 0.000000 
0.104638 0.583675 0.000000 
0.385472 0.429575 0.000000 
0.442590 0.352434 0.000000 
0.270381 0.587499 0.000000 
0.328205 0.507949 0.000000 
0.328384 0.351081 0.000000 
0.328606 0.428878 0.000000 
0.272145 0.428017 0.000000 
0.159269 0.585274 0.000000 
0.215866 0.506207 0.000000 
0.214426 0.586568 0.000000 
0.042901 0.276274 0.000000 
0.100039 0.273818 0.000000 
0.093526 0.126665 0.000000 
0.096916 0.199563 0.000000 
0.035224 0.129763 0.000000 
0.156996 0.272931 0.000000 
0.213825 0.273046 0.000000 
0.083810 -0.082709 0.000000 
0.019729 -0.145815 0.000000 
0.207562 0.053005 0.000000 
0.146404 -0.016492 0.000000 
0.027112 -0.011440 0.000000 
0.086806 -0.014633 0.000000 
0.090090 0.055222 0.000000 
0.384871 0.275622 0.000000 
0.270664 0.273738 0.000000 
0.327649 0.274688 0.000000 
0.326572 0.199798 0.000000 
0.267528 0.125356 0.000000 
0.151704 0.125143 0.000000 
0.209691 0.124810 0.000000 
0.211863 0.198177 0.000000 
0.047642 -0.211173 0.000000 
0.079923 -0.180926 0.000000 
0.048980 -0.179581 0.000000 
0.141808 -0.183002 0.000000 
0.110865 -0.182081 0.000000 
0.109879 -0.213661 0.000000 
0.112916 -0.117139 0.000000 
0.111861 -0.149899 0.000000 
0.143360 -0.118012 0.000000 
0.265543 -0.183875 0.000000 
0.234623 -0.184132 0.000000 
0.234852 -0.215725 0.000000 
0.234317 -0.118949 0.000000 
0.234401 -0.151853 0.000000 
0.264458 -0.118637 0.000000 
0.172280 -0.215251 0.000000 
0.203690 -0.184047 0.000000 
0.172750 -0.183663 0.000000 
0.235967 0.017832 0.000000 
0.235282 -0.017058 0.000000 
0.265270 0.018202 0.000000 
0.174403 -0.085235 0.000000 
0.205022 -0.051568 0.000000 
0.175191 -0.051340 0.000000 
0.264398 -0.051146 0.000000 
0.234759 -0.051505 0.000000 
0.234432 -0.085482 0.000000 
0.173215 -0.151438 0.000000 
0.204075 -0.118932 0.000000 
0.173751 -0.118614 0.000000 
0.500000 -0.101020 0.000000 
0.468372 -0.119162 0.000000 
0.471084 -0.128916 0.000000 
0.469887 -0.109862 0.000000 
0.466225 -0.106491 0.000000 
0.500000 -0.103162 0.000000 
0.421802 -0.178198 0.000000 
0.441533 -0.144453 0.000000 
0.418624 -0.172809 0.000000 
0.470423 0.024193 0.000000 
0.470389 -0.009778 0.000000 
0.500000 0.024538 0.000000 
0.412226 -0.078722 0.000000 
0.441049 -0.044241 0.000000 
0.411630 -0.045458 0.000000 
0.500000 -0.042247 0.000000 
0.470447 -0.043235 0.000000 
0.470591 -0.076341 0.000000 
0.297789 -0.214764 0.000000 
0.327254 -0.181944 0.000000 
0.296433 -0.183198 0.000000 
0.388406 -0.176341 0.000000 
0.357937 -0.179816 0.000000 
0.361608 -0.210979 0.000000 
0.354191 -0.115243 0.000000 
0.355831 -0.147863 0.000000 
0.383946 -0.113248 0.000000 
0.442857 -0.110134 0.000000 
0.413651 -0.111356 0.000000 
0.416966 -0.142875 0.000000 
[...]
POINT_DATA 1089

SCALARS u_h float 2
LOOKUP_TABLE default
0.016568 -0.209803 
-0.016568 -0.209803 
0.000000 0.000000 
0.000000 0.000000 
-0.000000 -0.100000 
-0.045996 -0.148697 
0.000000 0.000000 
0.045996 -0.148697 
-0.000000 -0.147472 
0.016252 -0.215463 
-0.000000 -0.191054 
0.015941 -0.196486 
-0.016252 -0.215463 
-0.015941 -0.196486 
-0.031128 -0.191576 
-0.021732 -0.149828 
-0.048032 -0.088510 
-0.017946 -0.081159 
0.000000 0.000000 
-0.000000 -0.080192 
0.000000 0.000000 
0.017946 -0.081159 
0.048032 -0.088510 
0.021732 -0.149828 
0.031128 -0.191576 
0.016062 -0.214585 
0.014293 -0.210142 
0.019262 -0.209675 
-0.000000 -0.199245 
0.007743 -0.205352 
0.019245 -0.205755 
0.009145 -0.174094 
0.007501 -0.193418 
-0.000000 -0.172911 
-0.019245 -0.205755 
-0.007743 -0.205352 
-0.019262 -0.209675 
-0.014293 -0.210142 
-0.016062 -0.214585 
-0.007501 -0.193418 
-0.009145 -0.174094 
-0.023296 -0.204606 
-0.023942 -0.196495 
-0.034051 -0.151044 
-0.029467 -0.176690 
-0.039220 -0.172587 
-0.019188 -0.176219 
-0.010347 -0.148109 
-0.049851 -0.120822 
-0.035486 -0.119850 
-0.018778 -0.042173 
-0.031295 -0.083296 
-0.036567 -0.050949 
-0.021748 -0.117832 
-0.010170 -0.116474 
0.000000 0.000000 
-0.010067 -0.041323 
-0.000000 -0.041238 
-0.004512 -0.041256 
0.000000 0.000000 
-0.008169 -0.080420 
-0.000000 -0.115989 
0.000000 0.000000 
0.004512 -0.041256 
0.018778 -0.042173 
0.010067 -0.041323 
0.000000 0.000000 
0.008169 -0.080420 
0.010170 -0.116474 
0.036567 -0.050949 
0.031295 -0.083296 
0.034051 -0.151044 
0.035486 -0.119850 
0.049851 -0.120822 
0.021748 -0.117832 
0.010347 -0.148109 
0.039220 -0.172587 
0.029467 -0.176690 
0.023942 -0.196495 
0.023296 -0.204606 
0.019188 -0.176219 
0.016237 -0.212506 
0.017554 -0.213300 
0.018645 -0.211253 
0.014896 -0.214073 
0.016335 -0.214295 
0.016039 -0.215639 
0.018239 -0.204652 
0.016965 -0.210507 
0.014740 -0.204190 
-0.000000 -0.185089 
0.010998 -0.204183 
-0.001729 -0.139324 
0.003397 -0.198111 
0.004058 -0.202397 
-0.000000 -0.196726 
0.017039 -0.213431 
0.011160 -0.207813 
0.013101 -0.212204 
0.004843 -0.161206 
0.004471 -0.173233 
-0.000000 -0.160991 
0.011685 -0.195177 
0.008295 -0.184639 
0.012839 -0.186009 
-0.000000 -0.183011 
0.004021 -0.183488 
0.003590 -0.191818 
0.011178 -0.208421 
0.007085 -0.200357 
0.010950 -0.202667 
0.001729 -0.139324 
-0.010998 -0.204183 
-0.013101 -0.212204 
-0.011160 -0.207813 
-0.017039 -0.213431 
-0.004058 -0.202397 
-0.003397 -0.198111 
-0.018645 -0.211253 
-0.017554 -0.213300 
-0.016237 -0.212506 
-0.014740 -0.204190 
-0.016965 -0.210507 
-0.018239 -0.204652 
-0.016039 -0.215639 
-0.016335 -0.214295 
-0.014896 -0.214073 
-0.004471 -0.173233 
-0.004843 -0.161206 
-0.003590 -0.191818 
-0.004021 -0.183488 
-0.012839 -0.186009 
-0.008295 -0.184639 
-0.011685 -0.195177 
-0.011178 -0.208421 
-0.010950 -0.202667 
-0.007085 -0.200357 
-0.019729 -0.208315 
-0.021310 -0.207709 
-0.027590 -0.194778 
-0.024306 -0.202133 
-0.027112 -0.198940 
-0.021404 -0.203992 
-0.020062 -0.196995 
-0.040177 -0.150639 
-0.037539 -0.163682 
-0.042901 -0.161226 
-0.026325 -0.164454 
-0.031996 -0.164569 
-0.027834 -0.150630 
-0.035224 -0.182737 
-0.034416 -0.175437 
-0.031026 -0.185835 
-0.009871 -0.161878 
-0.005090 -0.147566 
-0.017528 -0.187144 
-0.014072 -0.175202 
-0.015884 -0.148919 
-0.015149 -0.162812 
-0.020664 -0.163762 
-0.026704 -0.187357 
-0.024363 -0.176823 
-0.022191 -0.187690 
-0.048495 -0.135319 
-0.042047 -0.136329 
-0.042138 -0.103825 
-0.042812 -0.120735 
-0.049827 -0.105232 
-0.035303 -0.136130 
-0.028586 -0.135387 
-0.013830 -0.021906 
-0.026234 -0.044440 
-0.024285 -0.028725 
-0.024050 -0.081937 
-0.026196 -0.063176 
-0.019627 -0.062022 
-0.043907 -0.070529 
-0.034563 -0.065758 
-0.039588 -0.085531 
-0.010472 -0.132925 
-0.005160 -0.132481 
-0.022145 -0.134483 
-0.016106 -0.133622 
-0.014595 -0.099353 
-0.015705 -0.117051 
-0.020381 -0.100001 
-0.034269 -0.102226 
-0.026926 -0.100932 
-0.028366 -0.118793 
0.000000 0.000000 
-0.009538 -0.020926 
-0.005111 -0.020781 
-0.006984 -0.020773 
0.000000 0.000000 
-0.013778 -0.041513 
-0.014453 -0.061519 
-0.000000 -0.020870 
-0.001118 -0.020868 
0.000000 0.000000 
-0.003173 -0.061080 
-0.002197 -0.041249 
-0.000000 -0.061045 
0.000000 0.000000 
-0.002296 -0.020850 
-0.003597 -0.020818 
-0.004996 -0.116119 
-0.000000 -0.132340 
-0.012742 -0.080700 
-0.009402 -0.098916 
-0.000000 -0.098556 
-0.004605 -0.098657 
-0.003990 -0.080259 
-0.007076 -0.041270 
-0.006510 -0.061151 
-0.010192 -0.061279 
0.000000 0.000000 
0.001118 -0.020868 
0.003597 -0.020818 
0.002296 -0.020850 
0.000000 0.000000 
0.002197 -0.041249 
0.003173 -0.061080 
0.013830 -0.021906 
0.009538 -0.020926 
0.000000 0.000000 
0.014453 -0.061519 
0.013778 -0.041513 
0.019627 -0.062022 
0.000000 0.000000 
0.006984 -0.020773 
0.005111 -0.020781 
0.004996 -0.116119 
0.005160 -0.132481 
0.003990 -0.080259 
0.004605 -0.098657 
0.014595 -0.099353 
0.009402 -0.098916 
0.012742 -0.080700 
0.007076 -0.041270 
0.010192 -0.061279 
0.006510 -0.061151 
0.024285 -0.028725 
0.026234 -0.044440 
0.039588 -0.085531 
0.034563 -0.065758 
0.043907 -0.070529 
0.026196 -0.063176 
0.024050 -0.081937 
0.040177 -0.150639 
0.042047 -0.136329 
0.048495 -0.135319 
0.028586 -0.135387 
0.035303 -0.136130 
0.027834 -0.150630 
0.049827 -0.105232 
0.042812 -0.120735 
0.042138 -0.103825 
0.010472 -0.132925 
0.005090 -0.147566 
0.020381 -0.100001 
0.015705 -0.117051 
0.015884 -0.148919 
0.016106 -0.133622 
0.022145 -0.134483 
0.034269 -0.102226 
0.028366 -0.118793 
0.026926 -0.100932 
0.042901 -0.161226 
0.037539 -0.163682 
0.031026 -0.185835 
0.034416 -0.175437 
0.035224 -0.182737 
0.031996 -0.164569 
0.026325 -0.164454 
0.021310 -0.207709 
0.019729 -0.208315 
0.020062 -0.196995 
0.021404 -0.203992 
0.027112 -0.198940 
0.024306 -0.202133 
0.027590 -0.194778 
0.009871 -0.161878 
0.020664 -0.163762 
0.015149 -0.162812 
0.014072 -0.175202 
0.017528 -0.187144 
0.026704 -0.187357 
0.022191 -0.187690 
0.024363 -0.176823 
0.016392 -0.211173 
0.017423 -0.212176 
0.017730 -0.210831 
0.016808 -0.214252 
0.017115 -0.213331 
0.016129 -0.213661 
0.019166 -0.210889 
0.018111 -0.212399 
0.018360 -0.211762 
0.015543 -0.215125 
0.015873 -0.215382 
0.016102 -0.215725 
0.015567 -0.212699 
0.015651 -0.214353 
0.014458 -0.212387 
0.016030 -0.215251 
0.016190 -0.215297 
0.016500 -0.214913 
0.017217 -0.200918 
0.016532 -0.204558 
0.015270 -0.200548 
0.018153 -0.210235 
0.017522 -0.207818 
0.018941 -0.207590 
0.014398 -0.207396 
0.016009 -0.207755 
0.015682 -0.210482 
0.016965 -0.213938 
0.016575 -0.212682 
0.017501 -0.212364 
-0.000000 -0.132270 
-0.000378 -0.150412 
0.002334 -0.128916 
0.001137 -0.203612 
-0.002525 -0.168991 
0.000000 -0.196912 
0.015552 -0.178198 
0.004033 -0.175703 
0.012374 -0.204059 
0.001673 -0.194557 
0.001639 -0.197278 
-0.000000 -0.194212 
0.005976 -0.203722 
0.003549 -0.200491 
0.005380 -0.201708 
-0.000000 -0.198497 
0.001697 -0.199485 
0.001841 -0.201341 
0.016539 -0.214764 
0.014754 -0.213194 
0.015183 -0.214448 
0.013406 -0.207591 
0.014187 -0.211066 
0.017858 -0.210979 
0.010441 -0.208993 
0.012081 -0.210363 
0.008946 -0.206998 
0.005357 -0.203884 
0.007401 -0.205106 
0.010716 -0.205375 
0.002472 -0.154435 
0.002404 -0.161034 
-0.000000 -0.154417 
0.006776 -0.173612 
0.004670 -0.167431 
0.007071 -0.167760 
-0.000000 -0.167165 
0.002319 -0.167227 
0.002218 -0.172991 
0.013819 -0.195915 
0.012234 -0.190800 
0.014470 -0.191476 
0.007876 -0.189255 
0.010028 -0.190039 
0.009569 -0.194321 
0.011065 -0.180191 
0.010539 -0.185327 
0.008726 -0.179582 
-0.000000 -0.187306 
0.001868 -0.187475 
0.001758 -0.191287 
0.002106 -0.178303 
0.001987 -0.183139 
-0.000000 -0.178203 
0.005505 -0.192555 
0.003794 -0.187902 
0.005796 -0.188518 
0.006455 -0.179033 
0.006121 -0.184006 
0.004251 -0.178591 
0.014050 -0.213392 
0.009482 -0.207017 
0.011889 -0.210587 
0.013234 -0.211703 
0.012790 -0.209463 
0.003440 -0.195223 
0.007215 -0.197122 
0.005290 -0.196106 
0.005213 -0.199160 
0.007209 -0.203110 
0.013269 -0.199943 
0.012690 -0.206734 
0.012872 -0.203554 
0.011237 -0.199134 
0.009207 -0.198167 
0.009058 -0.204528 
0.009008 -0.201572 
0.010900 -0.205768 
-0.002334 -0.128916 
0.000378 -0.150412 
-0.012374 -0.204059 
-0.004033 -0.175703 
-0.015552 -0.178198 
0.002525 -0.168991 
-0.001137 -0.203612 
-0.015183 -0.214448 
-0.014754 -0.213194 
-0.016539 -0.214764 
-0.008946 -0.206998 
-0.012081 -0.210363 
-0.010441 -0.208993 
-0.017858 -0.210979 
-0.014187 -0.211066 
-0.013406 -0.207591 
-0.001639 -0.197278 
-0.001673 -0.194557 
-0.001841 -0.201341 
-0.001697 -0.199485 
-0.005380 -0.201708 
-0.003549 -0.200491 
-0.005976 -0.203722 
-0.010716 -0.205375 
-0.007401 -0.205106 
-0.005357 -0.203884 
-0.017730 -0.210831 
-0.017423 -0.212176 
-0.016392 -0.211173 
-0.018360 -0.211762 
-0.018111 -0.212399 
-0.019166 -0.210889 
-0.016129 -0.213661 
-0.017115 -0.213331 
-0.016808 -0.214252 
-0.015270 -0.200548 
-0.016532 -0.204558 
-0.017217 -0.200918 
-0.015682 -0.210482 
-0.016009 -0.207755 
-0.014398 -0.207396 
-0.018941 -0.207590 
-0.017522 -0.207818 
-0.018153 -0.210235 
-0.016102 -0.215725 
-0.015873 -0.215382 
-0.015543 -0.215125 
-0.016500 -0.214913 
-0.016190 -0.215297 
-0.016030 -0.215251 
-0.014458 -0.212387 
-0.015651 -0.214353 
-0.015567 -0.212699 
-0.017501 -0.212364 
-0.016575 -0.212682 
-0.016965 -0.213938 
-0.002404 -0.161034 
-0.002472 -0.154435 
-0.002218 -0.172991 
-0.002319 -0.167227 
-0.007071 -0.167760 
-0.004670 -0.167431 
-0.006776 -0.173612 
-0.001758 -0.191287 
-0.001868 -0.187475 
-0.005796 -0.188518 
-0.003794 -0.187902 
-0.005505 -0.192555 
-0.001987 -0.183139 
-0.002106 -0.178303 
-0.014470 -0.191476 
-0.012234 -0.190800 
-0.013819 -0.195915 
-0.008726 -0.179582 
-0.010539 -0.185327 
-0.011065 -0.180191 
-0.009569 -0.194321 
-0.010028 -0.190039 
-0.007876 -0.189255 
-0.004251 -0.178591 
-0.006121 -0.184006 
-0.006455 -0.179033 
-0.014050 -0.213392 
-0.012790 -0.209463 
-0.013234 -0.211703 
-0.011889 -0.210587 
-0.009482 -0.207017 
-0.013269 -0.199943 
-0.009207 -0.198167 
-0.011237 -0.199134 
-0.012872 -0.203554 
-0.012690 -0.206734 
-0.003440 -0.195223 
-0.007209 -0.203110 
-0.005213 -0.199160 
-0.005290 -0.196106 
-0.007215 -0.197122 
-0.010900 -0.205768 
-0.009008 -0.201572 
-0.009058 -0.204528 
-0.018059 -0.209357 
-0.019172 -0.209887 
-0.022295 -0.206302 
-0.020697 -0.208364 
-0.021480 -0.206721 
-0.019937 -0.209753 
-0.020307 -0.208833 
-0.029360 -0.193382 
-0.027509 -0.197252 
-0.029101 -0.195455 
-0.024300 -0.199724 
-0.025919 -0.198665 
-0.025790 -0.195804 
-0.025175 -0.202001 
-0.025706 -0.200714 
-0.023966 -0.203741 
-0.019096 -0.201037 
-0.018028 -0.196855 
-0.020277 -0.207074 
-0.019862 -0.204465 
-0.022034 -0.196883 
-0.020901 -0.200889 
-0.022633 -0.200458 
-0.022767 -0.205158 
-0.022880 -0.203219 
-0.021546 -0.206265 
-0.043137 -0.149927 
-0.041763 -0.156452 
-0.044547 -0.155106 
-0.036038 -0.157798 
-0.038930 -0.157318 
-0.037139 -0.150979 
-0.041114 -0.167054 
-0.040239 -0.162689 
-0.038586 -0.168623 
-0.024190 -0.157388 
-0.027152 -0.157721 
-0.024758 -0.150257 
-0.030776 -0.170808 
-0.029169 -0.164607 
-0.028093 -0.170921 
-0.030940 -0.150908 
-0.030128 -0.157935 
-0.033097 -0.157980 
-0.033177 -0.187329 
-0.033131 -0.184511 
-0.031242 -0.189129 
-0.036831 -0.174245 
-0.035003 -0.179545 
-0.037247 -0.177818 
-0.030442 -0.181680 
-0.032740 -0.180811 
-0.031963 -0.176231 
-0.034790 -0.164283 
-0.033422 -0.170429 
-0.036025 -0.169724 
-0.004984 -0.154577 
-0.002533 -0.147444 
-0.009532 -0.168188 
-0.007328 -0.161495 
-0.007689 -0.147795 
-0.007538 -0.154833 
-0.010147 -0.155179 
-0.016708 -0.192016 
-0.015177 -0.186630 
-0.016614 -0.175743 
-0.015902 -0.181384 
-0.018366 -0.181876 
-0.013462 -0.180807 
-0.011579 -0.174638 
-0.018770 -0.149373 
-0.018385 -0.156518 
-0.021262 -0.156975 
-0.012823 -0.155593 
-0.015569 -0.156048 
-0.013077 -0.148491 
-0.019963 -0.170179 
-0.017881 -0.163302 
-0.017282 -0.169713 
-0.012056 -0.168680 
-0.014642 -0.169201 
-0.012477 -0.162327 
-0.029300 -0.190495 
-0.028100 -0.182209 
-0.028887 -0.186766 
-0.027327 -0.191479 
-0.025308 -0.192123 
-0.023484 -0.164158 
-0.021777 -0.176592 
-0.022670 -0.170562 
-0.025386 -0.170823 
-0.026931 -0.176871 
-0.018925 -0.192382 
-0.023234 -0.192466 
-0.021105 -0.192542 
-0.019872 -0.187509 
-0.020834 -0.182244 
-0.025714 -0.182450 
-0.023288 -0.182448 
-0.024471 -0.187652 
-0.047385 -0.142154 
-0.044358 -0.143127 
-0.046020 -0.128632 
-0.045327 -0.136029 
-0.049326 -0.128206 
-0.041231 -0.143644 
-0.038032 -0.143823 
-0.045235 -0.095965 
-0.046061 -0.104611 
-0.049181 -0.097018 
-0.039151 -0.120343 
-0.042679 -0.112448 
-0.038865 -0.111843 
-0.050033 -0.113165 
-0.046431 -0.112930 
-0.046401 -0.120935 
-0.028315 -0.143181 
-0.025137 -0.142770 
-0.034791 -0.143759 
-0.031542 -0.143526 
-0.032046 -0.127726 
-0.031923 -0.135797 
-0.035548 -0.128159 
-0.042587 -0.128694 
-0.039078 -0.128505 
-0.038692 -0.136332 
-0.008704 -0.011530 
-0.017963 -0.023868 
-0.014881 -0.015672 
-0.022105 -0.042974 
-0.020543 -0.033261 
-0.016972 -0.032079 
-0.031222 -0.040295 
-0.025377 -0.035717 
-0.031197 -0.046967 
-0.020868 -0.081494 
-0.022032 -0.072077 
-0.019040 -0.071696 
-0.029031 -0.073372 
-0.025350 -0.072613 
-0.027522 -0.082523 
-0.019591 -0.052168 
-0.022702 -0.062479 
-0.022771 -0.052753 
-0.046305 -0.079690 
-0.041928 -0.077616 
-0.043885 -0.086974 
-0.035742 -0.057661 
-0.039259 -0.067859 
-0.040716 -0.060977 
-0.035343 -0.084294 
-0.037431 -0.075836 
-0.033079 -0.074426 
-0.026512 -0.053725 
-0.030157 -0.064227 
-0.030872 -0.055289 
-0.005155 -0.140193 
-0.002577 -0.140082 
-0.010459 -0.140684 
-0.007776 -0.140399 
-0.007709 -0.124616 
-0.007784 -0.132666 
-0.010378 -0.124848 
-0.022028 -0.142325 
-0.019002 -0.141874 
-0.018963 -0.125881 
-0.019073 -0.134038 
-0.022059 -0.126314 
-0.016065 -0.141438 
-0.013219 -0.141036 
-0.016438 -0.090384 
-0.017402 -0.099647 
-0.019299 -0.090694 
-0.012882 -0.116736 
-0.015242 -0.108332 
-0.012484 -0.108052 
-0.021194 -0.109055 
-0.018139 -0.108666 
-0.018657 -0.117417 
-0.013242 -0.133247 
-0.015990 -0.125487 
-0.013132 -0.125140 
-0.041130 -0.094856 
-0.033025 -0.092920 
-0.037018 -0.093820 
-0.038172 -0.103003 
-0.035074 -0.111204 
-0.022372 -0.091081 
-0.024417 -0.109504 
-0.023551 -0.100426 
-0.025678 -0.091565 
-0.029232 -0.092171 
-0.025320 -0.134939 
-0.031876 -0.119320 
-0.028613 -0.127255 
-0.025278 -0.126777 
-0.024985 -0.118293 
-0.030505 -0.101531 
-0.027813 -0.110015 
-0.031374 -0.110585 
0.000000 0.000000 
-0.006700 -0.010766 
-0.004690 -0.010417 
-0.005529 -0.010510 
0.000000 0.000000 
-0.011325 -0.021209 
-0.014310 -0.031532 
-0.002549 -0.010419 
-0.002981 -0.010402 
0.000000 0.000000 
-0.008955 -0.031102 
-0.005989 -0.020769 
-0.007635 -0.031085 
0.000000 0.000000 
-0.003466 -0.010389 
-0.004025 -0.010389 
-0.016899 -0.061721 
-0.016325 -0.071423 
-0.016061 -0.041744 
-0.016859 -0.051818 
-0.012355 -0.051475 
-0.014474 -0.051606 
-0.011807 -0.041389 
-0.008141 -0.020812 
-0.010455 -0.031153 
-0.012203 -0.031273 
-0.000000 -0.010495 
-0.000278 -0.010495 
0.000000 0.000000 
-0.000828 -0.031123 
-0.000555 -0.020871 
-0.000000 -0.031119 
0.000000 0.000000 
-0.000560 -0.010492 
-0.000849 -0.010487 
-0.001791 -0.070726 
-0.001576 -0.061058 
-0.000000 -0.070708 
-0.003333 -0.041252 
-0.002702 -0.051238 
-0.004097 -0.051254 
-0.000000 -0.051217 
-0.001342 -0.051227 
-0.001091 -0.041244 
0.000000 0.000000 
-0.001799 -0.010453 
-0.002158 -0.010437 
-0.001149 -0.010478 
-0.001464 -0.010467 
0.000000 0.000000 
-0.004364 -0.031103 
-0.002926 -0.020836 
-0.003423 -0.031112 
-0.001667 -0.031122 
-0.002528 -0.031118 
-0.001696 -0.020861 
-0.002575 -0.132373 
-0.000000 -0.140065 
-0.007549 -0.116268 
-0.005107 -0.124448 
-0.000000 -0.124309 
-0.002545 -0.124347 
-0.002488 -0.116027 
-0.015249 -0.080901 
-0.013760 -0.090134 
-0.008842 -0.089775 
-0.011238 -0.089934 
-0.010392 -0.080542 
-0.011936 -0.099111 
-0.009845 -0.107823 
-0.000000 -0.089481 
-0.002150 -0.089508 
-0.001983 -0.080215 
-0.002403 -0.107433 
-0.002291 -0.098587 
-0.000000 -0.107398 
-0.006043 -0.080327 
-0.004324 -0.089565 
-0.006546 -0.089653 
-0.007301 -0.107644 
-0.006967 -0.098766 
-0.004829 -0.107515 
-0.004321 -0.020799 
-0.005753 -0.041261 
-0.005367 -0.031093 
-0.006450 -0.031086 
-0.008504 -0.041288 
-0.003605 -0.070759 
-0.007388 -0.070872 
-0.005462 -0.070806 
-0.004811 -0.061110 
-0.005547 -0.051273 
-0.013842 -0.071223 
-0.010443 -0.051392 
-0.012233 -0.061378 
-0.011548 -0.071073 
-0.009408 -0.070959 
-0.007071 -0.051300 
-0.008295 -0.061205 
-0.008694 -0.051338 
0.000000 0.000000 
0.000278 -0.010495 
0.000849 -0.010487 
0.000560 -0.010492 
0.000000 0.000000 
0.000555 -0.020871 
0.000828 -0.031123 
0.002158 -0.010437 
0.001799 -0.010453 
0.000000 0.000000 
0.003423 -0.031112 
0.002926 -0.020836 
0.004364 -0.031103 
0.000000 0.000000 
0.001464 -0.010467 
0.001149 -0.010478 
0.001576 -0.061058 
0.001791 -0.070726 
0.001091 -0.041244 
0.001342 -0.051227 
0.004097 -0.051254 
0.002702 -0.051238 
0.003333 -0.041252 
0.001696 -0.020861 
0.002528 -0.031118 
0.001667 -0.031122 
0.008704 -0.011530 
0.006700 -0.010766 
0.000000 0.000000 
0.014310 -0.031532 
0.011325 -0.021209 
0.016972 -0.032079 
0.000000 0.000000 
0.005529 -0.010510 
0.004690 -0.010417 
0.016325 -0.071423 
0.016899 -0.061721 
0.019040 -0.071696 
0.011807 -0.041389 
0.014474 -0.051606 
0.012355 -0.051475 
0.019591 -0.052168 
0.016859 -0.051818 
0.016061 -0.041744 
0.000000 0.000000 
0.002981 -0.010402 
0.002549 -0.010419 
0.004025 -0.010389 
0.003466 -0.010389 
0.000000 0.000000 
0.007635 -0.031085 
0.005989 -0.020769 
0.008955 -0.031102 
0.012203 -0.031273 
0.010455 -0.031153 
0.008141 -0.020812 
0.002575 -0.132373 
0.002577 -0.140082 
0.002488 -0.116027 
0.002545 -0.124347 
0.007709 -0.124616 
0.005107 -0.124448 
0.007549 -0.116268 
0.001983 -0.080215 
0.002150 -0.089508 
0.006546 -0.089653 
0.004324 -0.089565 
0.006043 -0.080327 
0.002291 -0.098587 
0.002403 -0.107433 
0.016438 -0.090384 
0.013760 -0.090134 
0.015249 -0.080901 
0.009845 -0.107823 
0.011936 -0.099111 
0.012484 -0.108052 
0.010392 -0.080542 
0.011238 -0.089934 
0.008842 -0.089775 
0.004829 -0.107515 
0.006967 -0.098766 
0.007301 -0.107644 
0.004321 -0.020799 
0.008504 -0.041288 
0.006450 -0.031086 
0.005367 -0.031093 
0.005753 -0.041261 
0.013842 -0.071223 
0.009408 -0.070959 
0.011548 -0.071073 
0.012233 -0.061378 
0.010443 -0.051392 
0.003605 -0.070759 
0.005547 -0.051273 
0.004811 -0.061110 
0.005462 -0.070806 
0.007388 -0.070872 
0.008694 -0.051338 
0.008295 -0.061205 
0.007071 -0.051300 
0.014881 -0.015672 
0.017963 -0.023868 
0.031197 -0.046967 
0.025377 -0.035717 
0.031222 -0.040295 
0.020543 -0.033261 
0.022105 -0.042974 
0.043885 -0.086974 
0.041928 -0.077616 
0.046305 -0.079690 
0.033079 -0.074426 
0.037431 -0.075836 
0.035343 -0.084294 
0.040716 -0.060977 
0.039259 -0.067859 
0.035742 -0.057661 
0.022032 -0.072077 
0.020868 -0.081494 
0.022771 -0.052753 
0.022702 -0.062479 
0.027522 -0.082523 
0.025350 -0.072613 
0.029031 -0.073372 
0.030872 -0.055289 
0.030157 -0.064227 
0.026512 -0.053725 
0.043137 -0.149927 
0.044358 -0.143127 
0.047385 -0.142154 
0.038032 -0.143823 
0.041231 -0.143644 
0.037139 -0.150979 
0.049326 -0.128206 
0.045327 -0.136029 
0.046020 -0.128632 
0.025137 -0.142770 
0.028315 -0.143181 
0.024758 -0.150257 
0.035548 -0.128159 
0.031923 -0.135797 
0.032046 -0.127726 
0.030940 -0.150908 
0.031542 -0.143526 
0.034791 -0.143759 
0.049181 -0.097018 
0.046061 -0.104611 
0.045235 -0.095965 
0.046401 -0.120935 
0.046431 -0.112930 
0.050033 -0.113165 
0.038865 -0.111843 
0.042679 -0.112448 
0.039151 -0.120343 
0.038692 -0.136332 
0.039078 -0.128505 
0.042587 -0.128694 
0.005155 -0.140193 
0.002533 -0.147444 
0.010378 -0.124848 
0.007784 -0.132666 
0.007689 -0.147795 
0.007776 -0.140399 
0.010459 -0.140684 
0.019299 -0.090694 
0.017402 -0.099647 
0.018657 -0.117417 
0.018139 -0.108666 
0.021194 -0.109055 
0.015242 -0.108332 
0.012882 -0.116736 
0.018770 -0.149373 
0.019002 -0.141874 
0.022028 -0.142325 
0.013219 -0.141036 