# vtk DataFile Version 2.0
Unstructured Grid Example
ASCII
DATASET UNSTRUCTURED_GRID

POINTS 81 float
0.024479 -0.215880 0.000000 
0.975521 -0.215880 0.000000 
1.000000 1.000000 0.000000 
0.000000 1.000000 0.000000 
0.500000 -0.100000 0.000000 
0.956246 0.352167 0.000000 
0.500000 1.000000 0.000000 
0.043754 0.352167 0.000000 
0.500000 0.353872 0.000000 
0.270236 -0.213323 0.000000 
0.500000 0.063865 0.000000 
0.265571 0.055457 0.000000 
0.729764 -0.213323 0.000000 
0.734429 0.055457 0.000000 
0.968837 0.056544 0.000000 
0.729300 0.351419 0.000000 
0.954589 0.662514 0.000000 
0.733333 0.669593 0.000000 
0.750000 1.000000 0.000000 
0.500000 0.670789 0.000000 
0.250000 1.000000 0.000000 
0.266667 0.669593 0.000000 
0.045411 0.662514 0.000000 
0.270700 0.351419 0.000000 
0.031163 0.056544 0.000000 
0.147229 -0.215509 0.000000 
0.265188 -0.082789 0.000000 
0.145788 -0.084675 0.000000 
0.500000 -0.068387 0.000000 
0.383222 -0.076811 0.000000 
0.394710 -0.204008 0.000000 
0.383471 0.203216 0.000000 
0.382353 0.059597 0.000000 
0.500000 0.205103 0.000000 
0.605290 -0.204008 0.000000 
0.616778 -0.076811 0.000000 
0.854212 -0.084675 0.000000 
0.734812 -0.082789 0.000000 
0.852771 -0.215509 0.000000 
0.617647 0.059597 0.000000 
0.616529 0.203216 0.000000 
0.974361 -0.083394 0.000000 
0.851542 0.053951 0.000000 
0.842477 0.349952 0.000000 
0.846922 0.199114 0.000000 
0.961891 0.202022 0.000000 
0.731883 0.200376 0.000000 
0.615281 0.353522 0.000000 
0.952429 0.504706 0.000000 
0.841296 0.506032 0.000000 
0.858291 0.833553 0.000000 
0.845746 0.667418 0.000000 
0.966350 0.826541 0.000000 
0.729458 0.508182 0.000000 
0.615362 0.509709 0.000000 
0.875000 1.000000 0.000000 
0.740702 0.834014 0.000000 
0.500000 0.834261 0.000000 
0.620776 0.834094 0.000000 
0.625000 1.000000 0.000000 
0.617342 0.670355 0.000000 
0.500000 0.510310 0.000000 
0.375000 1.000000 0.000000 
0.379224 0.834094 0.000000 
0.141709 0.833553 0.000000 
0.259298 0.834014 0.000000 
0.125000 1.000000 0.000000 
0.382658 0.670355 0.000000 
0.384638 0.509709 0.000000 
0.033650 0.826541 0.000000 
0.154254 0.667418 0.000000 
0.157523 0.349952 0.000000 
0.158704 0.506032 0.000000 
0.047571 0.504706 0.000000 
0.270542 0.508182 0.000000 
0.384719 0.353522 0.000000 
0.038109 0.202022 0.000000 
0.153078 0.199114 0.000000 
0.148458 0.053951 0.000000 
0.025639 -0.083394 0.000000 
0.268117 0.200376 0.000000 

CELLS 128 512
3  0 25 27 
3  9 26 25 
3  11 27 26 
3  25 26 27 
3  4 28 30 
3  10 29 28 
3  9 30 29 
3  28 29 30 
3  8 31 33 
3  11 32 31 
3  10 33 32 
3  31 32 33 
3  9 29 26 
3  10 32 29 
3  11 26 32 
3  29 32 26 
3  4 34 28 
3  12 35 34 
3  10 28 35 
3  34 35 28 
3  1 36 38 
3  13 37 36 
3  12 38 37 
3  36 37 38 
3  8 33 40 
3  10 39 33 
3  13 40 39 
3  33 39 40 
3  12 37 35 
3  13 39 37 
3  10 35 39 
3  37 39 35 
3  1 41 36 
3  14 42 41 
3  13 36 42 
3  41 42 36 
3  5 43 45 
3  15 44 43 
3  14 45 44 
3  43 44 45 
3  8 40 47 
3  13 46 40 
3  15 47 46 
3  40 46 47 
3  14 44 42 
3  15 46 44 
3  13 42 46 
3  44 46 42 
3  5 48 43 
3  16 49 48 
3  15 43 49 
3  48 49 43 
3  2 50 52 
3  17 51 50 
3  16 52 51 
3  50 51 52 
3  8 47 54 
3  15 53 47 
3  17 54 53 
3  47 53 54 
3  16 51 49 
3  17 53 51 
3  15 49 53 
3  51 53 49 
3  2 55 50 
3  18 56 55 
3  17 50 56 
3  55 56 50 
3  6 57 59 
3  19 58 57 
3  18 59 58 
3  57 58 59 
3  8 54 61 
3  17 60 54 
3  19 61 60 
3  54 60 61 
3  18 58 56 
3  19 60 58 
3  17 56 60 
3  58 60 56 
3  6 62 57 
3  20 63 62 
3  19 57 63 
3  62 63 57 
3  3 64 66 
3  21 65 64 
3  20 66 65 
3  64 65 66 
3  8 61 68 
3  19 67 61 
3  21 68 67 
3  61 67 68 
3  20 65 63 
3  21 67 65 
3  19 63 67 
3  65 67 63 
3  3 69 64 
3  22 70 69 
3  21 64 70 
3  69 70 64 
3  7 71 73 
3  23 72 71 
3  22 73 72 
3  71 72 73 
3  8 68 75 
3  21 74 68 
3  23 75 74 
3  68 74 75 
3  22 72 70 
3  23 74 72 
3  21 70 74 
3  72 74 70 
3  7 76 71 
3  24 77 76 
3  23 71 77 
3  76 77 71 
3  0 27 79 
3  11 78 27 
3  24 79 78 
3  27 78 79 
3  8 75 31 
3  23 80 75 
3  11 31 80 
3  75 80 31 
3  24 78 77 
3  11 80 78 
3  23 77 80 
3  78 80 77 

CELL_TYPES 128
5
5
5
5
5
5
5
5
5
5
5
5
5
5
5
5
5
5
5
5
5
5
5
5
5
5
5
5
5
5
5
5
5
5
5
5
5
5
5
5
5
5
5
5
5
5
5
5
5
5
5
5
5
5
5
5
5
5
5
5
5
5
5
5
5
5
5
5
5
5
5
5
5
5
5
5
5
5
5
5
5
5
5
5
5
5
5
5
5
5
5
5
5
5
5
5
5
5
5
5
5
5
5
5
5
5
5
5
5
5
5
5
5
5
5
5
5
5
5
5
5
5
5
5
5
5
5
5

POINT_DATA 81

SCALARS u_h float 2
LOOKUP_TABLE default
0.024479 -0.215880 
-0.024479 -0.215880 
0.000000 0.000000 
0.000000 0.000000 
-0.000000 -0.100000 
-0.043754 -0.147833 
0.000000 0.000000 
0.043754 -0.147833 
0.000000 -0.146128 
0.020236 -0.213323 
0.000000 -0.186135 
0.015571 -0.194543 
-0.020236 -0.213323 
-0.015571 -0.194543 
-0.031163 -0.193456 
-0.020700 -0.148581 
-0.045411 -0.087486 
-0.016667 -0.080407 
0.000000 0.000000 
0.000000 -0.079211 
0.000000 0.000000 
0.016667 -0.080407 
0.045411 -0.087486 
0.020700 -0.148581 
0.031163 -0.193456 
0.022229 -0.215509 
0.015188 -0.207789 
0.020788 -0.209675 
0.000000 -0.193387 
0.008222 -0.201811 
0.019710 -0.204008 
0.008471 -0.171784 
0.007353 -0.190403 
0.000000 -0.169897 
-0.019710 -0.204008 
-0.008222 -0.201811 
-0.020788 -0.209675 
-0.015188 -0.207789 
-0.022229 -0.215509 
-0.007353 -0.190403 
-0.008471 -0.171784 
-0.025639 -0.208394 
-0.023458 -0.196049 
-0.032523 -0.150048 
-0.028078 -0.175886 
-0.038109 -0.172978 
-0.018117 -0.174624 
-0.009719 -0.146478 
-0.047571 -0.120294 
-0.033704 -0.118968 
-0.016709 -0.041447 
-0.029254 -0.082582 
-0.033650 -0.048459 
-0.020542 -0.116818 
-0.009638 -0.115291 
0.000000 0.000000 
-0.009298 -0.040986 
0.000000 -0.040739 
-0.004224 -0.040906 
0.000000 0.000000 
-0.007658 -0.079645 
0.000000 -0.114690 
0.000000 0.000000 
0.004224 -0.040906 
0.016709 -0.041447 
0.009298 -0.040986 
0.000000 0.000000 
0.007658 -0.079645 
0.009638 -0.115291 
0.033650 -0.048459 
0.029254 -0.082582 
0.032523 -0.150048 
0.033704 -0.118968 
0.047571 -0.120294 
0.020542 -0.116818 
0.009719 -0.146478 
0.038109 -0.172978 
0.028078 -0.175886 
0.023458 -0.196049 
0.025639 -0.208394 
0.018117 -0.174624 

CELL_DATA 128

SCALARS epsilon float 4
LOOKUP_TABLE default
-0.018062 0.045628 0.000000 -0.004440
-0.014614 0.044122 0.000000 -0.012109
-0.045846 0.100471 0.000000 0.008394
-0.045566 0.045878 0.000000 0.001168
-0.169674 9.037544 0.000000 1.587393
-0.067929 0.058668 0.000000 0.031688
0.006576 0.026825 0.000000 -0.009502
-0.056852 0.026394 0.000000 -0.016181
-0.070052 0.172628 0.000000 0.006309
-0.068139 0.138245 0.000000 0.019049
-0.060545 0.122089 0.000000 0.015050
-0.070142 0.138015 0.000000 0.011253
-0.054488 0.046416 0.000000 0.001485
-0.060292 0.087911 0.000000 0.011915
-0.067993 0.100828 0.000000 0.016525
-0.056929 0.088526 0.000000 0.018183
-0.169674 9.037544 0.000000 -1.587393
0.006576 0.026825 0.000000 0.009502
-0.067929 0.058668 0.000000 -0.031688
-0.056852 0.026394 0.000000 0.016181
-0.018062 0.045628 0.000000 0.004440
-0.045846 0.100471 0.000000 -0.008394
-0.014614 0.044122 0.000000 0.012109
-0.045566 0.045878 0.000000 -0.001168
-0.070052 0.172628 0.000000 -0.006309
-0.060545 0.122089 0.000000 -0.015050
-0.068139 0.138245 0.000000 -0.019049
-0.070142 0.138015 0.000000 -0.011253
-0.054488 0.046416 0.000000 -0.001485
-0.067993 0.100828 0.000000 -0.016525
-0.060292 0.087911 0.000000 -0.011915
-0.056929 0.088526 0.000000 -0.018183
-0.039420 0.058245 0.000000 0.000012
-0.061774 0.113500 0.000000 -0.014051
-0.065114 0.102946 0.000000 -0.016697
-0.039149 0.103374 0.000000 -0.006392
-0.092267 0.182340 0.000000 -0.016805
-0.098861 0.185659 0.000000 -0.023873
-0.080899 0.152088 0.000000 -0.019680
-0.082189 0.186914 0.000000 -0.009194
-0.080736 0.182515 0.000000 -0.006416
-0.080376 0.146695 0.000000 -0.020556
-0.091806 0.187096 0.000000 -0.017884
-0.080290 0.182547 0.000000 -0.014635
-0.062252 0.149411 0.000000 -0.010417
-0.082850 0.187144 0.000000 -0.015039
-0.065128 0.146734 0.000000 -0.015838
-0.082585 0.148243 0.000000 -0.024009
-0.092984 0.197431 0.000000 -0.009034
-0.116709 0.229710 0.000000 0.005160
-0.099075 0.218914 0.000000 -0.009658
-0.117041 0.218913 0.000000 -0.009286
-0.107698 0.330958 0.000000 0.122955
-0.100743 0.279733 0.000000 0.045880
-0.130897 0.269865 0.000000 0.036269
-0.135934 0.284021 0.000000 0.033761
-0.080750 0.219621 0.000000 -0.000776
-0.091651 0.223267 0.000000 -0.005980
-0.090339 0.251385 0.000000 0.011424
-0.090996 0.219681 0.000000 -0.004505
-0.135706 0.252657 0.000000 0.004530
-0.104886 0.251579 0.000000 0.009699
-0.110746 0.223277 0.000000 -0.006083
-0.109768 0.251485 0.000000 0.012313
0.005039 0.280011 0.000000 0.062692
0.001569 0.277411 0.000000 0.034925
-0.059727 0.268667 0.000000 0.028136
-0.054956 0.280384 0.000000 0.065254
0.000000 0.276011 0.000000 -0.000000
-0.034360 0.263039 0.000000 -0.000509
0.000324 0.276955 0.000000 0.015868
-0.033978 0.276988 0.000000 0.015921
-0.080054 0.221167 0.000000 -0.001908
-0.074490 0.246597 0.000000 0.005758
-0.063131 0.245520 0.000000 -0.001346
-0.079901 0.246576 0.000000 0.006301
-0.039676 0.277446 0.000000 0.036160
-0.062804 0.264658 0.000000 0.012494
-0.073200 0.268787 0.000000 0.027634
-0.041165 0.264594 0.000000 0.013270
0.000000 0.276011 0.000000 -0.000000
0.000324 0.276955 0.000000 -0.015868
-0.034360 0.263039 0.000000 0.000509
-0.033978 0.276988 0.000000 -0.015921
0.005039 0.280011 0.000000 -0.062692
-0.059727 0.268667 0.000000 -0.028136
0.001569 0.277411 0.000000 -0.034925
-0.054956 0.280384 0.000000 -0.065254
-0.080054 0.221167 0.000000 0.001908
-0.063131 0.245520 0.000000 0.001346
-0.074490 0.246597 0.000000 -0.005758
-0.079901 0.246576 0.000000 -0.006301
-0.039676 0.277446 0.000000 -0.036160
-0.073200 0.268787 0.000000 -0.027634
-0.062804 0.264658 0.000000 -0.012494
-0.041165 0.264594 0.000000 -0.013270
-0.107698 0.330958 0.000000 -0.122955
-0.130897 0.269865 0.000000 -0.036269
-0.100743 0.279733 0.000000 -0.045880
-0.135934 0.284021 0.000000 -0.033761
-0.092984 0.197431 0.000000 0.009034
-0.099075 0.218914 0.000000 0.009658
-0.116709 0.229710 0.000000 -0.005160
-0.117041 0.218913 0.000000 0.009286
-0.080750 0.219621 0.000000 0.000776
-0.090339 0.251385 0.000000 -0.011424
-0.091651 0.223267 0.000000 0.005980
-0.090996 0.219681 0.000000 0.004505
-0.135706 0.252657 0.000000 -0.004530
-0.110746 0.223277 0.000000 0.006083
-0.104886 0.251579 0.000000 -0.009699
-0.109768 0.251485 0.000000 -0.012313
-0.092267 0.182340 0.000000 0.016805
-0.080899 0.152088 0.000000 0.019680
-0.098861 0.185659 0.000000 0.023873
-0.082189 0.186914 0.000000 0.009194
-0.039420 0.058245 0.000000 -0.000012
-0.065114 0.102946 0.000000 0.016697
-0.061774 0.113500 0.000000 0.014051
-0.039149 0.103374 0.000000 0.006392
-0.080736 0.182515 0.000000 0.006416
-0.091806 0.187096 0.000000 0.017884
-0.080376 0.146695 0.000000 0.020556
-0.080290 0.182547 0.000000 0.014635
-0.062252 0.149411 0.000000 0.010417
-0.065128 0.146734 0.000000 0.015838
-0.082850 0.187144 0.000000 0.015039
-0.082585 0.148243 0.000000 0.024009

SCALARS sigma float 4
LOOKUP_TABLE default
-0.020389 1.070475 0.275661 -0.068533
0.051179 1.070329 0.295080 -0.178180
-0.193997 2.404508 0.546250 0.162525
-0.709108 0.789114 0.003117 0.029661
171.501552 -462.919088 88.678707 946.460084
-1.086260 0.917233 -0.092610 0.542368
0.431584 0.806457 0.334011 -0.099685
-1.177126 0.156805 -0.304581 -0.239487
-0.112733 4.473072 1.025760 0.148422
-0.377362 3.354959 0.701054 0.381933
-0.345974 2.918645 0.615442 0.315445
-0.434654 3.324819 0.678731 0.212578
-0.917653 0.709639 -0.080715 0.055915
-0.661729 1.860659 0.276198 0.240334
-0.722593 2.172481 0.328354 0.315448
-0.567586 1.914165 0.315974 0.362735
171.501552 -462.919088 88.678707 -946.460084
0.431584 0.806457 0.334011 0.099685
-1.086260 0.917233 -0.092610 -0.542368
-1.177126 0.156805 -0.304581 0.239487
-0.020389 1.070475 0.275661 0.068533
-0.193997 2.404508 0.546250 -0.162525
0.051179 1.070329 0.295080 0.178180
-0.709108 0.789114 0.003117 -0.029661
-0.112733 4.473072 1.025760 -0.148422
-0.345974 2.918645 0.615442 -0.315445
-0.377362 3.354959 0.701054 -0.381933
-0.434654 3.324819 0.678731 -0.212578
-0.917653 0.709639 -0.080715 -0.055915
-0.722593 2.172481 0.328354 -0.315448
-0.661729 1.860659 0.276198 -0.240334
-0.567586 1.914165 0.315974 -0.362735
-0.439794 1.208162 0.188242 0.011689
-0.468282 2.644110 0.517257 -0.168594
-0.639744 2.274955 0.378326 -0.279292
-0.000820 2.569880 0.642245 -0.078153
-0.556954 4.556515 0.900728 -0.185600
-0.670108 4.594555 0.867981 -0.392493
-0.569029 3.677498 0.711889 -0.225422
-0.277825 4.824510 1.047250 -0.051606
-0.280200 4.687190 1.017781 -0.106480
-0.592727 3.496092 0.663194 -0.373953
-0.494830 4.719059 0.952893 -0.326332
-0.264604 4.694019 1.022570 -0.302128
-0.142885 3.791144 0.871596 -0.096569
-0.286161 4.825058 1.042937 -0.262592
-0.232119 3.669657 0.816059 -0.277941
-0.633412 3.529332 0.656578 -0.388691
-0.435670 5.061221 1.044463 -0.065328
-0.687141 5.917319 1.130008 0.027790
-0.380198 5.743075 1.198392 -0.191535
-0.786815 5.527631 1.018723 -0.177327
0.306828 10.315850 2.232600 1.375570
0.111576 8.026694 1.789897 0.576682
-0.667804 7.262257 1.389686 0.309700
-0.662244 7.729440 1.480864 0.171754
0.059008 5.987003 1.388710 -0.023783
-0.167470 5.986268 1.316162 -0.161820
0.114690 7.032825 1.610461 0.110079
-0.185050 5.865964 1.286852 -0.119223
-0.903406 6.518408 1.169509 -0.121803
-0.227353 6.860728 1.466934 0.057548
-0.608087 5.756944 1.125313 -0.161382
-0.341189 6.799382 1.417165 0.095847
2.933135 9.399189 2.850500 1.028144
2.815528 9.183680 2.789797 0.572770
1.038751 8.075716 2.089394 0.413099
1.265157 8.675119 2.254284 0.983021
2.760106 9.077758 2.760106 -0.000000
1.663030 8.154062 2.286792 -0.015025
2.778105 9.125021 2.772790 0.260233
1.807170 8.698970 2.430107 0.244729
0.090160 6.050766 1.411124 -0.049659
0.460204 7.046124 1.721070 0.057654
0.737153 7.143826 1.823894 -0.037487
0.326204 6.979383 1.666749 0.071554
1.653703 8.673286 2.377700 0.564453
0.923547 7.868370 2.018542 0.173593
0.694686 7.913072 1.955866 0.386383
1.493121 8.133747 2.234293 0.205060
2.760106 9.077758 2.760106 -0.000000
2.778105 9.125021 2.772790 -0.260233
1.663030 8.154062 2.286792 0.015025
1.807170 8.698970 2.430107 -0.244729
2.933135 9.399189 2.850500 -1.028144
1.038751 8.075716 2.089394 -0.413099
2.815528 9.183680 2.789797 -0.572770
1.265157 8.675119 2.254284 -0.983021
0.090160 6.050766 1.411124 0.049659
0.737153 7.143826 1.823894 0.037487
0.460204 7.046124 1.721070 -0.057654
0.326204 6.979383 1.666749 -0.071554
1.653703 8.673286 2.377700 -0.564453
0.694686 7.913072 1.955866 -0.386383
0.923547 7.868370 2.018542 -0.173593
1.493121 8.133747 2.234293 -0.205060
0.306828 10.315850 2.232600 -1.375570
-0.667804 7.262257 1.389686 -0.309700
0.111576 8.026694 1.789897 -0.576682
-0.662244 7.729440 1.480864 -0.171754
-0.435670 5.061221 1.044463 0.065328
-0.380198 5.743075 1.198392 0.191535
-0.687141 5.917319 1.130008 -0.027790
-0.786815 5.527631 1.018723 0.177327
0.059008 5.987003 1.388710 0.023783
0.114690 7.032825 1.610461 -0.110079
-0.167470 5.986268 1.316162 0.161820
-0.185050 5.865964 1.286852 0.119223
-0.903406 6.518408 1.169509 0.121803
-0.608087 5.756944 1.125313 0.161382
-0.227353 6.860728 1.466934 -0.057548
-0.341189 6.799382 1.417165 -0.095847
-0.556954 4.556515 0.900728 0.185600
-0.569029 3.677498 0.711889 0.225422
-0.670108 4.594555 0.867981 0.392493
-0.277825 4.824510 1.047250 0.051606
-0.439794 1.208162 0.188242 -0.011689
-0.639744 2.274955 0.378326 0.279292
-0.468282 2.644110 0.517257 0.168594
-0.000820 2.569880 0.642245 0.078153
-0.280200 4.687190 1.017781 0.106480
-0.494830 4.719059 0.952893 0.326332
-0.592727 3.496092 0.663194 0.373953
-0.264604 4.694019 1.022570 0.302128
-0.142885 3.791144 0.871596 0.096569
-0.232119 3.669657 0.816059 0.277941
-0.286161 4.825058 1.042937 0.262592
-0.633412 3.529332 0.656578 0.388691

