# vtk DataFile Version 2.0
Unstructured Grid Example
ASCII
DATASET UNSTRUCTURED_GRID

POINTS 9 float
0.010075 -0.193751 0.000000 
0.989925 -0.193751 0.000000 
1.000000 1.000000 0.000000 
0.000000 1.000000 0.000000 
0.500000 -0.100000 0.000000 
0.969031 0.373180 0.000000 
0.500000 1.000000 0.000000 
0.030969 0.373180 0.000000 
0.500000 0.377764 0.000000 

CELLS 8 32
3  0 4 8 
3  4 1 8 
3  1 5 8 
3  5 2 8 
3  2 6 8 
3  6 3 8 
3  3 7 8 
3  7 0 8 

CELL_TYPES 8
5
5
5
5
5
5
5
5

POINT_DATA 9

SCALARS u_h float 2
LOOKUP_TABLE default
0.010075 -0.193751 
-0.010075 -0.193751 
0.000000 0.000000 
0.000000 0.000000 
-0.000000 -0.100000 
-0.030969 -0.126820 
0.000000 0.000000 
0.030969 -0.126820 
-0.000000 -0.122236 

CELL_DATA 8

SCALARS epsilon float 4
LOOKUP_TABLE default
-0.020354 -0.025407 0.000000 0.098073
-0.020354 -0.025407 0.000000 -0.098073
-0.063435 0.124708 0.000000 -0.025990
-0.061982 0.223284 0.000000 0.028017
0.000000 0.215742 0.000000 0.000000
0.000000 0.215742 0.000000 0.000000
-0.061982 0.223284 0.000000 -0.028017
-0.063435 0.124708 0.000000 0.025990

SCALARS sigma float 4
LOOKUP_TABLE default
-0.453023 -0.833577 -0.457601 1.400230
-0.453023 -0.833577 -0.457601 -1.400230
-0.395525 2.987651 0.612735 -0.420844
0.553846 6.368315 1.613015 0.388272
2.157423 6.814479 2.157423 0.000000
2.157423 6.814479 2.157423 0.000000
0.553846 6.368315 1.613015 -0.388272
-0.395525 2.987651 0.612735 0.420844

