# vtk DataFile Version 2.0
Unstructured Grid Example
ASCII
DATASET UNSTRUCTURED_GRID

POINTS 128 float
0.000000 -0.000000 0.000000 
0.015625 0.000000 0.000000 
0.015625 -0.000000 0.000000 
0.031250 0.000000 0.000000 
0.031250 -0.000000 0.000000 
0.046875 0.000000 0.000000 
0.046875 -0.000000 0.000000 
0.062500 0.000000 0.000000 
0.093750 -0.000005 0.000000 
0.109375 0.000020 0.000000 
0.109375 -0.000020 0.000000 
0.125000 0.000076 0.000000 
0.062500 -0.000000 0.000000 
0.078125 0.000001 0.000000 
0.078125 -0.000001 0.000000 
0.093750 0.000005 0.000000 
0.218750 -0.206443 0.000000 
0.234375 0.770457 0.000000 
0.234375 -0.770457 0.000000 
0.250000 2.875384 0.000000 
0.187500 -0.014822 0.000000 
0.203125 0.055316 0.000000 
0.203125 -0.055316 0.000000 
0.218750 0.206443 0.000000 
0.125000 -0.000076 0.000000 
0.140625 0.000285 0.000000 
0.140625 -0.000285 0.000000 
0.156250 0.001064 0.000000 
0.156250 -0.001064 0.000000 
0.171875 0.003972 0.000000 
0.171875 -0.003972 0.000000 
0.187500 0.014822 0.000000 
0.468750 0.519456 0.000000 
0.484375 -0.791914 0.000000 
0.484375 0.129864 0.000000 
0.500000 -1.324099 0.000000 
0.437500 -0.010162 0.000000 
0.453125 0.038189 0.000000 
0.453125 -0.038189 0.000000 
0.468750 0.142594 0.000000 
0.375000 0.014769 0.000000 
0.390625 -0.003775 0.000000 
0.390625 0.003775 0.000000 
0.406250 -0.000329 0.000000 
0.406250 0.000329 0.000000 
0.421875 0.002458 0.000000 
0.421875 -0.002458 0.000000 
0.437500 0.010162 0.000000 
0.250000 10.474260 0.000000 
0.265625 -15.968209 0.000000 
0.265625 2.618565 0.000000 
0.281250 -26.699288 0.000000 
0.281250 -26.699288 0.000000 
0.296875 2.618565 0.000000 
0.296875 -15.968209 0.000000 
0.312500 10.474260 0.000000 
0.343750 0.206439 0.000000 
0.359375 -0.055302 0.000000 
0.359375 0.055302 0.000000 
0.375000 -0.014769 0.000000 
0.312500 2.875384 0.000000 
0.328125 -0.770456 0.000000 
0.328125 0.770456 0.000000 
0.343750 -0.206439 0.000000 
0.500000 -1.324099 0.000000 
0.515625 0.129864 0.000000 
0.515625 -0.791914 0.000000 
0.531250 0.519456 0.000000 
0.531250 0.142594 0.000000 
0.546875 -0.038189 0.000000 
0.546875 0.038189 0.000000 
0.562500 -0.010162 0.000000 
0.593750 -0.000324 0.000000 
0.609375 0.003756 0.000000 
0.609375 -0.003756 0.000000 
0.625000 0.014701 0.000000 
0.562500 0.010162 0.000000 
0.578125 -0.002459 0.000000 
0.578125 0.002459 0.000000 
0.593750 0.000324 0.000000 
0.718750 -26.577215 0.000000 
0.734375 2.606593 0.000000 
0.734375 -15.895200 0.000000 
0.750000 10.426370 0.000000 
0.687500 10.426371 0.000000 
0.703125 -15.895200 0.000000 
0.703125 2.606593 0.000000 
0.718750 -26.577215 0.000000 
0.625000 -0.014701 0.000000 
0.640625 0.055049 0.000000 
0.640625 -0.055049 0.000000 
0.656250 0.205496 0.000000 
0.656250 -0.205496 0.000000 
0.671875 0.766933 0.000000 
0.671875 -0.766933 0.000000 
0.687500 2.862237 0.000000 
0.968750 0.000000 0.000000 
0.984375 -0.000000 0.000000 
0.984375 0.000000 0.000000 
1.000000 -0.000000 0.000000 
0.937500 0.000000 0.000000 
0.953125 -0.000000 0.000000 
0.953125 0.000000 0.000000 
0.968750 -0.000000 0.000000 
0.875000 0.000076 0.000000 
0.890625 -0.000020 0.000000 
0.890625 0.000020 0.000000 
0.906250 -0.000005 0.000000 
0.906250 0.000005 0.000000 
0.921875 -0.000001 0.000000 
0.921875 0.000001 0.000000 
0.937500 -0.000000 0.000000 
0.750000 2.862237 0.000000 
0.765625 -0.766934 0.000000 
0.765625 0.766934 0.000000 
0.781250 -0.205499 0.000000 
0.781250 0.205499 0.000000 
0.796875 -0.055063 0.000000 
0.796875 0.055063 0.000000 
0.812500 -0.014754 0.000000 
0.843750 0.001059 0.000000 
0.859375 -0.000284 0.000000 
0.859375 0.000284 0.000000 
0.875000 -0.000076 0.000000 
0.812500 0.014754 0.000000 
0.828125 -0.003953 0.000000 
0.828125 0.003953 0.000000 
0.843750 -0.001059 0.000000 

CELLS 64 192
2  0 1 
2  2 3 
2  4 5 
2  6 7 
2  8 9 
2  10 11 
2  12 13 
2  14 15 
2  16 17 
2  18 19 
2  20 21 
2  22 23 
2  24 25 
2  26 27 
2  28 29 
2  30 31 
2  32 33 
2  34 35 
2  36 37 
2  38 39 
2  40 41 
2  42 43 
2  44 45 
2  46 47 
2  48 49 
2  50 51 
2  52 53 
2  54 55 
2  56 57 
2  58 59 
2  60 61 
2  62 63 
2  64 65 
2  66 67 
2  68 69 
2  70 71 
2  72 73 
2  74 75 
2  76 77 
2  78 79 
2  80 81 
2  82 83 
2  84 85 
2  86 87 
2  88 89 
2  90 91 
2  92 93 
2  94 95 
2  96 97 
2  98 99 
2  100 101 
2  102 103 
2  104 105 
2  106 107 
2  108 109 
2  110 111 
2  112 113 
2  114 115 
2  116 117 
2  118 119 
2  120 121 
2  122 123 
2  124 125 
2  126 127 

CELL_TYPES 64
3
3
3
3
3
3
3
3
3
3
3
3
3
3
3
3
3
3
3
3
3
3
3
3
3
3
3
3
3
3
3
3
3
3
3
3
3
3
3
3
3
3
3
3
3
3
3
3
3
3
3
3
3
3
3
3
3
3
3
3
3
3
3
3

POINT_DATA 128

SCALARS lambda_h float 1
LOOKUP_TABLE default
-0.000000 
0.000000 
-0.000000 
0.000000 
-0.000000 
0.000000 
-0.000000 
0.000000 
-0.000005 
0.000020 
-0.000020 
0.000076 
-0.000000 
0.000001 
-0.000001 
0.000005 
-0.206443 
0.770457 
-0.770457 
2.875384 
-0.014822 
0.055316 
-0.055316 
0.206443 
-0.000076 
0.000285 
-0.000285 
0.001064 
-0.001064 
0.003972 
-0.003972 
0.014822 
0.519456 
-0.791914 
0.129864 
-1.324099 
-0.010162 
0.038189 
-0.038189 
0.142594 
0.014769 
-0.003775 
0.003775 
-0.000329 
0.000329 
0.002458 
-0.002458 
0.010162 
10.474260 
-15.968209 
2.618565 
-26.699288 
-26.699288 
2.618565 
-15.968209 
10.474260 
0.206439 
-0.055302 
0.055302 
-0.014769 
2.875384 
-0.770456 
0.770456 
-0.206439 
-1.324099 
0.129864 
-0.791914 
0.519456 
0.142594 
-0.038189 
0.038189 
-0.010162 
-0.000324 
0.003756 
-0.003756 
0.014701 
0.010162 
-0.002459 
0.002459 
0.000324 
-26.577215 
2.606593 
-15.895200 
10.426370 
10.426371 
-15.895200 
2.606593 
-26.577215 
-0.014701 
0.055049 
-0.055049 
0.205496 
-0.205496 
0.766933 
-0.766933 
2.862237 
0.000000 
-0.000000 
0.000000 
-0.000000 
0.000000 
-0.000000 
0.000000 
-0.000000 
0.000076 
-0.000020 
0.000020 
-0.000005 
0.000005 
-0.000001 
0.000001 
-0.000000 
2.862237 
-0.766934 
0.766934 
-0.205499 
0.205499 
-0.055063 
0.055063 
-0.014754 
0.001059 
-0.000284 
0.000284 
-0.000076 
0.014754 
-0.003953 
0.003953 
-0.001059 

