# vtk DataFile Version 2.0
Unstructured Grid Example
ASCII
DATASET UNSTRUCTURED_GRID

POINTS 1089 float
0.080531 -0.279193 0.000000 
0.919242 -0.279311 0.000000 
1.000000 1.000000 0.000000 
0.000000 1.000000 0.000000 
0.499157 -0.100000 0.000000 
0.943840 0.317413 0.000000 
0.500000 1.000000 0.000000 
0.056136 0.317450 0.000000 
0.499997 0.324847 0.000000 
0.320592 -0.148892 0.000000 
0.499950 0.018097 0.000000 
0.276738 0.021666 0.000000 
0.679072 -0.148908 0.000000 
0.723235 0.021647 0.000000 
0.953486 0.005781 0.000000 
0.723666 0.321632 0.000000 
0.942603 0.642950 0.000000 
0.729749 0.652879 0.000000 
0.750000 1.000000 0.000000 
0.500001 0.654565 0.000000 
0.250000 1.000000 0.000000 
0.270248 0.652890 0.000000 
0.057384 0.642969 0.000000 
0.276313 0.321660 0.000000 
0.046471 0.005861 0.000000 
0.208944 -0.254485 0.000000 
0.282257 -0.109243 0.000000 
0.169417 -0.127161 0.000000 
0.499831 -0.122759 0.000000 
0.390367 -0.125018 0.000000 
0.382225 -0.069702 0.000000 
0.388992 0.168629 0.000000 
0.390466 0.020258 0.000000 
0.499989 0.168516 0.000000 
0.618988 -0.075577 0.000000 
0.609593 -0.124598 0.000000 
0.830516 -0.127213 0.000000 
0.717804 -0.109295 0.000000 
0.790832 -0.254504 0.000000 
0.609459 0.020176 0.000000 
0.610972 0.168582 0.000000 
0.944562 -0.144576 0.000000 
0.839528 0.013124 0.000000 
0.834353 0.317440 0.000000 
0.837982 0.161427 0.000000 
0.950001 0.160223 0.000000 
0.724145 0.166725 0.000000 
0.611819 0.324249 0.000000 
0.940069 0.477875 0.000000 
0.833437 0.480374 0.000000 
0.853686 0.824244 0.000000 
0.838856 0.649696 0.000000 
0.956522 0.813909 0.000000 
0.724812 0.484276 0.000000 
0.613119 0.486550 0.000000 
0.875000 1.000000 0.000000 
0.738858 0.825424 0.000000 
0.500001 0.825781 0.000000 
0.620072 0.825696 0.000000 
0.625000 1.000000 0.000000 
0.615848 0.654177 0.000000 
0.499999 0.487231 0.000000 
0.375000 1.000000 0.000000 
0.379930 0.825699 0.000000 
0.146312 0.824251 0.000000 
0.261142 0.825429 0.000000 
0.125000 1.000000 0.000000 
0.384153 0.654184 0.000000 
0.386876 0.486564 0.000000 
0.043471 0.813919 0.000000 
0.161137 0.649711 0.000000 
0.165627 0.317470 0.000000 
0.166549 0.480397 0.000000 
0.059912 0.477903 0.000000 
0.275178 0.484296 0.000000 
0.388165 0.324274 0.000000 
0.049971 0.160275 0.000000 
0.161994 0.161463 0.000000 
0.160445 0.013163 0.000000 
0.055330 -0.144457 0.000000 
0.275821 0.166757 0.000000 
0.142339 -0.267740 0.000000 
0.184089 -0.194033 0.000000 
0.126238 -0.204340 0.000000 
0.289819 -0.168005 0.000000 
0.237255 -0.177823 0.000000 
0.277937 -0.223258 0.000000 
0.220124 -0.050280 0.000000 
0.224822 -0.115838 0.000000 
0.278752 -0.046020 0.000000 
0.500957 -0.093614 0.000000 
0.435721 -0.096165 0.000000 
0.437264 -0.056491 0.000000 
0.445542 -0.053689 0.000000 
0.441001 -0.125602 0.000000 
0.499862 -0.054708 0.000000 
0.312411 -0.077794 0.000000 
0.357354 -0.094781 0.000000 
0.302461 -0.140199 0.000000 
0.444380 0.245891 0.000000 
0.444695 0.168608 0.000000 
0.499994 0.245936 0.000000 
0.334487 0.021582 0.000000 
0.389625 0.093549 0.000000 
0.333284 0.093734 0.000000 
0.499979 0.092582 0.000000 
0.445101 0.092938 0.000000 
0.445534 0.018851 0.000000 
0.338334 -0.117899 0.000000 
0.391208 -0.051759 0.000000 
0.336490 -0.048509 0.000000 
0.563659 -0.058791 0.000000 
0.566558 -0.101744 0.000000 
0.696035 -0.140269 0.000000 
0.642170 -0.095191 0.000000 
0.689034 -0.078874 0.000000 
0.558409 -0.125725 0.000000 
0.554363 -0.053782 0.000000 
0.873605 -0.204420 0.000000 
0.815771 -0.194085 0.000000 
0.857441 -0.267809 0.000000 
0.721258 -0.046033 0.000000 
0.775157 -0.115871 0.000000 
0.779862 -0.050303 0.000000 
0.721837 -0.223218 0.000000 
0.762658 -0.177864 0.000000 
0.710290 -0.168157 0.000000 
0.555280 0.168577 0.000000 
0.555604 0.245870 0.000000 
0.554409 0.018787 0.000000 
0.554861 0.092894 0.000000 
0.666667 0.093690 0.000000 
0.610321 0.093484 0.000000 
0.665464 0.021546 0.000000 
0.661898 -0.117789 0.000000 
0.663514 -0.048504 0.000000 
0.608709 -0.051790 0.000000 
0.932736 -0.214860 0.000000 
0.886988 -0.136227 0.000000 
0.896796 0.008277 0.000000 
0.894289 -0.064980 0.000000 
0.951350 -0.070321 0.000000 
0.837213 -0.057981 0.000000 
0.781686 0.018415 0.000000 
0.889113 0.316240 0.000000 
0.891631 0.237178 0.000000 
0.946844 0.238401 0.000000 
0.780154 0.240874 0.000000 
0.836099 0.238525 0.000000 
0.779232 0.319548 0.000000 
0.952558 0.082710 0.000000 
0.894255 0.159471 0.000000 
0.896309 0.083147 0.000000 
0.611422 0.245527 0.000000 
0.555875 0.324763 0.000000 
0.724069 0.092777 0.000000 
0.667268 0.168098 0.000000 
0.667795 0.323233 0.000000 
0.667544 0.244667 0.000000 
0.723878 0.243103 0.000000 
0.839396 0.086259 0.000000 
0.781210 0.164298 0.000000 
0.781907 0.090051 0.000000 
0.941382 0.397099 0.000000 
0.887318 0.396661 0.000000 
0.887733 0.561828 0.000000 
0.886701 0.478502 0.000000 
0.940305 0.559793 0.000000 
0.833320 0.398079 0.000000 
0.778901 0.400137 0.000000 
0.921689 0.911178 0.000000 
0.907121 0.821608 0.000000 
0.971314 0.903306 0.000000 
0.785108 0.651643 0.000000 
0.844990 0.736481 0.000000 
0.790346 0.738009 0.000000 
0.947650 0.727522 0.000000 
0.897117 0.733312 0.000000 
0.890966 0.646731 0.000000 
0.612333 0.404646 0.000000 
0.556194 0.405199 0.000000 
0.723865 0.402099 0.000000 
0.668281 0.403628 0.000000 
0.670870 0.569062 0.000000 
0.669256 0.485640 0.000000 
0.726730 0.567949 0.000000 
0.835137 0.564273 0.000000 
0.781550 0.566368 0.000000 
0.779565 0.482465 0.000000 
0.937500 1.000000 0.000000 
0.864270 0.912276 0.000000 
0.744393 0.912529 0.000000 
0.804749 0.912486 0.000000 
0.812500 1.000000 0.000000 
0.797083 0.825088 0.000000 
0.733855 0.738797 0.000000 
0.500001 0.912551 0.000000 
0.561297 0.912546 0.000000 
0.562500 1.000000 0.000000 
0.559001 0.739691 0.000000 
0.560108 0.825754 0.000000 
0.500001 0.739753 0.000000 
0.687500 1.000000 0.000000 
0.622520 0.912542 0.000000 
0.683589 0.912538 0.000000 
0.556634 0.487059 0.000000 
0.499998 0.405364 0.000000 
0.673193 0.653675 0.000000 
0.614278 0.569789 0.000000 
0.500001 0.570343 0.000000 
0.557241 0.570198 0.000000 
0.558033 0.654460 0.000000 
0.679731 0.825595 0.000000 
0.617806 0.739533 0.000000 
0.676192 0.739255 0.000000 
0.437500 1.000000 0.000000 
0.438705 0.912547 0.000000 
0.316412 0.912540 0.000000 
0.377482 0.912543 0.000000 
0.312500 1.000000 0.000000 
0.439895 0.825756 0.000000 
0.441002 0.739693 0.000000 
0.078309 0.911181 0.000000 
0.135730 0.912279 0.000000 
0.062500 1.000000 0.000000 
0.266144 0.738805 0.000000 
0.202916 0.825094 0.000000 
0.209651 0.738019 0.000000 
0.187500 1.000000 0.000000 
0.195251 0.912489 0.000000 
0.255608 0.912532 0.000000 
0.443364 0.487067 0.000000 
0.443801 0.405209 0.000000 
0.441969 0.654464 0.000000 
0.442759 0.570204 0.000000 
0.329126 0.569076 0.000000 
0.385721 0.569799 0.000000 
0.326806 0.653685 0.000000 
0.320270 0.825599 0.000000 
0.323808 0.739261 0.000000 
0.382196 0.739538 0.000000 
0.028682 0.903311 0.000000 
0.092875 0.821616 0.000000 
0.109024 0.646747 0.000000 
0.102876 0.733324 0.000000 
0.052340 0.727536 0.000000 
0.155005 0.736491 0.000000 
0.214886 0.651656 0.000000 
0.110866 0.316274 0.000000 
0.112663 0.396690 0.000000 
0.058597 0.397132 0.000000 
0.221083 0.400162 0.000000 
0.166663 0.398105 0.000000 
0.220748 0.319576 0.000000 
0.059679 0.559816 0.000000 
0.113283 0.478527 0.000000 
0.112254 0.561849 0.000000 
0.387658 0.404664 0.000000 
0.444115 0.324777 0.000000 
0.273263 0.567964 0.000000 
0.330736 0.485658 0.000000 
0.332185 0.323260 0.000000 
0.331706 0.403650 0.000000 
0.276120 0.402123 0.000000 
0.164852 0.564291 0.000000 
0.220423 0.482486 0.000000 
0.218442 0.566385 0.000000 
0.053130 0.238445 0.000000 
0.108346 0.237218 0.000000 
0.103664 0.083199 0.000000 
0.105721 0.159516 0.000000 
0.047410 0.082774 0.000000 
0.163879 0.238559 0.000000 
0.219821 0.240904 0.000000 
0.112919 -0.136148 0.000000 
0.067094 -0.214735 0.000000 
0.218290 0.018438 0.000000 
0.162751 -0.057937 0.000000 
0.048585 -0.070221 0.000000 
0.105658 -0.064910 0.000000 
0.103170 0.008337 0.000000 
0.388554 0.245560 0.000000 
0.276095 0.243134 0.000000 
0.332427 0.244701 0.000000 
0.332693 0.168138 0.000000 
0.275894 0.092805 0.000000 
0.160579 0.086296 0.000000 
0.218065 0.090079 0.000000 
0.218763 0.164329 0.000000 
0.110999 -0.273022 0.000000 
0.134593 -0.236698 0.000000 
0.104107 -0.241709 0.000000 
0.195776 -0.225456 0.000000 
0.165263 -0.231651 0.000000 
0.174965 -0.262058 0.000000 
0.147463 -0.166205 0.000000 
0.155515 -0.199594 0.000000 
0.175439 -0.161020 0.000000 
0.284358 -0.147428 0.000000 
0.275918 -0.184262 0.000000 
0.306252 -0.191934 0.000000 
0.256614 -0.140608 0.000000 
0.261925 -0.168382 0.000000 
0.284973 -0.139063 0.000000 
0.243843 -0.242743 0.000000 
0.252998 -0.204525 0.000000 
0.225435 -0.216864 0.000000 
0.248204 -0.013928 0.000000 
0.249317 -0.047379 0.000000 
0.277576 -0.012664 0.000000 
0.197100 -0.121697 0.000000 
0.221973 -0.083461 0.000000 
0.193560 -0.088123 0.000000 
0.280296 -0.078254 0.000000 
0.250920 -0.079769 0.000000 
0.253193 -0.110933 0.000000 
0.211484 -0.186899 0.000000 
0.229378 -0.147387 0.000000 
0.202655 -0.154735 0.000000 
0.498868 -0.095491 0.000000 
0.461866 -0.089463 0.000000 
0.461398 -0.087059 0.000000 
0.462450 -0.116316 0.000000 
0.469708 -0.111155 0.000000 
0.500304 -0.121259 0.000000 
0.410082 -0.088486 0.000000 
0.433032 -0.068435 0.000000 
0.400004 -0.067261 0.000000 
0.472800 -0.018468 0.000000 
0.472589 -0.054902 0.000000 
0.499917 -0.018570 0.000000 
0.417497 -0.118573 0.000000 
0.444832 -0.089421 0.000000 
0.417360 -0.086309 0.000000 
0.499790 -0.089827 0.000000 
0.471684 -0.091175 0.000000 
0.469862 -0.126993 0.000000 
0.322521 -0.100000 0.000000 
0.307846 -0.107140 0.000000 
0.285693 -0.112347 0.000000 
0.372921 -0.089136 0.000000 
0.344448 -0.106770 0.000000 
0.348100 -0.078081 0.000000 
0.338692 -0.128868 0.000000 
0.336005 -0.125790 0.000000 
0.368483 -0.110794 0.000000 
0.428504 -0.103029 0.000000 
0.396216 -0.092654 0.000000 
[...]
POINT_DATA 1089

SCALARS u_h float 2
LOOKUP_TABLE default
0.080531 -0.279193 
-0.080758 -0.279311 
0.000000 0.000000 
0.000000 0.000000 
-0.000843 -0.100000 
-0.056160 -0.182587 
0.000000 0.000000 
0.056136 -0.182550 
-0.000003 -0.175153 
0.070592 -0.148892 
-0.000050 -0.231903 
0.026738 -0.228334 
-0.070928 -0.148908 
-0.026765 -0.228353 
-0.046514 -0.244219 
-0.026334 -0.178368 
-0.057397 -0.107050 
-0.020251 -0.097121 
0.000000 0.000000 
0.000001 -0.095435 
0.000000 0.000000 
0.020248 -0.097110 
0.057384 -0.107031 
0.026313 -0.178340 
0.046471 -0.244139 
0.083944 -0.254485 
0.032257 -0.234243 
0.044417 -0.252161 
-0.000169 -0.247759 
0.015367 -0.250018 
0.007225 -0.069702 
0.013992 -0.206371 
0.015466 -0.229742 
-0.000011 -0.206484 
-0.006012 -0.075577 
-0.015407 -0.249598 
-0.044484 -0.252213 
-0.032196 -0.234295 
-0.084168 -0.254504 
-0.015541 -0.229824 
-0.014028 -0.206418 
-0.055438 -0.269576 
-0.035472 -0.236876 
-0.040647 -0.182560 
-0.037018 -0.213573 
-0.049999 -0.214777 
-0.025855 -0.208275 
-0.013181 -0.175751 
-0.059931 -0.147125 
-0.041563 -0.144626 
-0.021314 -0.050756 
-0.036144 -0.100304 
-0.043478 -0.061091 
-0.025188 -0.140724 
-0.011881 -0.138450 
0.000000 0.000000 
-0.011142 -0.049576 
0.000001 -0.049219 
-0.004928 -0.049304 
0.000000 0.000000 
-0.009152 -0.095823 
-0.000001 -0.137769 
0.000000 0.000000 
0.004930 -0.049301 
0.021312 -0.050749 
0.011142 -0.049571 
0.000000 0.000000 
0.009153 -0.095816 
0.011876 -0.138436 
0.043471 -0.061081 
0.036137 -0.100289 
0.040627 -0.182530 
0.041549 -0.144603 
0.059912 -0.147097 
0.025178 -0.140704 
0.013165 -0.175726 
0.049971 -0.214725 
0.036994 -0.213537 
0.035445 -0.236837 
0.055330 -0.269457 
0.025821 -0.208243 
0.079839 -0.267740 
0.059089 -0.256533 
0.063738 -0.266840 
0.039819 -0.230505 
0.049755 -0.240323 
0.090437 -0.223258 
0.032624 -0.237780 
0.037322 -0.240838 
0.028752 -0.233520 
0.000957 -0.156114 
-0.001779 -0.158665 
-0.000236 -0.056491 
0.008042 -0.241189 
0.003501 -0.250602 
-0.000138 -0.242208 
-0.000089 -0.077794 
-0.017646 -0.157281 
-0.010039 -0.202699 
0.006880 -0.191609 
0.007195 -0.206392 
-0.000006 -0.191564 
0.021987 -0.228418 
0.014625 -0.218951 
0.020784 -0.218766 
-0.000021 -0.219918 
0.007601 -0.219562 
0.008034 -0.231149 
0.025834 -0.242899 
0.016208 -0.239259 
0.023990 -0.236009 
0.001159 -0.058791 
0.004058 -0.164244 
0.008535 -0.202769 
0.017170 -0.157691 
0.001534 -0.078874 
-0.004091 -0.250725 
-0.008137 -0.241282 
-0.063895 -0.266920 
-0.059229 -0.256585 
-0.080059 -0.267809 
-0.028742 -0.233533 
-0.037343 -0.240871 
-0.032638 -0.237803 
-0.090663 -0.223218 
-0.049842 -0.240364 
-0.039710 -0.230657 
-0.007220 -0.206423 
-0.006896 -0.191630 
-0.008091 -0.231213 
-0.007639 -0.219606 
-0.020833 -0.218810 
-0.014679 -0.219016 
-0.022036 -0.228454 
-0.025602 -0.242789 
-0.023986 -0.236004 
-0.016291 -0.239290 
-0.067264 -0.277360 
-0.050512 -0.261227 
-0.040704 -0.241723 
-0.043211 -0.252480 
-0.048650 -0.257821 
-0.037787 -0.245481 
-0.030814 -0.231585 
-0.048387 -0.183760 
-0.045869 -0.200322 
-0.053156 -0.199099 
-0.032346 -0.196626 
-0.038901 -0.198975 
-0.033268 -0.180452 
-0.047442 -0.229790 
-0.043245 -0.215529 
-0.041191 -0.229353 
-0.013578 -0.191973 
-0.006625 -0.175237 
-0.025931 -0.219723 
-0.020232 -0.206902 
-0.019705 -0.176767 
-0.019956 -0.192833 
-0.026122 -0.194397 
-0.035604 -0.226241 
-0.031290 -0.210702 
-0.030593 -0.222449 
-0.058618 -0.165401 
-0.050182 -0.165839 
-0.049767 -0.125672 
-0.050799 -0.146498 
-0.059695 -0.127707 
-0.041680 -0.164421 
-0.033599 -0.162363 
-0.015811 -0.026322 
-0.030379 -0.053392 
-0.028686 -0.034194 
-0.027392 -0.098357 
-0.030010 -0.076019 
-0.022154 -0.074491 
-0.052350 -0.084978 
-0.040383 -0.079188 
-0.046534 -0.103269 
-0.012667 -0.157854 
-0.006306 -0.157301 
-0.026135 -0.160401 
-0.019219 -0.158872 
-0.016630 -0.118438 
-0.018244 -0.139360 
-0.023270 -0.119551 
-0.039863 -0.123227 
-0.030950 -0.121132 
-0.032935 -0.142535 
0.000000 0.000000 
-0.010730 -0.025224 
-0.005607 -0.024971 
-0.007751 -0.025014 
0.000000 0.000000 
-0.015417 -0.049912 
-0.016145 -0.073703 
0.000001 -0.024949 
-0.001203 -0.024954 
0.000000 0.000000 
-0.003499 -0.072809 
-0.002392 -0.049246 
0.000001 -0.072747 
0.000000 0.000000 
-0.002480 -0.024958 
-0.003911 -0.024962 
-0.005866 -0.137941 
-0.000002 -0.157136 
-0.014307 -0.096325 
-0.010722 -0.117711 
0.000001 -0.117157 
-0.005259 -0.117302 
-0.004467 -0.095540 
-0.007769 -0.049405 
-0.007194 -0.072967 
-0.011308 -0.073245 
0.000000 0.000000 
0.001205 -0.024953 
0.003912 -0.024960 
0.002482 -0.024957 
0.000000 0.000000 
0.002395 -0.049244 
0.003502 -0.072807 
0.015809 -0.026319 
0.010730 -0.025221 
0.000000 0.000000 
0.016144 -0.073695 
0.015416 -0.049906 
0.022151 -0.074481 
0.000000 0.000000 
0.007751 -0.025011 
0.005608 -0.024968 
0.005864 -0.137933 
0.006301 -0.157291 
0.004469 -0.095536 
0.005259 -0.117296 
0.016626 -0.118424 
0.010721 -0.117701 
0.014306 -0.096315 
0.007770 -0.049401 
0.011308 -0.073239 
0.007196 -0.072962 
0.028682 -0.034189 
0.030375 -0.053384 
0.046524 -0.103253 
0.040376 -0.079176 
0.052340 -0.084964 
0.030005 -0.076009 
0.027386 -0.098344 
0.048366 -0.183726 
0.050163 -0.165810 
0.058597 -0.165368 
0.033583 -0.162338 
0.041663 -0.164395 
0.033248 -0.180424 
0.059679 -0.127684 
0.050783 -0.146473 
0.049754 -0.125651 
0.012658 -0.157836 
0.006615 -0.175223 
0.023263 -0.119536 
0.018236 -0.139342 
0.019685 -0.176740 
0.019206 -0.158850 
0.026120 -0.160377 
0.039852 -0.123209 
0.032923 -0.142514 
0.030942 -0.121115 
0.053130 -0.199055 
0.045846 -0.200282 
0.041164 -0.229301 
0.043221 -0.215484 
0.047410 -0.229726 
0.038879 -0.198941 
0.032321 -0.196596 
0.050419 -0.261148 
0.067094 -0.277235 
0.030790 -0.231562 
0.037751 -0.245437 
0.048585 -0.257721 
0.043158 -0.252410 
0.040670 -0.241663 
0.013554 -0.191940 
0.026095 -0.194366 
0.019927 -0.192799 
0.020193 -0.206862 
0.025894 -0.219695 
0.035579 -0.226204 
0.030565 -0.222421 
0.031263 -0.210671 
0.079749 -0.273022 
0.072093 -0.267948 
0.072857 -0.272959 
0.070776 -0.256706 
0.071513 -0.262901 
0.081215 -0.262058 
0.053713 -0.259955 
0.061765 -0.262094 
0.050439 -0.254770 
0.034358 -0.178678 
0.057168 -0.215512 
0.087502 -0.191934 
0.037864 -0.234358 
0.043175 -0.230882 
0.034973 -0.232813 
0.087593 -0.242743 
0.065498 -0.235775 
0.069185 -0.248114 
0.029454 -0.232678 
0.030567 -0.234879 
0.027576 -0.231414 
0.040850 -0.246697 
0.034473 -0.239711 
0.037310 -0.244373 
0.030296 -0.234504 
0.032170 -0.236019 
0.034443 -0.235933 
0.055234 -0.249399 
0.041878 -0.241137 
0.046405 -0.248485 
-0.001132 -0.126741 
-0.006884 -0.120713 
-0.007352 -0.087059 
-0.006300 -0.210066 
0.000958 -0.173655 
0.000304 -0.215009 
0.003832 -0.088486 
-0.004468 -0.099685 
-0.006246 -0.098511 
0.004050 -0.237218 
0.003839 -0.242402 
-0.000083 -0.237320 
0.011247 -0.243573 
0.007332 -0.245671 
0.011110 -0.242559 
-0.000210 -0.246077 
0.002934 -0.247425 
0.001112 -0.251993 
0.041271 -0.100000 
-0.004654 -0.138390 
0.004443 -0.143597 
-0.002079 -0.120386 
0.000698 -0.138020 
0.004350 -0.078081 
-0.005058 -0.222618 
-0.007745 -0.188290 
-0.006517 -0.204544 
-0.008996 -0.196779 
-0.010034 -0.186404 
-0.009124 -0.159233 
0.003375 -0.183540 
0.003449 -0.191565 
-0.000005 -0.183541 
0.010659 -0.206337 
0.007028 -0.199203 
0.010443 -0.199246 
-0.000008 -0.199212 
0.003531 -0.199203 
0.003621 -0.206455 
0.024568 -0.228002 
0.021293 -0.223873 
0.023896 -0.223865 
0.015029 -0.224556 
0.018313 -0.224106 
0.018898 -0.228948 
0.017457 -0.212898 
0.017832 -0.218758 
0.014279 -0.212893 
-0.000032 -0.226092 
0.003947 -0.225962 
0.004037 -0.231753 
0.003723 -0.213327 
0.003834 -0.219825 
-0.000015 -0.213384 
0.011780 -0.230256 
0.007827 -0.225551 
0.011501 -0.224963 
0.010911 -0.212991 
0.011196 -0.219203 
0.007386 -0.213177 
-0.003354 -0.204023 
0.022998 -0.242308 
0.021115 -0.247475 
0.031879 -0.231652 
0.029903 -0.234845 
0.008154 -0.236360 
0.015886 -0.234587 
0.011945 -0.235042 
0.011822 -0.239224 
0.016303 -0.244107 
0.025508 -0.231362 
0.028257 -0.235148 
0.026745 -0.233823 
0.022887 -0.232433 
0.019569 -0.233299 
0.021050 -0.240451 
0.020284 -0.237166 
0.025186 -0.239351 
0.005026 -0.086493 
0.004363 -0.120180 
0.006228 -0.100512 
0.005236 -0.104508 
-0.003896 -0.091244 
0.000193 -0.175081 
0.006858 -0.211015 
-0.004959 -0.143651 
0.003212 -0.139708 
-0.041598 -0.100000 
0.007248 -0.205236 
0.008063 -0.188965 
0.005031 -0.222329 
-0.001872 -0.083199 
-0.001005 -0.143455 
0.000709 -0.126720 
-0.004005 -0.242267 
-0.004158 -0.237176 
-0.001584 -0.251276 
-0.003212 -0.247082 
-0.011370 -0.243094 
-0.007487 -0.245795 
-0.011423 -0.244762 
0.010249 -0.157880 
0.010832 -0.188908 
0.010221 -0.199872 
-0.073052 -0.273055 
-0.072285 -0.268023 
-0.079971 -0.273114 
-0.050537 -0.254824 
-0.061915 -0.262159 
-0.053825 -0.260021 
-0.081436 -0.262105 
-0.071704 -0.262958 
-0.070971 -0.256743 
-0.027590 -0.231429 
-0.030569 -0.234895 
-0.029468 -0.232694 
-0.034432 -0.235970 
-0.032160 -0.236041 
-0.030257 -0.234526 
-0.037342 -0.244408 
-0.034486 -0.239737 
-0.040898 -0.246738 
-0.087760 -0.191912 
-0.057461 -0.215427 
-0.034787 -0.178730 
-0.069389 -0.248127 
-0.065726 -0.235745 
-0.087819 -0.242729 
-0.034942 -0.232912 
-0.043176 -0.230985 
-0.037878 -0.234415 
-0.046482 -0.248529 
-0.041925 -0.241177 
-0.055358 -0.249441 
-0.003463 -0.191576 
-0.003385 -0.183549 
-0.003643 -0.206470 
-0.003548 -0.199215 
-0.010468 -0.199281 
-0.007048 -0.199228 
-0.010690 -0.206381 
-0.004110 -0.231750 
-0.003998 -0.225975 
-0.011561 -0.225057 
-0.007874 -0.225604 
-0.011858 -0.230388 
-0.003872 -0.219842 
-0.003752 -0.213344 
-0.023938 -0.223895 
-0.021345 -0.223915 
-0.024603 -0.228025 
-0.014323 -0.212949 
-0.017886 -0.218816 
-0.017504 -0.212949 
-0.018962 -0.229017 
-0.018373 -0.224169 
-0.015093 -0.224631 
-0.007417 -0.213214 
-0.011244 -0.219273 
-0.010949 -0.213046 
0.002947 -0.203725 
-0.029760 -0.234902 
-0.031790 -0.231874 
-0.020995 -0.247269 
-0.022521 -0.242664 
-0.025526 -0.231377 
-0.019627 -0.233375 
-0.022921 -0.232455 
-0.026728 -0.233829 
-0.028183 -0.235157 
-0.008226 -0.236436 
-0.016367 -0.244004 
-0.011975 -0.239533 
-0.012049 -0.235236 
-0.015970 -0.234663 
-0.025102 -0.239302 
-0.020313 -0.237255 
-0.020983 -0.240587 
-0.074180 -0.279064 
-0.065562 -0.271700 
-0.052984 -0.265292 
-0.058665 -0.269047 
-0.060817 -0.274125 
-0.056451 -0.264563 
-0.047719 -0.256985 
-0.043497 -0.243382 
-0.044184 -0.249579 
-0.047095 -0.251162 
-0.038831 -0.244553 
-0.041476 -0.247320 
-0.038036 -0.239484 
-0.051383 -0.264039 
-0.045854 -0.255378 
-0.048730 -0.260668 
-0.031472 -0.235077 
-0.028761 -0.229563 
-0.040413 -0.249072 
-0.035090 -0.241560 
-0.033048 -0.234141 
-0.033739 -0.238148 
-0.036229 -0.241425 
-0.046147 -0.257147 
-0.040531 -0.249170 
-0.043392 -0.253327 
-0.052297 -0.183590 
-0.050933 -0.192001 
-0.054723 -0.190957 
-0.043461 -0.191805 
-0.047173 -0.192209 
-0.044487 -0.183351 
-0.051553 -0.207031 
-0.049480 -0.200141 
-0.047994 -0.208011 
-0.029517 -0.187663 
-0.032852 -0.188789 
-0.029750 -0.179368 
-0.037943 -0.206507 
-0.035571 -0.197843 
-0.034821 -0.205256 
-0.036901 -0.181550 
-0.036285 -0.189935 
-0.039824 -0.190988 
-0.046694 -0.237080 
-0.044217 -0.230043 
-0.043574 -0.236857 
-0.046555 -0.215617 
-0.045258 -0.222960 
-0.048590 -0.222358 
-0.039080 -0.221600 
-0.042094 -0.222617 
-0.040067 -0.214769 
-0.042338 -0.199863 
-0.041182 -0.207521 
-0.044535 -0.208096 
-0.006758 -0.183631 
-0.003321 -0.175136 
-0.013786 -0.199424 
-0.010274 -0.191752 
-0.009911 -0.175439 
-0.010093 -0.183800 
-0.013384 -0.184078 
-0.026228 -0.224422 
-0.023495 -0.219057 
-0.023100 -0.207454 
-0.023231 -0.213563 
-0.025824 -0.214323 
-0.020474 -0.213136 
-0.017211 -0.206571 
-0.022994 -0.177494 
-0.023046 -0.185755 
-0.026259 -0.186636 
-0.016631 -0.184483 
-0.019846 -0.185038 
-0.016441 -0.176189 
-0.025971 -0.201620 
-0.023052 -0.193520 
-0.023055 -0.200763 
-0.016987 -0.199692 
-0.020072 -0.200128 
-0.016803 -0.192324 
-0.040674 -0.235727 
-0.036208 -0.220156 
-0.038325 -0.228002 
-0.037927 -0.233966 
-0.035316 -0.231817 
-0.029207 -0.195448 
-0.028562 -0.209373 
-0.028870 -0.202695 
-0.031805 -0.203939 
-0.034098 -0.212154 
-0.028377 -0.225596 
-0.032853 -0.229526 
-0.030550 -0.227363 
-0.028256 -0.220870 
-0.028338 -0.215445 
-0.033474 -0.218513 
-0.030864 -0.216883 
-0.033029 -0.224311 
-0.057514 -0.174130 
-0.053491 -0.174918 
-0.055110 -0.156662 
-0.054445 -0.165945 
-0.059440 -0.156401 
-0.049403 -0.174974 
-0.045313 -0.174508 
-0.053738 -0.116165 
-0.054815 -0.126824 
-0.058841 -0.117542 
-0.046140 -0.145639 
-0.050521 -0.136276 
-0.045673 -0.135234 
-0.060036 -0.137564 
-0.055356 -0.137115 
-0.055433 -0.147056 
-0.033536 -0.171635 
-0.029861 -0.170583 
-0.041280 -0.173701 
-0.037345 -0.172704 
-0.037517 -0.153698 
-0.037567 -0.163415 
-0.041792 -0.154727 
-0.050666 -0.156350 
-0.046198 -0.155652 
-0.045903 -0.165275 
-0.009969 -0.013812 
-0.020798 -0.028529 
-0.017393 -0.018551 
-0.025317 -0.051695 
-0.023645 -0.039940 
-0.019335 -0.038601 
-0.037039 -0.048163 
-0.029618 -0.042757 
-0.036604 -0.056343 
-0.023644 -0.097671 
-0.024980 -0.086539 
-0.021469 -0.085963 
-0.033398 -0.088315 
-0.028934 -0.087299 
-0.031547 -0.099220 
-0.022165 -0.062739 
-0.025800 -0.075119 
-0.025968 -0.063473 
-0.055271 -0.096207 
-0.049626 -0.093653 
-0.052042 -0.105118 
-0.042093 -0.069316 
-0.046363 -0.081734 
-0.048485 -0.073305 
-0.041170 -0.101649 
-0.043877 -0.091444 
-0.038399 -0.089672 
-0.030518 -0.064642 
-0.034870 -0.077324 
-0.035927 -0.066498 
-0.006477 -0.166455 
-0.003247 -0.166339 
-0.012950 -0.167001 
-0.009709 -0.166673 
-0.009187 -0.148010 
-0.009472 -0.157524 
-0.012316 -0.148330 
-0.026312 -0.169611 
-0.022869 -0.168756 
-0.022214 -0.149973 
-0.022619 -0.159573 
-0.025771 -0.150763 
-0.019511 -0.168034 
-0.016211 -0.167451 
-0.018610 -0.107948 
-0.019838 -0.118941 
-0.021901 -0.108477 
-0.015005 -0.138851 
-0.017523 -0.129061 
-0.014372 -0.128599 
-0.024361 -0.130310 
-0.020842 -0.129629 
-0.021628 -0.139983 
-0.015909 -0.158301 
-0.018804 -0.149305 
-0.015513 -0.148759 
-0.048466 -0.114674 
-0.038282 -0.111949 
-0.043256 -0.113238 
-0.044733 -0.124434 
-0.040938 -0.134123 
-0.025476 -0.109122 
-0.028114 -0.131107 
-0.026962 -0.120278 
-0.029379 -0.109901 
-0.033645 -0.110837 
-0.029790 -0.161341 
-0.037145 -0.143566 
-0.033413 -0.152657 
-0.029499 -0.151665 
-0.028951 -0.141579 
-0.035253 -0.122117 
-0.032126 -0.132019 
-0.036405 -0.133034 
0.000000 0.000000 
-0.007615 -0.012962 
-0.005256 -0.012569 
-0.006240 -0.012677 
0.000000 0.000000 
-0.012837 -0.025547 
-0.016168 -0.037972 
-0.002784 -0.012530 
-0.003274 -0.012523 
0.000000 0.000000 
-0.009920 -0.037384 
-0.006607 -0.024984 
-0.008413 -0.037323 
0.000000 0.000000 
-0.003832 -0.012521 
-0.004479 -0.012531 
-0.018967 -0.074039 
-0.018327 -0.085518 
-0.018092 -0.050227 
-0.018946 -0.062264 
-0.013736 -0.061712 
-0.016171 -0.061942 
-0.013134 -0.049712 
-0.009095 -0.025079 
-0.011650 -0.037483 
-0.013687 -0.037654 
0.000001 -0.012557 
-0.000297 -0.012558 
0.000000 0.000000 
-0.000895 -0.037178 
-0.000597 -0.024952 
0.000001 -0.037172 
0.000000 0.000000 
-0.000599 -0.012557 
-0.000910 -0.012556 
-0.001988 -0.084230 
-0.001737 -0.072767 
0.000001 -0.084204 
-0.003633 -0.049270 
-0.002960 -0.061124 
-0.004494 -0.061168 
0.000002 -0.061081 
-0.001469 -0.061096 
-0.001187 -0.049229 
0.000000 0.000000 
-0.001945 -0.012544 
-0.002345 -0.012537 
-0.001235 -0.012553 
-0.001578 -0.012549 
0.000000 0.000000 
-0.004752 -0.037229 
-0.003170 -0.024960 
-0.003718 -0.037211 
-0.001804 -0.037186 
-0.002740 -0.037197 
-0.001828 -0.024956 
-0.003155 -0.157175 
-0.000003 -0.166317 
-0.008843 -0.138149 
-0.006104 -0.147790 
-0.000001 -0.147616 
-0.003049 -0.147662 
-0.002925 -0.137816 
-0.017157 -0.096680 
-0.015557 -0.107516 
-0.009989 -0.106899 
-0.012697 -0.107170 
-0.011653 -0.096043 
-0.013604 -0.118031 
-0.011352 -0.128236 
0.000001 -0.106426 
-0.002430 -0.106463 
-0.002220 -0.095467 
-0.002782 -0.127656 
-0.002617 -0.117199 
0.000000 -0.127610 
-0.006768 -0.095657 
-0.004886 -0.106551 
-0.007396 -0.106695 
-0.008433 -0.127962 
-0.007951 -0.117470 
-0.005585 -0.127771 
-0.004717 -0.024965 
-0.006298 -0.049348 
-0.005863 -0.037251 
-0.007074 -0.037281 
-0.009370 -0.049478 
-0.004004 -0.084287 
-0.008218 -0.084505 
-0.006071 -0.084377 
-0.005310 -0.072875 
-0.006092 -0.061228 
-0.015485 -0.085169 
-0.011563 -0.061540 
-0.013612 -0.073446 
-0.012886 -0.084893 
-0.010478 -0.084675 
-0.007782 -0.061307 
-0.009182 -0.073089 
-0.009594 -0.061409 
0.000000 0.000000 
0.000298 -0.012558 
0.000911 -0.012555 
0.000600 -0.012557 
0.000000 0.000000 
0.000598 -0.024951 
0.000897 -0.037177 
0.002345 -0.012536 
0.001946 -0.012543 
0.000000 0.000000 
0.003719 -0.037209 
0.003172 -0.024958 
0.004754 -0.037226 
0.000000 0.000000 
0.001578 -0.012548 
0.001235 -0.012553 
0.001740 -0.072766 
0.001991 -0.084228 
0.001189 -0.049228 
0.001472 -0.061095 
0.004496 -0.061164 
0.002963 -0.061122 
0.003636 -0.049268 
0.001830 -0.024955 
0.002742 -0.037195 
0.001806 -0.037185 
0.009968 -0.013810 
0.007614 -0.012960 
0.000000 0.000000 
0.016166 -0.037967 
0.012835 -0.025544 
0.019333 -0.038596 
0.000000 0.000000 
0.006239 -0.012675 
0.005256 -0.012568 
0.018325 -0.085508 
0.018965 -0.074030 
0.021466 -0.085952 
0.013133 -0.049706 
0.016170 -0.061934 
0.013736 -0.061705 
0.022163 -0.062731 
0.018944 -0.062256 
0.018090 -0.050221 
0.000000 0.000000 
0.003275 -0.012522 
0.002784 -0.012528 
0.004479 -0.012529 
0.003832 -0.012520 
0.000000 0.000000 
0.008413 -0.037319 
0.006607 -0.024981 
0.009920 -0.037380 
0.013686 -0.037650 
0.011650 -0.037479 
0.009094 -0.025076 
0.003151 -0.157169 
0.003241 -0.166332 
0.002924 -0.137812 
0.003046 -0.147657 
0.009182 -0.147997 
0.006101 -0.147781 
0.008840 -0.138138 
0.002222 -0.095465 
0.002431 -0.106461 
0.007397 -0.106688 
0.004888 -0.106547 
0.006770 -0.095652 
0.002618 -0.117196 
0.002782 -0.127653 
0.018607 -0.107935 
0.015555 -0.107505 
0.017155 -0.096669 
0.011349 -0.128224 
0.013601 -0.118019 
0.014367 -0.128586 
0.011653 -0.096034 
0.012696 -0.107160 
0.009988 -0.106890 
0.005584 -0.127765 
0.007951 -0.117463 
0.008431 -0.127953 
0.004718 -0.024962 
0.009371 -0.049473 
0.007075 -0.037278 
0.005865 -0.037248 
0.006300 -0.049345 
0.015484 -0.085160 
0.010478 -0.084667 
0.012885 -0.084884 
0.013612 -0.073438 
0.011563 -0.061534 
0.004006 -0.084284 
0.006094 -0.061224 
0.005312 -0.072871 
0.006073 -0.084373 
0.008219 -0.084499 
0.009594 -0.061403 
0.009183 -0.073083 
0.007784 -0.061302 
0.017391 -0.018549 
0.020795 -0.028525 
0.036598 -0.056334 
0.029614 -0.042750 
0.037033 -0.048155 
0.023643 -0.039934 
0.025314 -0.051688 
0.052030 -0.105101 
0.049616 -0.093638 
0.055260 -0.096191 
0.038392 -0.089659 
0.043868 -0.091431 
0.041161 -0.101634 
0.048477 -0.073293 
0.046355 -0.081721 
0.042086 -0.069305 
0.024976 -0.086528 
0.023640 -0.097658 
0.025965 -0.063464 
0.025796 -0.075109 
0.031541 -0.099206 
0.028930 -0.087287 
0.033392 -0.088302 
0.035922 -0.066488 
0.034864 -0.077313 
0.030514 -0.064633 
0.052275 -0.183554 
0.053470 -0.174884 
0.057492 -0.174095 
0.045294 -0.174478 
0.049383 -0.174942 
0.044467 -0.183319 
0.059420 -0.156371 
0.054425 -0.165914 
0.055092 -0.156633 
0.029843 -0.170557 
0.033518 -0.171608 
0.029730 -0.179340 
0.041777 -0.154702 
0.037551 -0.163390 
0.037502 -0.153674 
0.036881 -0.181521 
0.037327 -0.172676 
0.041261 -0.173673 
0.058826 -0.117521 
0.054800 -0.126802 
0.053725 -0.116146 
0.055416 -0.147029 
0.055340 -0.137091 
0.060019 -0.137539 
0.045660 -0.135212 
0.050506 -0.136253 
0.046126 -0.145615 
0.045885 -0.165247 
0.046181 -0.155626 
0.050648 -0.156322 
0.006469 -0.166442 
0.003313 -0.175128 
0.012309 -0.148314 
0.009465 -0.157509 
0.009898 -0.175418 
0.009699 -0.166655 
0.012937 -0.166980 
0.021896 -0.108464 
0.019833 -0.118927 
0.021619 -0.139965 
0.020835 -0.129613 
0.024353 -0.130293 
0.017518 -0.129046 
0.014999 -0.138835 
0.022974 -0.177467 
0.022852 -0.168730 
0.026294 -0.169585 
0.016197 -0.167428 
0.019495 -0.168010 