# vtk DataFile Version 2.0
Unstructured Grid Example
ASCII
DATASET UNSTRUCTURED_GRID

POINTS 81 float
0.036426 -0.269307 0.000000 
0.963574 -0.269307 0.000000 
1.000000 1.000000 0.000000 
0.000000 1.000000 0.000000 
0.500000 -0.118803 0.000000 
0.944554 0.318357 0.000000 
0.500000 1.000000 0.000000 
0.055446 0.318357 0.000000 
0.500000 0.316668 0.000000 
0.286471 -0.250000 0.000000 
0.500000 0.009221 0.000000 
0.269365 0.011446 0.000000 
0.713529 -0.250000 0.000000 
0.730635 0.011446 0.000000 
0.960625 0.011133 0.000000 
0.723711 0.317144 0.000000 
0.943277 0.643070 0.000000 
0.729341 0.651290 0.000000 
0.750000 1.000000 0.000000 
0.500000 0.651697 0.000000 
0.250000 1.000000 0.000000 
0.270659 0.651290 0.000000 
0.056723 0.643070 0.000000 
0.276289 0.317144 0.000000 
0.039375 0.011133 0.000000 
0.159276 -0.265153 0.000000 
0.266926 -0.127368 0.000000 
0.150992 -0.132978 0.000000 
0.500000 -0.128403 0.000000 
0.376010 -0.133622 0.000000 
0.351197 -0.100000 0.000000 
0.386692 0.159867 0.000000 
0.384440 0.009753 0.000000 
0.500000 0.159175 0.000000 
0.648803 -0.100000 0.000000 
0.623990 -0.133622 0.000000 
0.849008 -0.132978 0.000000 
0.733074 -0.127368 0.000000 
0.840724 -0.265153 0.000000 
0.615560 0.009753 0.000000 
0.613308 0.159867 0.000000 
0.966958 -0.133646 0.000000 
0.845808 0.008929 0.000000 
0.833937 0.315840 0.000000 
0.839537 0.158842 0.000000 
0.951636 0.162051 0.000000 
0.726720 0.160132 0.000000 
0.612090 0.317572 0.000000 
0.940048 0.477517 0.000000 
0.832774 0.479287 0.000000 
0.854814 0.824392 0.000000 
0.838906 0.649094 0.000000 
0.958621 0.816126 0.000000 
0.724082 0.481395 0.000000 
0.612607 0.482067 0.000000 
0.875000 1.000000 0.000000 
0.738638 0.824693 0.000000 
0.500000 0.824578 0.000000 
0.619756 0.824529 0.000000 
0.625000 1.000000 0.000000 
0.615370 0.651557 0.000000 
0.500000 0.482066 0.000000 
0.375000 1.000000 0.000000 
0.380244 0.824529 0.000000 
0.145186 0.824392 0.000000 
0.261362 0.824693 0.000000 
0.125000 1.000000 0.000000 
0.384630 0.651557 0.000000 
0.387393 0.482067 0.000000 
0.041379 0.816126 0.000000 
0.161094 0.649094 0.000000 
0.166063 0.315840 0.000000 
0.167226 0.479287 0.000000 
0.059952 0.477517 0.000000 
0.275918 0.481395 0.000000 
0.387910 0.317572 0.000000 
0.048364 0.162051 0.000000 
0.160463 0.158842 0.000000 
0.154192 0.008929 0.000000 
0.033042 -0.133646 0.000000 
0.273280 0.160132 0.000000 

CELLS 128 512
3  0 25 27 
3  9 26 25 
3  11 27 26 
3  25 26 27 
3  4 28 30 
3  10 29 28 
3  9 30 29 
3  28 29 30 
3  8 31 33 
3  11 32 31 
3  10 33 32 
3  31 32 33 
3  9 29 26 
3  10 32 29 
3  11 26 32 
3  29 32 26 
3  4 34 28 
3  12 35 34 
3  10 28 35 
3  34 35 28 
3  1 36 38 
3  13 37 36 
3  12 38 37 
3  36 37 38 
3  8 33 40 
3  10 39 33 
3  13 40 39 
3  33 39 40 
3  12 37 35 
3  13 39 37 
3  10 35 39 
3  37 39 35 
3  1 41 36 
3  14 42 41 
3  13 36 42 
3  41 42 36 
3  5 43 45 
3  15 44 43 
3  14 45 44 
3  43 44 45 
3  8 40 47 
3  13 46 40 
3  15 47 46 
3  40 46 47 
3  14 44 42 
3  15 46 44 
3  13 42 46 
3  44 46 42 
3  5 48 43 
3  16 49 48 
3  15 43 49 
3  48 49 43 
3  2 50 52 
3  17 51 50 
3  16 52 51 
3  50 51 52 
3  8 47 54 
3  15 53 47 
3  17 54 53 
3  47 53 54 
3  16 51 49 
3  17 53 51 
3  15 49 53 
3  51 53 49 
3  2 55 50 
3  18 56 55 
3  17 50 56 
3  55 56 50 
3  6 57 59 
3  19 58 57 
3  18 59 58 
3  57 58 59 
3  8 54 61 
3  17 60 54 
3  19 61 60 
3  54 60 61 
3  18 58 56 
3  19 60 58 
3  17 56 60 
3  58 60 56 
3  6 62 57 
3  20 63 62 
3  19 57 63 
3  62 63 57 
3  3 64 66 
3  21 65 64 
3  20 66 65 
3  64 65 66 
3  8 61 68 
3  19 67 61 
3  21 68 67 
3  61 67 68 
3  20 65 63 
3  21 67 65 
3  19 63 67 
3  65 67 63 
3  3 69 64 
3  22 70 69 
3  21 64 70 
3  69 70 64 
3  7 71 73 
3  23 72 71 
3  22 73 72 
3  71 72 73 
3  8 68 75 
3  21 74 68 
3  23 75 74 
3  68 74 75 
3  22 72 70 
3  23 74 72 
3  21 70 74 
3  72 74 70 
3  7 76 71 
3  24 77 76 
3  23 71 77 
3  76 77 71 
3  0 27 79 
3  11 78 27 
3  24 79 78 
3  27 78 79 
3  8 75 31 
3  23 80 75 
3  11 31 80 
3  75 80 31 
3  24 78 77 
3  11 80 78 
3  23 77 80 
3  78 80 77 

CELL_TYPES 128
5
5
5
5
5
5
5
5
5
5
5
5
5
5
5
5
5
5
5
5
5
5
5
5
5
5
5
5
5
5
5
5
5
5
5
5
5
5
5
5
5
5
5
5
5
5
5
5
5
5
5
5
5
5
5
5
5
5
5
5
5
5
5
5
5
5
5
5
5
5
5
5
5
5
5
5
5
5
5
5
5
5
5
5
5
5
5
5
5
5
5
5
5
5
5
5
5
5
5
5
5
5
5
5
5
5
5
5
5
5
5
5
5
5
5
5
5
5
5
5
5
5
5
5
5
5
5
5

POINT_DATA 81

SCALARS u_h float 2
LOOKUP_TABLE default
0.036426 -0.269307 
-0.036426 -0.269307 
0.000000 0.000000 
0.000000 0.000000 
-0.000000 -0.118803 
-0.055446 -0.181643 
0.000000 0.000000 
0.055446 -0.181643 
-0.000000 -0.183332 
0.036471 -0.250000 
-0.000000 -0.240779 
0.019365 -0.238554 
-0.036471 -0.250000 
-0.019365 -0.238554 
-0.039375 -0.238867 
-0.026289 -0.182856 
-0.056723 -0.106930 
-0.020659 -0.098710 
0.000000 0.000000 
-0.000000 -0.098303 
0.000000 0.000000 
0.020659 -0.098710 
0.056723 -0.106930 
0.026289 -0.182856 
0.039375 -0.238867 
0.034276 -0.265153 
0.016926 -0.252368 
0.025992 -0.257978 
-0.000000 -0.253403 
0.001010 -0.258622 
-0.023803 -0.100000 
0.011692 -0.215133 
0.009440 -0.240247 
-0.000000 -0.215825 
0.023803 -0.100000 
-0.001010 -0.258622 
-0.025992 -0.257978 
-0.016926 -0.252368 
-0.034276 -0.265153 
-0.009440 -0.240247 
-0.011692 -0.215133 
-0.033042 -0.258646 
-0.029192 -0.241071 
-0.041063 -0.184160 
-0.035463 -0.216158 
-0.048364 -0.212949 
-0.023280 -0.214868 
-0.012910 -0.182428 
-0.059952 -0.147483 
-0.042226 -0.145713 
-0.020186 -0.050608 
-0.036094 -0.100906 
-0.041379 -0.058874 
-0.025918 -0.143605 
-0.012393 -0.142933 
0.000000 0.000000 
-0.011362 -0.050307 
0.000000 -0.050422 
-0.005244 -0.050471 
0.000000 0.000000 
-0.009630 -0.098443 
-0.000000 -0.142934 
0.000000 0.000000 
0.005244 -0.050471 
0.020186 -0.050608 
0.011362 -0.050307 
0.000000 0.000000 
0.009630 -0.098443 
0.012393 -0.142933 
0.041379 -0.058874 
0.036094 -0.100906 
0.041063 -0.184160 
0.042226 -0.145713 
0.059952 -0.147483 
0.025918 -0.143605 
0.012910 -0.182428 
0.048364 -0.212949 
0.035463 -0.216158 
0.029192 -0.241071 
0.033042 -0.258646 
0.023280 -0.214868 

CELL_DATA 128

SCALARS epsilon float 4
LOOKUP_TABLE default
-0.013201 0.058377 0.000000 -0.017901
0.048013 0.006786 0.000000 -0.015126
-0.075807 0.104572 0.000000 0.030500
-0.069860 0.059817 0.000000 -0.014509
0.172759 113.650311 0.000000 0.954168
-0.008115 0.096669 0.000000 0.018960
0.467035 10.236901 0.000000 -2.932876
0.282831 15.223761 0.000000 -2.100149
-0.097862 0.227604 0.000000 -0.002173
-0.082177 0.181583 0.000000 0.003912
-0.078356 0.180266 0.000000 -0.001762
-0.097635 0.181396 0.000000 0.007377
-0.127243 -0.026558 0.000000 -0.114390
-0.076066 0.136650 0.000000 0.034031
-0.082090 0.104807 0.000000 0.004442
-0.129709 0.140925 0.000000 0.016605
0.172759 113.650311 0.000000 -0.954168
0.467035 10.236901 0.000000 2.932876
-0.008115 0.096669 0.000000 -0.018960
0.282831 15.223761 0.000000 2.100149
-0.013201 0.058377 0.000000 0.017901
-0.075807 0.104572 0.000000 -0.030500
0.048013 0.006786 0.000000 0.015126
-0.069860 0.059817 0.000000 0.014509
-0.097862 0.227604 0.000000 0.002173
-0.078356 0.180266 0.000000 0.001762
-0.082177 0.181583 0.000000 -0.003912
-0.097635 0.181396 0.000000 -0.007377
-0.127243 -0.026558 0.000000 0.114390
-0.082090 0.104807 0.000000 -0.004442
-0.076066 0.136650 0.000000 -0.034031
-0.129709 0.140925 0.000000 -0.016605
-0.057492 0.081826 0.000000 0.011804
-0.082791 0.146913 0.000000 -0.019506
-0.081867 0.125943 0.000000 -0.022497
-0.057824 0.126130 0.000000 -0.015718
-0.119252 0.221504 0.000000 -0.022797
-0.124650 0.224222 0.000000 -0.028427
-0.104591 0.188410 0.000000 -0.028403
-0.106675 0.225819 0.000000 -0.013849
-0.108446 0.228966 0.000000 -0.002371
-0.096472 0.172056 0.000000 -0.015935
-0.112514 0.224597 0.000000 -0.014264
-0.096900 0.228905 0.000000 -0.004309
-0.082924 0.180899 0.000000 -0.019253
-0.102150 0.224494 0.000000 -0.016842
-0.081840 0.171603 0.000000 -0.024963
-0.101556 0.179571 0.000000 -0.031280
-0.120428 0.238432 0.000000 -0.011651
-0.151017 0.275334 0.000000 0.008949
-0.125105 0.262849 0.000000 -0.008901
-0.151668 0.262856 0.000000 -0.010388
-0.130783 0.388732 0.000000 0.155591
-0.123829 0.329862 0.000000 0.060417
-0.167629 0.321811 0.000000 0.050924
-0.170515 0.336278 0.000000 0.047409
-0.108564 0.268917 0.000000 0.004887
-0.112660 0.267535 0.000000 0.000279
-0.113179 0.299354 0.000000 0.019989
-0.113941 0.268950 0.000000 0.000171
-0.175188 0.301519 0.000000 0.010249
-0.129719 0.299856 0.000000 0.015980
-0.138741 0.267673 0.000000 -0.004665
-0.137241 0.299437 0.000000 0.020171
0.006607 0.329715 0.000000 0.074039
0.002100 0.328139 0.000000 0.041707
-0.071267 0.318222 0.000000 0.036027
-0.065128 0.329990 0.000000 0.078799
0.000000 0.328740 0.000000 -0.000000
-0.042834 0.315313 0.000000 -0.000142
0.000447 0.328998 0.000000 0.019242
-0.042335 0.329010 0.000000 0.019944
-0.104001 0.274076 0.000000 0.000005
-0.091892 0.296980 0.000000 0.010510
-0.079984 0.297722 0.000000 -0.000410
-0.103837 0.296942 0.000000 0.011430
-0.047905 0.328058 0.000000 0.044322
-0.079576 0.315827 0.000000 0.017141
-0.090237 0.318209 0.000000 0.036843
-0.049818 0.315766 0.000000 0.017499
0.000000 0.328740 0.000000 -0.000000
0.000447 0.328998 0.000000 -0.019242
-0.042834 0.315313 0.000000 0.000142
-0.042335 0.329010 0.000000 -0.019944
0.006607 0.329715 0.000000 -0.074039
-0.071267 0.318222 0.000000 -0.036027
0.002100 0.328139 0.000000 -0.041707
-0.065128 0.329990 0.000000 -0.078799
-0.104001 0.274076 0.000000 -0.000005
-0.079984 0.297722 0.000000 0.000410
-0.091892 0.296980 0.000000 -0.010510
-0.103837 0.296942 0.000000 -0.011430
-0.047905 0.328058 0.000000 -0.044322
-0.090237 0.318209 0.000000 -0.036843
-0.079576 0.315827 0.000000 -0.017141
-0.049818 0.315766 0.000000 -0.017499
-0.130783 0.388732 0.000000 -0.155591
-0.167629 0.321811 0.000000 -0.050924
-0.123829 0.329862 0.000000 -0.060417
-0.170515 0.336278 0.000000 -0.047409
-0.120428 0.238432 0.000000 0.011651
-0.125105 0.262849 0.000000 0.008901
-0.151017 0.275334 0.000000 -0.008949
-0.151668 0.262856 0.000000 0.010388
-0.108564 0.268917 0.000000 -0.004887
-0.113179 0.299354 0.000000 -0.019989
-0.112660 0.267535 0.000000 -0.000279
-0.113941 0.268950 0.000000 -0.000171
-0.175188 0.301519 0.000000 -0.010249
-0.138741 0.267673 0.000000 0.004665
-0.129719 0.299856 0.000000 -0.015980
-0.137241 0.299437 0.000000 -0.020171
-0.119252 0.221504 0.000000 0.022797
-0.104591 0.188410 0.000000 0.028403
-0.124650 0.224222 0.000000 0.028427
-0.106675 0.225819 0.000000 0.013849
-0.057492 0.081826 0.000000 -0.011804
-0.081867 0.125943 0.000000 0.022497
-0.082791 0.146913 0.000000 0.019506
-0.057824 0.126130 0.000000 0.015718
-0.108446 0.228966 0.000000 0.002371
-0.112514 0.224597 0.000000 0.014264
-0.096472 0.172056 0.000000 0.015935
-0.096900 0.228905 0.000000 0.004309
-0.082924 0.180899 0.000000 0.019253
-0.081840 0.171603 0.000000 0.024963
-0.102150 0.224494 0.000000 0.016842
-0.101556 0.179571 0.000000 0.031280

SCALARS sigma float 4
LOOKUP_TABLE default
0.222288 1.507137 0.451760 -0.244111
1.353348 0.697202 0.547992 -0.178324
-0.858163 2.209860 0.287649 0.547973
-1.163614 0.946926 -0.100430 -0.179930
1349.338487 45090.844057 1138.230703 4957.100063
0.758208 2.697562 0.885537 0.402868
300.571609 952.258325 107.039361 -935.882943
168.481289 2293.702429 155.065918 -96.635777
-0.275614 6.067905 1.297422 -0.056334
-0.324016 4.638319 0.994060 0.009992
-0.244110 4.637027 1.019097 -0.041796
-0.685499 4.452624 0.837611 0.089125
-2.946966 -1.571119 -1.538009 -1.466053
-0.591656 3.247916 0.605837 0.501252
-1.023873 2.141483 0.227163 0.040818
-1.742382 2.759311 0.112166 0.112910
1349.338487 45090.844057 1138.230703 -4957.100063
300.571609 952.258325 107.039361 935.882943
0.758208 2.697562 0.885537 -0.402868
168.481289 2293.702429 155.065918 96.635777
0.222288 1.507137 0.451760 0.244111
-0.858163 2.209860 0.287649 -0.547973
1.353348 0.697202 0.547992 0.178324
-1.163614 0.946926 -0.100430 0.179930
-0.275614 6.067905 1.297422 0.056334
-0.244110 4.637027 1.019097 0.041796
-0.324016 4.638319 0.994060 -0.009992
-0.685499 4.452624 0.837611 -0.089125
-2.946966 -1.571119 -1.538009 1.466053
-1.023873 2.141483 0.227163 -0.040818
-0.591656 3.247916 0.605837 -0.501252
-1.742382 2.759311 0.112166 -0.112910
-0.658829 1.715191 0.243342 0.173767
-0.658944 3.484800 0.641224 -0.241301
-0.817337 2.812773 0.440757 -0.385525
-0.248068 3.085288 0.683064 -0.256058
-0.819754 5.610520 1.022517 -0.241066
-0.903098 5.642670 0.995723 -0.447504
-0.788849 4.639112 0.838186 -0.320114
-0.499598 5.905512 1.191445 -0.089809
-0.507576 5.989499 1.205200 -0.002672
-0.742450 4.155256 0.755840 -0.227621
-0.636798 5.788443 1.120832 -0.220567
-0.241748 6.127054 1.320053 -0.054038
-0.351857 4.619353 0.979756 -0.224907
-0.400391 5.910222 1.223447 -0.290978
-0.398832 4.313136 0.897621 -0.442428
-0.784399 4.366471 0.780150 -0.492853
-0.695608 6.191537 1.180040 -0.075464
-1.031971 7.173974 1.243170 0.050874
-0.582509 7.026962 1.377443 -0.177829
-1.145847 6.699199 1.111884 -0.210590
0.219429 12.608311 2.579487 1.608656
0.011298 9.725502 2.060330 0.746712
-1.010677 8.826544 1.541816 0.392333
-0.959987 9.351646 1.657632 0.221157
-0.156045 7.457830 1.603530 0.107809
-0.263063 7.354986 1.548754 -0.013321
0.003473 8.572779 1.861749 0.258059
-0.279903 7.392181 1.550098 -0.024869
-1.302730 7.863163 1.263313 -0.127930
-0.370179 8.380392 1.701369 0.127764
-0.837010 7.036290 1.289318 -0.148843
-0.539679 8.273623 1.621959 0.188245
3.471567 11.437681 3.363215 1.214241
3.336846 11.220191 3.302399 0.683992
1.201062 9.869325 2.469549 0.531678
1.458591 10.544870 2.648616 1.179688
3.287404 11.173296 3.287404 -0.000000
1.933760 10.082774 2.724793 -0.004584
3.301774 11.198984 3.294450 0.315570
2.077256 10.649348 2.866750 0.310343
-0.004319 7.708865 1.700756 0.000143
0.490941 8.741414 2.050875 0.143752
0.793407 8.917577 2.177384 -0.012489
0.203023 8.589487 1.931055 0.166899
1.912665 10.578548 2.801527 0.697462
0.968992 9.641667 2.362509 0.251029
0.721514 9.627586 2.279716 0.533205
1.747863 10.019291 2.659479 0.280020
3.287404 11.173296 3.287404 -0.000000
3.301774 11.198984 3.294450 -0.315570
1.933760 10.082774 2.724793 0.004584
2.077256 10.649348 2.866750 -0.310343
3.471567 11.437681 3.363215 -1.214241
1.201062 9.869325 2.469549 -0.531678
3.336846 11.220191 3.302399 -0.683992
1.458591 10.544870 2.648616 -1.179688
-0.004319 7.708865 1.700756 -0.000143
0.793407 8.917577 2.177384 0.012489
0.490941 8.741414 2.050875 -0.143752
0.203023 8.589487 1.931055 -0.166899
1.912665 10.578548 2.801527 -0.697462
0.721514 9.627586 2.279716 -0.533205
0.968992 9.641667 2.362509 -0.251029
1.747863 10.019291 2.659479 -0.280020
0.219429 12.608311 2.579487 -1.608656
-1.010677 8.826544 1.541816 -0.392333
0.011298 9.725502 2.060330 -0.746712
-0.959987 9.351646 1.657632 -0.221157
-0.695608 6.191537 1.180040 0.075464
-0.582509 7.026962 1.377443 0.177829
-1.031971 7.173974 1.243170 -0.050874
-1.145847 6.699199 1.111884 0.210590
-0.156045 7.457830 1.603530 -0.107809
0.003473 8.572779 1.861749 -0.258059
-0.263063 7.354986 1.548754 0.013321
-0.279903 7.392181 1.550098 0.024869
-1.302730 7.863163 1.263313 0.127930
-0.837010 7.036290 1.289318 0.148843
-0.370179 8.380392 1.701369 -0.127764
-0.539679 8.273623 1.621959 -0.188245
-0.819754 5.610520 1.022517 0.241066
-0.788849 4.639112 0.838186 0.320114
-0.903098 5.642670 0.995723 0.447504
-0.499598 5.905512 1.191445 0.089809
-0.658829 1.715191 0.243342 -0.173767
-0.817337 2.812773 0.440757 0.385525
-0.658944 3.484800 0.641224 0.241301
-0.248068 3.085288 0.683064 0.256058
-0.507576 5.989499 1.205200 0.002672
-0.636798 5.788443 1.120832 0.220567
-0.742450 4.155256 0.755840 0.227621
-0.241748 6.127054 1.320053 0.054038
-0.351857 4.619353 0.979756 0.224907
-0.398832 4.313136 0.897621 0.442428
-0.400391 5.910222 1.223447 0.290978
-0.784399 4.366471 0.780150 0.492853

