# vtk DataFile Version 2.0
Unstructured Grid Example
ASCII
DATASET UNSTRUCTURED_GRID

POINTS 128 float
0.000000 0.000000 0.000000 
0.015625 0.000000 0.000000 
0.015625 0.000000 0.000000 
0.031250 0.000000 0.000000 
0.031250 0.000000 0.000000 
0.046875 0.000000 0.000000 
0.046875 0.000000 0.000000 
0.062500 0.000000 0.000000 
0.093750 0.000000 0.000000 
0.109375 0.000000 0.000000 
0.109375 0.000000 0.000000 
0.125000 0.000000 0.000000 
0.062500 0.000000 0.000000 
0.078125 0.000000 0.000000 
0.078125 0.000000 0.000000 
0.093750 0.000000 0.000000 
0.218750 0.000000 0.000000 
0.234375 0.000000 0.000000 
0.234375 0.000000 0.000000 
0.250000 0.000000 0.000000 
0.187500 0.000000 0.000000 
0.203125 0.000000 0.000000 
0.203125 0.000000 0.000000 
0.218750 0.000000 0.000000 
0.125000 0.000000 0.000000 
0.140625 0.000000 0.000000 
0.140625 0.000000 0.000000 
0.156250 0.000000 0.000000 
0.156250 0.000000 0.000000 
0.171875 0.000000 0.000000 
0.171875 0.000000 0.000000 
0.187500 0.000000 0.000000 
0.468750 -5.197444 0.000000 
0.484375 -5.364025 0.000000 
0.484375 -5.226412 0.000000 
0.500000 -5.472671 0.000000 
0.437500 -4.868206 0.000000 
0.453125 -5.295742 0.000000 
0.453125 -5.053489 0.000000 
0.468750 -5.352712 0.000000 
0.375000 -3.699532 0.000000 
0.390625 -4.643620 0.000000 
0.390625 -4.058923 0.000000 
0.406250 -4.868926 0.000000 
0.406250 -4.371892 0.000000 
0.421875 -5.052992 0.000000 
0.421875 -4.641199 0.000000 
0.437500 -5.195478 0.000000 
0.250000 0.000000 0.000000 
0.265625 0.000000 0.000000 
0.265625 0.000000 0.000000 
0.281250 0.000000 0.000000 
0.281250 0.817432 0.000000 
0.296875 -1.634864 0.000000 
0.296875 0.494633 0.000000 
0.312500 -3.441562 0.000000 
0.343750 -2.815204 0.000000 
0.359375 -4.069406 0.000000 
0.359375 -3.288449 0.000000 
0.375000 -4.377117 0.000000 
0.312500 -1.515068 0.000000 
0.328125 -3.358354 0.000000 
0.328125 -2.254580 0.000000 
0.343750 -3.722617 0.000000 
0.500000 -5.472671 0.000000 
0.515625 -5.226412 0.000000 
0.515625 -5.364025 0.000000 
0.531250 -5.197444 0.000000 
0.531250 -5.352712 0.000000 
0.546875 -5.053489 0.000000 
0.546875 -5.295742 0.000000 
0.562500 -4.868206 0.000000 
0.593750 -4.868926 0.000000 
0.609375 -4.058923 0.000000 
0.609375 -4.643620 0.000000 
0.625000 -3.699532 0.000000 
0.562500 -5.195478 0.000000 
0.578125 -4.641199 0.000000 
0.578125 -5.052992 0.000000 
0.593750 -4.371892 0.000000 
0.718750 0.000000 0.000000 
0.734375 0.000000 0.000000 
0.734375 0.000000 0.000000 
0.750000 0.000000 0.000000 
0.687500 -3.441562 0.000000 
0.703125 0.494633 0.000000 
0.703125 -1.634864 0.000000 
0.718750 0.817432 0.000000 
0.625000 -4.377117 0.000000 
0.640625 -3.288449 0.000000 
0.640625 -4.069406 0.000000 
0.656250 -2.815204 0.000000 
0.656250 -3.722617 0.000000 
0.671875 -2.254580 0.000000 
0.671875 -3.358354 0.000000 
0.687500 -1.515068 0.000000 
0.968750 0.000000 0.000000 
0.984375 0.000000 0.000000 
0.984375 0.000000 0.000000 
1.000000 0.000000 0.000000 
0.937500 0.000000 0.000000 
0.953125 0.000000 0.000000 
0.953125 0.000000 0.000000 
0.968750 0.000000 0.000000 
0.875000 0.000000 0.000000 
0.890625 0.000000 0.000000 
0.890625 0.000000 0.000000 
0.906250 0.000000 0.000000 
0.906250 0.000000 0.000000 
0.921875 0.000000 0.000000 
0.921875 0.000000 0.000000 
0.937500 0.000000 0.000000 
0.750000 0.000000 0.000000 
0.765625 0.000000 0.000000 
0.765625 0.000000 0.000000 
0.781250 0.000000 0.000000 
0.781250 0.000000 0.000000 
0.796875 0.000000 0.000000 
0.796875 0.000000 0.000000 
0.812500 0.000000 0.000000 
0.843750 0.000000 0.000000 
0.859375 0.000000 0.000000 
0.859375 0.000000 0.000000 
0.875000 0.000000 0.000000 
0.812500 0.000000 0.000000 
0.828125 0.000000 0.000000 
0.828125 0.000000 0.000000 
0.843750 0.000000 0.000000 

CELLS 64 192
2  0 1 
2  2 3 
2  4 5 
2  6 7 
2  8 9 
2  10 11 
2  12 13 
2  14 15 
2  16 17 
2  18 19 
2  20 21 
2  22 23 
2  24 25 
2  26 27 
2  28 29 
2  30 31 
2  32 33 
2  34 35 
2  36 37 
2  38 39 
2  40 41 
2  42 43 
2  44 45 
2  46 47 
2  48 49 
2  50 51 
2  52 53 
2  54 55 
2  56 57 
2  58 59 
2  60 61 
2  62 63 
2  64 65 
2  66 67 
2  68 69 
2  70 71 
2  72 73 
2  74 75 
2  76 77 
2  78 79 
2  80 81 
2  82 83 
2  84 85 
2  86 87 
2  88 89 
2  90 91 
2  92 93 
2  94 95 
2  96 97 
2  98 99 
2  100 101 
2  102 103 
2  104 105 
2  106 107 
2  108 109 
2  110 111 
2  112 113 
2  114 115 
2  116 117 
2  118 119 
2  120 121 
2  122 123 
2  124 125 
2  126 127 

CELL_TYPES 64
3
3
3
3
3
3
3
3
3
3
3
3
3
3
3
3
3
3
3
3
3
3
3
3
3
3
3
3
3
3
3
3
3
3
3
3
3
3
3
3
3
3
3
3
3
3
3
3
3
3
3
3
3
3
3
3
3
3
3
3
3
3
3
3

POINT_DATA 128

SCALARS lambda_h float 1
LOOKUP_TABLE default
0.000000 
0.000000 
0.000000 
0.000000 
0.000000 
0.000000 
0.000000 
0.000000 
0.000000 
0.000000 
0.000000 
0.000000 
0.000000 
0.000000 
0.000000 
0.000000 
0.000000 
0.000000 
0.000000 
0.000000 
0.000000 
0.000000 
0.000000 
0.000000 
0.000000 
0.000000 
0.000000 
0.000000 
0.000000 
0.000000 
0.000000 
0.000000 
-5.197444 
-5.364025 
-5.226412 
-5.472671 
-4.868206 
-5.295742 
-5.053489 
-5.352712 
-3.699532 
-4.643620 
-4.058923 
-4.868926 
-4.371892 
-5.052992 
-4.641199 
-5.195478 
0.000000 
0.000000 
0.000000 
0.000000 
0.817432 
-1.634864 
0.494633 
-3.441562 
-2.815204 
-4.069406 
-3.288449 
-4.377117 
-1.515068 
-3.358354 
-2.254580 
-3.722617 
-5.472671 
-5.226412 
-5.364025 
-5.197444 
-5.352712 
-5.053489 
-5.295742 
-4.868206 
-4.868926 
-4.058923 
-4.643620 
-3.699532 
-5.195478 
-4.641199 
-5.052992 
-4.371892 
0.000000 
0.000000 
0.000000 
0.000000 
-3.441562 
0.494633 
-1.634864 
0.817432 
-4.377117 
-3.288449 
-4.069406 
-2.815204 
-3.722617 
-2.254580 
-3.358354 
-1.515068 
0.000000 
0.000000 
0.000000 
0.000000 
0.000000 
0.000000 
0.000000 
0.000000 
0.000000 
0.000000 
0.000000 
0.000000 
0.000000 
0.000000 
0.000000 
0.000000 
0.000000 
0.000000 
0.000000 
0.000000 
0.000000 
0.000000 
0.000000 
0.000000 
0.000000 
0.000000 
0.000000 
0.000000 
0.000000 
0.000000 
0.000000 
0.000000 

