# vtk DataFile Version 2.0
Unstructured Grid Example
ASCII
DATASET UNSTRUCTURED_GRID

POINTS 16 float
0.000000 0.000000 0.000000 
0.125000 0.000000 0.000000 
0.125000 0.000000 0.000000 
0.250000 0.000000 0.000000 
0.250000 4.092517 0.000000 
0.375000 -8.185034 0.000000 
0.375000 -2.632344 0.000000 
0.500000 -7.012863 0.000000 
0.500000 -7.012863 0.000000 
0.625000 -2.632344 0.000000 
0.625000 -8.185034 0.000000 
0.750000 4.092517 0.000000 
0.750000 0.000000 0.000000 
0.875000 0.000000 0.000000 
0.875000 0.000000 0.000000 
1.000000 0.000000 0.000000 

CELLS 8 24
2  0 1 
2  2 3 
2  4 5 
2  6 7 
2  8 9 
2  10 11 
2  12 13 
2  14 15 

CELL_TYPES 8
3
3
3
3
3
3
3
3

POINT_DATA 16

SCALARS lambda_h float 1
LOOKUP_TABLE default
0.000000 
0.000000 
0.000000 
0.000000 
4.092517 
-8.185034 
-2.632344 
-7.012863 
-7.012863 
-2.632344 
-8.185034 
4.092517 
0.000000 
0.000000 
0.000000 
0.000000 

