# vtk DataFile Version 2.0
Unstructured Grid Example
ASCII
DATASET UNSTRUCTURED_GRID

POINTS 16641 float
0.006430 -0.167129 0.000000 
0.993570 -0.167129 0.000000 
1.000000 1.000000 0.000000 
0.000000 1.000000 0.000000 
0.500000 -0.099990 0.000000 
0.977038 0.380418 0.000000 
0.500000 1.000000 0.000000 
0.022962 0.380418 0.000000 
0.500000 0.382345 0.000000 
0.258856 -0.150034 0.000000 
0.500000 0.119899 0.000000 
0.248519 0.105018 0.000000 
0.741144 -0.150034 0.000000 
0.751481 0.105018 0.000000 
0.993359 0.098066 0.000000 
0.740780 0.377854 0.000000 
0.964732 0.675056 0.000000 
0.735511 0.678316 0.000000 
0.750000 1.000000 0.000000 
0.500000 0.680035 0.000000 
0.250000 1.000000 0.000000 
0.264489 0.678316 0.000000 
0.035268 0.675056 0.000000 
0.259220 0.377854 0.000000 
0.006641 0.098066 0.000000 
0.132077 -0.163227 0.000000 
0.247477 -0.023289 0.000000 
0.126366 -0.035130 0.000000 
0.500000 0.004713 0.000000 
0.371460 -0.004119 0.000000 
0.378181 -0.114820 0.000000 
0.375846 0.243605 0.000000 
0.372719 0.115172 0.000000 
0.500000 0.246110 0.000000 
0.621819 -0.114820 0.000000 
0.628540 -0.004119 0.000000 
0.873634 -0.035130 0.000000 
0.752523 -0.023289 0.000000 
0.867923 -0.163227 0.000000 
0.627281 0.115172 0.000000 
0.624154 0.243605 0.000000 
0.995638 -0.038017 0.000000 
0.872874 0.097696 0.000000 
0.859225 0.376146 0.000000 
0.866937 0.234535 0.000000 
0.986203 0.237885 0.000000 
0.746531 0.238159 0.000000 
0.620966 0.380952 0.000000 
0.968843 0.525920 0.000000 
0.852733 0.523206 0.000000 
0.856939 0.836328 0.000000 
0.850536 0.676406 0.000000 
0.969464 0.829110 0.000000 
0.736391 0.524637 0.000000 
0.618728 0.526637 0.000000 
0.875000 1.000000 0.000000 
0.740152 0.837679 0.000000 
0.500000 0.838151 0.000000 
0.620633 0.838041 0.000000 
0.625000 1.000000 0.000000 
0.618399 0.679577 0.000000 
0.500000 0.527489 0.000000 
0.375000 1.000000 0.000000 
0.379367 0.838041 0.000000 
0.143061 0.836328 0.000000 
0.259848 0.837679 0.000000 
0.125000 1.000000 0.000000 
0.381601 0.679577 0.000000 
0.381272 0.526637 0.000000 
0.030536 0.829110 0.000000 
0.149464 0.676406 0.000000 
0.140775 0.376146 0.000000 
0.147267 0.523206 0.000000 
0.031157 0.525920 0.000000 
0.263609 0.524637 0.000000 
0.379034 0.380952 0.000000 
0.013797 0.237885 0.000000 
0.133063 0.234535 0.000000 
0.127126 0.097696 0.000000 
0.004362 -0.038017 0.000000 
0.253469 0.238159 0.000000 
0.069002 -0.165688 0.000000 
0.128663 -0.099986 0.000000 
0.066953 -0.102367 0.000000 
0.250522 -0.086728 0.000000 
0.189972 -0.095251 0.000000 
0.195520 -0.158548 0.000000 
0.186429 0.034598 0.000000 
0.186985 -0.030645 0.000000 
0.247217 0.040439 0.000000 
0.500000 -0.048788 0.000000 
0.436308 -0.051744 0.000000 
0.438516 -0.103770 0.000000 
0.435537 0.059177 0.000000 
0.435440 0.002416 0.000000 
0.500000 0.060893 0.000000 
0.319577 -0.132494 0.000000 
0.373132 -0.060341 0.000000 
0.311015 -0.073491 0.000000 
0.438643 0.312561 0.000000 
0.437786 0.245449 0.000000 
0.500000 0.313050 0.000000 
0.310150 0.110252 0.000000 
0.374201 0.178254 0.000000 
0.312112 0.174678 0.000000 
0.500000 0.181680 0.000000 
0.436919 0.180774 0.000000 
0.436122 0.118649 0.000000 
0.308707 -0.013589 0.000000 
0.371648 0.054377 0.000000 
0.308826 0.047566 0.000000 
0.561484 -0.103770 0.000000 
0.563692 -0.051744 0.000000 
0.688985 -0.073491 0.000000 
0.626868 -0.060341 0.000000 
0.680423 -0.132494 0.000000 
0.564560 0.002416 0.000000 
0.564463 0.059177 0.000000 
0.933047 -0.102367 0.000000 
0.871337 -0.099986 0.000000 
0.930998 -0.165688 0.000000 
0.752783 0.040439 0.000000 
0.813015 -0.030645 0.000000 
0.813571 0.034598 0.000000 
0.804480 -0.158548 0.000000 
0.810028 -0.095251 0.000000 
0.749478 -0.086728 0.000000 
0.562214 0.245449 0.000000 
0.561357 0.312561 0.000000 
0.563878 0.118649 0.000000 
0.563081 0.180774 0.000000 
0.687888 0.174678 0.000000 
0.625799 0.178254 0.000000 
0.689850 0.110252 0.000000 
0.691293 -0.013589 0.000000 
0.691174 0.047566 0.000000 
0.628352 0.054377 0.000000 
0.994825 -0.103631 0.000000 
0.934582 -0.037316 0.000000 
0.933209 0.096766 0.000000 
0.934690 0.029146 0.000000 
0.995225 0.029393 0.000000 
0.874108 0.030815 0.000000 
0.812376 0.100579 0.000000 
0.918146 0.377184 0.000000 
0.922458 0.305588 0.000000 
0.981678 0.308804 0.000000 
0.803529 0.305427 0.000000 
0.863107 0.304699 0.000000 
0.800142 0.376574 0.000000 
0.990230 0.167624 0.000000 
0.926673 0.235008 0.000000 
0.930398 0.165403 0.000000 
0.622502 0.311191 0.000000 
0.560569 0.381992 0.000000 
0.749259 0.170839 0.000000 
0.685621 0.240981 0.000000 
0.681058 0.379459 0.000000 
0.683279 0.309234 0.000000 
0.743615 0.307135 0.000000 
0.870334 0.165568 0.000000 
0.806930 0.235794 0.000000 
0.810008 0.167567 0.000000 
0.972637 0.452755 0.000000 
0.914107 0.449863 0.000000 
0.908341 0.598836 0.000000 
0.910704 0.523709 0.000000 
0.966047 0.599985 0.000000 
0.855649 0.448955 0.000000 
0.797091 0.449311 0.000000 
0.923036 0.916705 0.000000 
0.913545 0.833996 0.000000 
0.978337 0.909479 0.000000 
0.793284 0.677431 0.000000 
0.852324 0.755537 0.000000 
0.795085 0.756701 0.000000 
0.965543 0.751308 0.000000 
0.908908 0.753667 0.000000 
0.907516 0.675406 0.000000 
0.619667 0.452806 0.000000 
0.559910 0.453611 0.000000 
0.738286 0.450355 0.000000 
0.679148 0.451636 0.000000 
0.677022 0.601556 0.000000 
0.677737 0.525703 0.000000 
0.735372 0.600657 0.000000 
0.850871 0.598990 0.000000 
0.793293 0.599729 0.000000 
0.794692 0.523687 0.000000 
0.937500 1.000000 0.000000 
0.864842 0.918231 0.000000 
0.744631 0.918660 0.000000 
0.805094 0.918575 0.000000 
0.812500 1.000000 0.000000 
0.799034 0.837265 0.000000 
0.737062 0.757428 0.000000 
0.500000 0.918699 0.000000 
0.561355 0.918696 0.000000 
0.562500 1.000000 0.000000 
0.559675 0.758451 0.000000 
0.560382 0.838122 0.000000 
0.500000 0.758521 0.000000 
0.687500 1.000000 0.000000 
0.622636 0.918690 0.000000 
0.683761 0.918682 0.000000 
0.559440 0.527266 0.000000 
0.500000 0.453896 0.000000 
0.677187 0.679036 0.000000 
0.618270 0.602293 0.000000 
0.500000 0.602942 0.000000 
0.559215 0.602774 0.000000 
0.559284 0.679917 0.000000 
0.680611 0.837903 0.000000 
0.619187 0.758250 0.000000 
0.678373 0.757916 0.000000 
0.437500 1.000000 0.000000 
0.438645 0.918696 0.000000 
0.316239 0.918682 0.000000 
0.377364 0.918690 0.000000 
0.312500 1.000000 0.000000 
0.439618 0.838122 0.000000 
0.440325 0.758451 0.000000 
0.076964 0.916705 0.000000 
0.135158 0.918231 0.000000 
0.062500 1.000000 0.000000 
0.262938 0.757428 0.000000 
0.200966 0.837265 0.000000 
0.204915 0.756701 0.000000 
0.187500 1.000000 0.000000 
0.194906 0.918575 0.000000 
0.255369 0.918660 0.000000 
0.440560 0.527266 0.000000 
0.440090 0.453611 0.000000 
0.440716 0.679917 0.000000 
0.440785 0.602774 0.000000 
0.322978 0.601556 0.000000 
0.381730 0.602293 0.000000 
0.322813 0.679036 0.000000 
0.319389 0.837903 0.000000 
0.321627 0.757916 0.000000 
0.380813 0.758250 0.000000 
0.021663 0.909479 0.000000 
0.086455 0.833996 0.000000 
0.092484 0.675406 0.000000 
0.091092 0.753667 0.000000 
0.034457 0.751308 0.000000 
0.147676 0.755537 0.000000 
0.206716 0.677431 0.000000 
0.081854 0.377184 0.000000 
0.085893 0.449863 0.000000 
0.027363 0.452755 0.000000 
0.202909 0.449311 0.000000 
0.144351 0.448955 0.000000 
0.199858 0.376574 0.000000 
0.033953 0.599985 0.000000 
0.089296 0.523709 0.000000 
0.091659 0.598836 0.000000 
0.380333 0.452806 0.000000 
0.439431 0.381992 0.000000 
0.264628 0.600657 0.000000 
0.322263 0.525703 0.000000 
0.318942 0.379459 0.000000 
0.320852 0.451636 0.000000 
0.261714 0.450355 0.000000 
0.149129 0.598990 0.000000 
0.205308 0.523687 0.000000 
0.206707 0.599729 0.000000 
0.018322 0.308804 0.000000 
0.077542 0.305588 0.000000 
0.069602 0.165403 0.000000 
0.073327 0.235008 0.000000 
0.009770 0.167624 0.000000 
0.136893 0.304699 0.000000 
0.196471 0.305427 0.000000 
0.065418 -0.037316 0.000000 
0.005175 -0.103631 0.000000 
0.187624 0.100579 0.000000 
0.125892 0.030815 0.000000 
0.004775 0.029393 0.000000 
0.065310 0.029146 0.000000 
0.066791 0.096766 0.000000 
0.377498 0.311191 0.000000 
0.256385 0.307135 0.000000 
0.316721 0.309234 0.000000 
0.314379 0.240981 0.000000 
0.250741 0.170839 0.000000 
0.129666 0.165568 0.000000 
0.189992 0.167567 0.000000 
0.193070 0.235794 0.000000 
0.037667 -0.166461 0.000000 
0.068005 -0.134260 0.000000 
0.036883 -0.134996 0.000000 
0.130329 -0.131853 0.000000 
0.099162 -0.133264 0.000000 
0.100475 -0.164659 0.000000 
0.096711 -0.069108 0.000000 
0.097835 -0.101395 0.000000 
0.127302 -0.067718 0.000000 
0.253837 -0.118492 0.000000 
0.223337 -0.123476 0.000000 
0.227250 -0.154926 0.000000 
0.218362 -0.059494 0.000000 
0.220352 -0.091571 0.000000 
0.248532 -0.055004 0.000000 
0.163774 -0.161244 0.000000 
0.192499 -0.127155 0.000000 
0.161463 -0.129873 0.000000 
0.217214 0.069849 0.000000 
0.216759 0.037287 0.000000 
0.247721 0.072594 0.000000 
0.156717 -0.033221 0.000000 
0.186446 0.001899 0.000000 
0.156189 -0.000491 0.000000 
0.247096 0.008499 0.000000 
0.216721 0.004909 0.000000 
0.217209 -0.027337 0.000000 
0.159393 -0.097992 0.000000 
0.188135 -0.063041 0.000000 
0.157784 -0.065739 0.000000 
0.500000 -0.074651 0.000000 
0.468579 -0.075489 0.000000 
0.469183 -0.100940 0.000000 
0.467827 -0.023013 0.000000 
0.468120 -0.049533 0.000000 
0.500000 -0.022352 0.000000 
0.408145 -0.108424 0.000000 
0.437252 -0.077981 0.000000 
0.406098 -0.082078 0.000000 
0.467861 0.089671 0.000000 
0.467732 0.060458 0.000000 
0.500000 0.090043 0.000000 
0.403338 -0.000373 0.000000 
0.435403 0.030458 0.000000 
0.403289 0.028051 0.000000 
0.500000 0.032452 0.000000 
0.467665 0.031947 0.000000 
0.467685 0.004132 0.000000 
0.290023 -0.143087 0.000000 
0.313989 -0.103061 0.000000 
0.283904 -0.111662 0.000000 
0.375166 -0.087707 0.000000 
0.344464 -0.094765 0.000000 
0.348679 -0.122865 0.000000 
0.340500 -0.037791 0.000000 
0.341890 -0.066492 0.000000 
0.371972 -0.032506 0.000000 
0.435718 -0.024970 0.000000 
0.403742 -0.028169 0.000000 
0.404627 -0.055374 0.000000 
0.469511 0.347310 0.000000 
[...]
POINT_DATA 16641

SCALARS u_h float 2
LOOKUP_TABLE default
0.006430 -0.167129 
-0.006430 -0.167129 
0.000000 0.000000 
0.000000 0.000000 
0.000000 -0.099990 
-0.022962 -0.119582 
0.000000 0.000000 
0.022962 -0.119582 
0.000000 -0.117655 
0.008856 -0.150034 
0.000000 -0.130101 
-0.001481 -0.144982 
-0.008856 -0.150034 
0.001481 -0.144982 
-0.006641 -0.151934 
-0.009220 -0.122146 
-0.035268 -0.074944 
-0.014489 -0.071684 
0.000000 0.000000 
-0.000000 -0.069965 
0.000000 0.000000 
0.014489 -0.071684 
0.035268 -0.074944 
0.009220 -0.122146 
0.006641 -0.151934 
0.007077 -0.163227 
-0.002523 -0.148289 
0.001366 -0.160130 
0.000000 -0.120287 
-0.003540 -0.129119 
0.003181 -0.114820 
0.000846 -0.131395 
-0.002281 -0.134828 
0.000000 -0.128890 
-0.003181 -0.114820 
0.003540 -0.129119 
-0.001366 -0.160130 
0.002523 -0.148289 
-0.007077 -0.163227 
0.002281 -0.134828 
-0.000846 -0.131395 
-0.004362 -0.163017 
-0.002126 -0.152304 
-0.015775 -0.123854 
-0.008063 -0.140465 
-0.013797 -0.137115 
-0.003469 -0.136841 
-0.004034 -0.119048 
-0.031157 -0.099080 
-0.022267 -0.101794 
-0.018061 -0.038672 
-0.024464 -0.073594 
-0.030536 -0.045890 
-0.013609 -0.100363 
-0.006272 -0.098363 
0.000000 0.000000 
-0.009848 -0.037321 
-0.000000 -0.036849 
-0.004367 -0.036959 
0.000000 0.000000 
-0.006601 -0.070423 
-0.000000 -0.097511 
0.000000 0.000000 
0.004367 -0.036959 
0.018061 -0.038672 
0.009848 -0.037321 
0.000000 0.000000 
0.006601 -0.070423 
0.006272 -0.098363 
0.030536 -0.045890 
0.024464 -0.073594 
0.015775 -0.123854 
0.022267 -0.101794 
0.031157 -0.099080 
0.013609 -0.100363 
0.004034 -0.119048 
0.013797 -0.137115 
0.008063 -0.140465 
0.002126 -0.152304 
0.004362 -0.163017 
0.003469 -0.136841 
0.006502 -0.165688 
0.003663 -0.162486 
0.004453 -0.164867 
0.000522 -0.149228 
0.002472 -0.157751 
0.008020 -0.158548 
-0.001071 -0.152902 
-0.000515 -0.155645 
-0.002783 -0.147061 
0.000000 -0.111288 
-0.001192 -0.114244 
0.001016 -0.103770 
-0.001963 -0.128323 
-0.002060 -0.122584 
0.000000 -0.126607 
0.007077 -0.132494 
-0.001868 -0.122841 
-0.001485 -0.135991 
0.001143 -0.124939 
0.000286 -0.129551 
0.000000 -0.124450 
-0.002350 -0.139748 
-0.000799 -0.134246 
-0.000388 -0.137822 
0.000000 -0.130820 
-0.000581 -0.131726 
-0.001378 -0.131351 
-0.003793 -0.138589 
-0.003352 -0.133123 
-0.003674 -0.139934 
-0.001016 -0.103770 
0.001192 -0.114244 
0.001485 -0.135991 
0.001868 -0.122841 
-0.007077 -0.132494 
0.002060 -0.122584 
0.001963 -0.128323 
-0.004453 -0.164867 
-0.003663 -0.162486 
-0.006502 -0.165688 
0.002783 -0.147061 
0.000515 -0.155645 
0.001071 -0.152902 
-0.008020 -0.158548 
-0.002472 -0.157751 
-0.000522 -0.149228 
-0.000286 -0.129551 
-0.001143 -0.124939 
0.001378 -0.131351 
0.000581 -0.131726 
0.000388 -0.137822 
0.000799 -0.134246 
0.002350 -0.139748 
0.003793 -0.138589 
0.003674 -0.139934 
0.003352 -0.133123 
-0.005175 -0.166131 
-0.002918 -0.162316 
-0.004291 -0.153234 
-0.002810 -0.158354 
-0.004775 -0.158107 
-0.000892 -0.156685 
-0.000124 -0.149421 
-0.019354 -0.122816 
-0.015042 -0.131912 
-0.018322 -0.128696 
-0.008971 -0.132073 
-0.011893 -0.132801 
-0.012358 -0.123426 
-0.009770 -0.144876 
-0.010827 -0.139992 
-0.007102 -0.147097 
-0.002498 -0.126309 
-0.001931 -0.118008 
-0.000741 -0.141661 
-0.001879 -0.134019 
-0.006442 -0.120541 
-0.004221 -0.128266 
-0.006385 -0.130365 
-0.004666 -0.146932 
-0.005570 -0.139206 
-0.002492 -0.144933 
-0.027363 -0.109745 
-0.023393 -0.112637 
-0.029159 -0.088664 
-0.026796 -0.101291 
-0.033953 -0.087515 
-0.019351 -0.113545 
-0.015409 -0.113189 
-0.014464 -0.020795 
-0.023955 -0.041004 
-0.021663 -0.028021 
-0.019216 -0.072569 
-0.022676 -0.056963 
-0.017415 -0.055799 
-0.034457 -0.061192 
-0.028592 -0.058833 
-0.029984 -0.074594 
-0.005333 -0.109694 
-0.002590 -0.108889 
-0.011714 -0.112145 
-0.008352 -0.110864 
-0.010478 -0.085944 
-0.009763 -0.099297 
-0.014628 -0.086843 
-0.024129 -0.088510 
-0.019207 -0.087771 
-0.017808 -0.101313 
0.000000 0.000000 
-0.010158 -0.019269 
-0.005369 -0.018840 
-0.007406 -0.018925 
0.000000 0.000000 
-0.013466 -0.037735 
-0.012938 -0.055072 
-0.000000 -0.018801 
-0.001145 -0.018804 
0.000000 0.000000 
-0.002825 -0.054049 
-0.002118 -0.036878 
-0.000000 -0.053979 
0.000000 0.000000 
-0.002364 -0.018810 
-0.003739 -0.018818 
-0.003060 -0.097734 
-0.000000 -0.108604 
-0.010313 -0.070964 
-0.006730 -0.085207 
-0.000000 -0.084558 
-0.003285 -0.084726 
-0.003216 -0.070083 
-0.006889 -0.037097 
-0.005813 -0.054250 
-0.009127 -0.054584 
0.000000 0.000000 
0.001145 -0.018804 
0.003739 -0.018818 
0.002364 -0.018810 
0.000000 0.000000 
0.002118 -0.036878 
0.002825 -0.054049 
0.014464 -0.020795 
0.010158 -0.019269 
0.000000 0.000000 
0.012938 -0.055072 
0.013466 -0.037735 
0.017415 -0.055799 
0.000000 0.000000 
0.007406 -0.018925 
0.005369 -0.018840 
0.003060 -0.097734 
0.002590 -0.108889 
0.003216 -0.070083 
0.003285 -0.084726 
0.010478 -0.085944 
0.006730 -0.085207 
0.010313 -0.070964 
0.006889 -0.037097 
0.009127 -0.054584 
0.005813 -0.054250 
0.021663 -0.028021 
0.023955 -0.041004 
0.029984 -0.074594 
0.028592 -0.058833 
0.034457 -0.061192 
0.022676 -0.056963 
0.019216 -0.072569 
0.019354 -0.122816 
0.023393 -0.112637 
0.027363 -0.109745 
0.015409 -0.113189 
0.019351 -0.113545 
0.012358 -0.123426 
0.033953 -0.087515 
0.026796 -0.101291 
0.029159 -0.088664 
0.005333 -0.109694 
0.001931 -0.118008 
0.014628 -0.086843 
0.009763 -0.099297 
0.006442 -0.120541 
0.008352 -0.110864 
0.011714 -0.112145 
0.024129 -0.088510 
0.017808 -0.101313 
0.019207 -0.087771 
0.018322 -0.128696 
0.015042 -0.131912 
0.007102 -0.147097 
0.010827 -0.139992 
0.009770 -0.144876 
0.011893 -0.132801 
0.008971 -0.132073 
0.002918 -0.162316 
0.005175 -0.166131 
0.000124 -0.149421 
0.000892 -0.156685 
0.004775 -0.158107 
0.002810 -0.158354 
0.004291 -0.153234 
0.002498 -0.126309 
0.006385 -0.130365 
0.004221 -0.128266 
0.001879 -0.134019 
0.000741 -0.141661 
0.004666 -0.146932 
0.002492 -0.144933 
0.005570 -0.139206 
0.006417 -0.166461 
0.005505 -0.165510 
0.005633 -0.166246 
0.005329 -0.163103 
0.005412 -0.164514 
0.006725 -0.164659 
0.002961 -0.162858 
0.004085 -0.163895 
0.002302 -0.161468 
0.003837 -0.149742 
0.004587 -0.154726 
0.008500 -0.154926 
-0.000388 -0.153244 
0.001602 -0.154071 
-0.001468 -0.148754 
0.007524 -0.161244 
0.004999 -0.158405 
0.005213 -0.161123 
-0.001536 -0.148901 
-0.001991 -0.150213 
-0.002279 -0.146156 
0.000467 -0.158221 
-0.001054 -0.154351 
-0.000061 -0.156741 
-0.002904 -0.147751 
-0.002029 -0.151341 
-0.001541 -0.152337 
0.003143 -0.160492 
0.000635 -0.156791 
0.001534 -0.159489 
0.000000 -0.105901 
-0.000171 -0.106739 
0.000433 -0.100940 
-0.000923 -0.116763 
-0.000630 -0.112033 
0.000000 -0.116102 
0.001895 -0.108424 
-0.000248 -0.109231 
-0.000152 -0.113328 
-0.000889 -0.129079 
-0.001018 -0.127042 
0.000000 -0.128707 
-0.002912 -0.125373 
-0.002097 -0.125792 
-0.002961 -0.128199 
0.000000 -0.123798 
-0.001085 -0.124303 
-0.001065 -0.120868 
0.008773 -0.143087 
0.001489 -0.134311 
0.002654 -0.142912 
0.000166 -0.118957 
0.000714 -0.126015 
0.004929 -0.122865 
-0.003250 -0.131541 
-0.001860 -0.128992 
-0.003028 -0.126256 
-0.001782 -0.118720 
-0.002508 -0.121919 
-0.001623 -0.117874 
0.000761 -0.121440 
0.000558 -0.124574 
0.000000 -0.121335 
0.000517 -0.130345 
0.000720 -0.127543 
0.001157 -0.128225 
0.000000 -0.126975 
0.000344 -0.127118 
0.000125 -0.129057 
-0.002026 -0.142401 
-0.001425 -0.139013 
-0.001039 -0.141280 
-0.001573 -0.134823 
-0.001601 -0.136819 
-0.002433 -0.137174 
0.000291 -0.134557 
-0.000683 -0.135948 
0.000014 -0.133102 
0.000000 -0.130800 
-0.000525 -0.131070 
-0.000720 -0.130418 
-0.000096 -0.130373 
-0.000315 -0.131050 
0.000000 -0.130177 
-0.001915 -0.132850 
-0.000995 -0.131864 
-0.001359 -0.133139 
-0.000125 -0.131877 
-0.000756 -0.132812 
-0.000151 -0.130951 
-0.000627 -0.143075 
-0.003859 -0.133624 
-0.003070 -0.137427 
-0.002437 -0.143366 
-0.003322 -0.143612 
-0.001709 -0.130174 
-0.002889 -0.134262 
-0.002396 -0.131934 
-0.002764 -0.130386 
-0.003601 -0.131408 
-0.002823 -0.143153 
-0.003573 -0.143707 
-0.003367 -0.143573 
-0.003119 -0.140048 
-0.003140 -0.137023 
-0.003944 -0.135238 
-0.003668 -0.136374 
-0.003937 -0.139437 
-0.000433 -0.100940 
0.000171 -0.106739 
0.000152 -0.113328 
0.000248 -0.109231 
-0.001895 -0.108424 
0.000630 -0.112033 
0.000923 -0.116763 
-0.002654 -0.142912 
-0.001489 -0.134311 
-0.008773 -0.143087 
0.003028 -0.126256 
0.001860 -0.128992 
0.003250 -0.131541 
-0.004929 -0.122865 
-0.000714 -0.126015 
-0.000166 -0.118957 
0.001018 -0.127042 
0.000889 -0.129079 
0.001065 -0.120868 
0.001085 -0.124303 
0.002961 -0.128199 
0.002097 -0.125792 
0.002912 -0.125373 
0.001623 -0.117874 
0.002508 -0.121919 
0.001782 -0.118720 
-0.005633 -0.166246 
-0.005505 -0.165510 
-0.006417 -0.166461 
-0.002302 -0.161468 
-0.004085 -0.163895 
-0.002961 -0.162858 
-0.006725 -0.164659 
-0.005412 -0.164514 
-0.005329 -0.163103 
0.002279 -0.146156 
0.001991 -0.150213 
0.001536 -0.148901 
0.001541 -0.152337 
0.002029 -0.151341 
0.002904 -0.147751 
0.000061 -0.156741 
0.001054 -0.154351 
-0.000467 -0.158221 
-0.008500 -0.154926 
-0.004587 -0.154726 
-0.003837 -0.149742 
-0.005213 -0.161123 
-0.004999 -0.158405 
-0.007524 -0.161244 
0.001468 -0.148754 
-0.001602 -0.154071 
0.000388 -0.153244 
-0.001534 -0.159489 
-0.000635 -0.156791 
-0.003143 -0.160492 
-0.000558 -0.124574 
-0.000761 -0.121440 
-0.000125 -0.129057 
-0.000344 -0.127118 
-0.001157 -0.128225 
-0.000720 -0.127543 
-0.000517 -0.130345 
0.000720 -0.130418 
0.000525 -0.131070 
0.001359 -0.133139 
0.000995 -0.131864 
0.001915 -0.132850 
0.000315 -0.131050 
0.000096 -0.130373 
0.001039 -0.141280 
0.001425 -0.139013 
0.002026 -0.142401 
-0.000014 -0.133102 
0.000683 -0.135948 
-0.000291 -0.134557 
0.002433 -0.137174 
0.001601 -0.136819 
0.001573 -0.134823 
0.000151 -0.130951 
0.000756 -0.132812 
0.000125 -0.131877 
0.000627 -0.143075 
0.003322 -0.143612 
0.002437 -0.143366 
0.003070 -0.137427 
0.003859 -0.133624 
0.002823 -0.143153 
0.003140 -0.137023 
0.003119 -0.140048 
0.003367 -0.143573 
0.003573 -0.143707 
0.001709 -0.130174 
0.003601 -0.131408 
0.002764 -0.130386 
0.002396 -0.131934 
0.002889 -0.134262 
0.003937 -0.139437 
0.003668 -0.136374 
0.003944 -0.135238 
-0.005802 -0.166882 
-0.004805 -0.165555 
-0.003626 -0.162794 
-0.004090 -0.164393 
-0.004653 -0.164832 
-0.003544 -0.163788 
-0.002177 -0.161463 
-0.005430 -0.152885 
-0.004413 -0.155807 
-0.005532 -0.155150 
-0.002336 -0.155528 
-0.003362 -0.155927 
-0.003194 -0.153030 
-0.004387 -0.160752 
-0.003764 -0.158457 
-0.003503 -0.160801 
0.000653 -0.151270 
0.000749 -0.147358 
-0.000897 -0.158527 
0.000093 -0.155065 
-0.001095 -0.151088 
-0.000313 -0.153188 
-0.001318 -0.154613 
-0.002661 -0.160492 
-0.001860 -0.157773 
-0.001803 -0.159757 
-0.021163 -0.121525 
-0.018926 -0.126194 
-0.020651 -0.124232 
-0.015512 -0.128230 
-0.017209 -0.127495 
-0.017553 -0.123561 
-0.016022 -0.132989 
-0.016671 -0.130643 
-0.014442 -0.134877 
-0.009213 -0.127289 
-0.010686 -0.127944 
-0.010748 -0.122857 
-0.009949 -0.136788 
-0.010397 -0.132598 
-0.008562 -0.136475 
-0.014038 -0.123782 
-0.012237 -0.128371 
-0.013850 -0.128493 
-0.008069 -0.148500 
-0.008403 -0.146325 
-0.006776 -0.149718 
-0.012288 -0.138901 
-0.010258 -0.142717 
-0.011697 -0.141078 
-0.007552 -0.144014 
-0.008877 -0.143665 
-0.009417 -0.140485 
-0.013446 -0.132601 
-0.011398 -0.136683 
-0.012899 -0.136076 
-0.001549 -0.121756 
-0.000954 -0.117733 
-0.001679 -0.129128 
-0.001783 -0.125528 
-0.002951 -0.118454 
-0.002385 -0.122267 
-0.003288 -0.122946 
0.000455 -0.143495 
-0.000089 -0.139762 
-0.002605 -0.135446 
-0.001315 -0.137823 
-0.002063 -0.139450 
-0.000723 -0.136161 
-0.001295 -0.132642 
-0.007783 -0.121355 
-0.006543 -0.125576 
-0.007829 -0.126477 
-0.004276 -0.123755 
-0.005358 -0.124649 
-0.005194 -0.119756 
-0.004921 -0.133817 
-0.005247 -0.129330 
-0.003925 -0.132617 
-0.002307 -0.130203 
-0.003054 -0.131388 
-0.003307 -0.127239 
-0.005555 -0.150288 
-0.006285 -0.143842 
-0.005857 -0.147276 
-0.004385 -0.150280 
-0.003261 -0.149748 
-0.007630 -0.131304 
-0.004462 -0.138122 
-0.006034 -0.134911 
-0.007252 -0.135823 
-0.006776 -0.140013 
-0.000299 -0.145542 
-0.002190 -0.148743 
-0.001193 -0.147319 
-0.001551 -0.143416 
-0.002954 -0.140950 
-0.005085 -0.143225 
-0.003968 -0.142236 
-0.003539 -0.146129 
-0.025217 -0.114764 
-0.023335 -0.116626 
-0.027306 -0.106102 
-0.025398 -0.111489 
-0.029359 -0.104520 
-0.021430 -0.117866 
-0.019520 -0.118585 
-0.032375 -0.081784 
-0.031607 -0.088313 
-0.034830 -0.081364 
-0.024537 -0.101705 
-0.028135 -0.095146 
-0.025753 -0.095386 
-0.032707 -0.093415 
-0.030465 -0.094529 
-0.029012 -0.100453 
-0.013945 -0.118509 
-0.012196 -0.118003 
-0.017623 -0.118875 
-0.015759 -0.118824 
-0.018791 -0.107760 
-0.017358 -0.113486 
-0.020915 -0.107855 
-0.025198 -0.107116 
-0.023059 -0.107669 
-0.021370 -0.113291 
-0.009789 -0.011577 
-0.017759 -0.023158 
-0.014000 -0.017024 
-0.020841 -0.039579 
-0.019936 -0.031184 
-0.016977 -0.029800 
-0.026903 -0.037400 
-0.023370 -0.033622 
-0.027284 -0.043116 
-0.016782 -0.072106 
-0.018567 -0.064368 
-0.016152 -0.063924 
-0.023878 -0.065496 
-0.021147 -0.064888 
-0.021784 -0.073068 
-0.018118 -0.047360 
-0.019946 -0.056308 
-0.020766 -0.048008 
-0.035178 -0.068232 
-0.032472 -0.067678 
-0.032693 -0.074918 
-0.029935 -0.051863 
-0.031600 -0.060016 
-0.032968 -0.053773 
-0.027217 -0.074121 
-0.029619 -0.066945 
-0.026724 -0.066191 
-0.023665 -0.048929 
-0.025580 -0.057800 
-0.026764 -0.050205 
-0.002281 -0.113713 
-0.001131 -0.113472 
-0.004721 -0.114626 
-0.003471 -0.114105 
-0.004326 -0.103860 
-0.003933 -0.109234 
-0.005855 -0.104268 
-0.010526 -0.117369 
-0.008942 -0.116665 
-0.010898 -0.105895 
-0.009989 -0.111510 
-0.012753 -0.106475 
-0.007447 -0.115944 
-0.006042 -0.115250 
-0.012559 -0.079034 
-0.012499 -0.086381 
-0.014721 -0.079459 
-0.007976 -0.098802 
-0.010219 -0.092835 
-0.008351 -0.092391 
-0.014245 -0.093816 
-0.012183 -0.093318 
-0.011639 -0.099827 
-0.006802 -0.110248 
-0.009132 -0.105312 
-0.007453 -0.104760 
-0.029800 -0.081822 
-0.024521 -0.081262 
-0.027163 -0.081614 
-0.026650 -0.088696 
-0.023357 -0.095349 
-0.017006 -0.079910 
-0.016406 -0.094305 
-0.016866 -0.087314 
-0.019411 -0.080374 
-0.021925 -0.080834 
-0.013524 -0.112722 
-0.020015 -0.101640 
-0.016711 -0.107458 
-0.014694 -0.107012 
-0.015668 -0.100872 
-0.021636 -0.088183 
-0.018656 -0.094751 
-0.020981 -0.095116 
0.000000 0.000000 
-0.007520 -0.010176 
-0.005203 -0.009544 
-0.006169 -0.009721 
0.000000 0.000000 
-0.012021 -0.019749 
-0.014511 -0.029041 
-0.002754 -0.009450 
-0.003243 -0.009445 
0.000000 0.000000 
-0.009127 -0.028236 
-0.006323 -0.018868 
-0.007759 -0.028145 
0.000000 0.000000 
-0.003797 -0.009449 
-0.004437 -0.009474 
-0.015083 -0.055396 
-0.013902 -0.063543 
-0.015617 -0.038101 
-0.015720 -0.046901 
-0.011584 -0.046315 
-0.013552 -0.046567 
-0.011557 -0.037491 
-0.008661 -0.019038 
-0.010671 -0.028380 
-0.012441 -0.028621 
-0.000000 -0.009487 
-0.000291 -0.009487 
0.000000 0.000000 
-0.000823 -0.027931 
-0.000568 -0.018802 
-0.000000 -0.027928 
0.000000 0.000000 
-0.000587 -0.009486 
-0.000892 -0.009483 
-0.001520 -0.062155 
-0.001403 -0.053997 
-0.000000 -0.062131 
-0.003218 -0.036912 
-0.002509 -0.045590 
-0.003810 -0.045647 
-0.000000 -0.045542 
-0.001245 -0.045554 
-0.001051 -0.036857 
0.000000 0.000000 
-0.001918 -0.009466 
-0.002316 -0.009458 
-0.001212 -0.009479 
-0.001552 -0.009473 
0.000000 0.000000 
-0.004383 -0.028004 
-0.003027 -0.018813 
-0.003425 -0.027977 
-0.001659 -0.027941 
-0.002522 -0.027956 
-0.001740 -0.018806 
-0.001286 -0.108676 
0.000000 -0.113392 
-0.004638 -0.098002 
-0.002852 -0.103555 
-0.000000 -0.103302 
-0.001416 -0.103367 
-0.001520 -0.097568 
-0.012336 -0.071302 
-0.010516 -0.078645 
-0.006745 -0.078005 
-0.008582 -0.078299 
-0.008406 -0.070670 
-0.008559 -0.085549 
-0.006568 -0.092002 
-0.000000 -0.077452 
-0.001634 -0.077488 
-0.001598 -0.069996 
-0.001593 -0.091304 
-0.001632 -0.084601 
-0.000000 -0.091254 
-0.004877 -0.070226 
-0.003290 -0.077594 
-0.004987 -0.077768 
-0.004859 -0.091684 
-0.004978 -0.084931 
-0.003206 -0.091449 
-0.004515 -0.018826 
-0.005584 -0.037020 
-0.005411 -0.028038 
-0.006529 -0.028083 
-0.008302 -0.037195 
-0.003062 -0.062224 
-0.006291 -0.062494 
-0.004645 -0.062337 
-0.004288 -0.054133 
-0.005168 -0.045727 
-0.011807 -0.063214 
-0.009787 -0.046117 
-0.010959 -0.054806 
-0.009853 -0.062932 
-0.008020 -0.062692 
-0.006603 -0.045831 
-0.007418 -0.054400 
-0.008135 -0.045959 
0.000000 0.000000 
0.000291 -0.009487 
0.000892 -0.009483 
0.000587 -0.009486 
0.000000 0.000000 
0.000568 -0.018802 
0.000823 -0.027931 
0.002316 -0.009458 
0.001918 -0.009466 
0.000000 0.000000 
0.003425 -0.027977 
0.003027 -0.018813 
0.004383 -0.028004 
0.000000 0.000000 
0.001552 -0.009473 
0.001212 -0.009479 
0.001403 -0.053997 
0.001520 -0.062155 
0.001051 -0.036857 
0.001245 -0.045554 
0.003810 -0.045647 
0.002509 -0.045590 
0.003218 -0.036912 
0.001740 -0.018806 
0.002522 -0.027956 
0.001659 -0.027941 
0.009789 -0.011577 
0.007520 -0.010176 
0.000000 0.000000 
0.014511 -0.029041 
0.012021 -0.019749 
0.016977 -0.029800 
0.000000 0.000000 
0.006169 -0.009721 
0.005203 -0.009544 
0.013902 -0.063543 
0.015083 -0.055396 
0.016152 -0.063924 
0.011557 -0.037491 
0.013552 -0.046567 
0.011584 -0.046315 
0.018118 -0.047360 
0.015720 -0.046901 
0.015617 -0.038101 
0.000000 0.000000 
0.003243 -0.009445 
0.002754 -0.009450 
0.004437 -0.009474 
0.003797 -0.009449 
0.000000 0.000000 
0.007759 -0.028145 
0.006323 -0.018868 
0.009127 -0.028236 
0.012441 -0.028621 
0.010671 -0.028380 
0.008661 -0.019038 
0.001286 -0.108676 
0.001131 -0.113472 
0.001520 -0.097568 
0.001416 -0.103367 
0.004326 -0.103860 
0.002852 -0.103555 
0.004638 -0.098002 
0.001598 -0.069996 
0.001634 -0.077488 
0.004987 -0.077768 
0.003290 -0.077594 
0.004877 -0.070226 
0.001632 -0.084601 
0.001593 -0.091304 
0.012559 -0.079034 
0.010516 -0.078645 
0.012336 -0.071302 
0.006568 -0.092002 
0.008559 -0.085549 
0.008351 -0.092391 
0.008406 -0.070670 
0.008582 -0.078299 
0.006745 -0.078005 
0.003206 -0.091449 
0.004978 -0.084931 
0.004859 -0.091684 
0.004515 -0.018826 
0.008302 -0.037195 
0.006529 -0.028083 
0.005411 -0.028038 
0.005584 -0.037020 
0.011807 -0.063214 
0.008020 -0.062692 
0.009853 -0.062932 
0.010959 -0.054806 
0.009787 -0.046117 
0.003062 -0.062224 
0.005168 -0.045727 
0.004288 -0.054133 
0.004645 -0.062337 
0.006291 -0.062494 
0.008135 -0.045959 
0.007418 -0.054400 
0.006603 -0.045831 
0.014000 -0.017024 
0.017759 -0.023158 
0.027284 -0.043116 
0.023370 -0.033622 
0.026903 -0.037400 
0.019936 -0.031184 
0.020841 -0.039579 
0.032693 -0.074918 
0.032472 -0.067678 
0.035178 -0.068232 
0.026724 -0.066191 
0.029619 -0.066945 
0.027217 -0.074121 
0.032968 -0.053773 
0.031600 -0.060016 
0.029935 -0.051863 
0.018567 -0.064368 
0.016782 -0.072106 
0.020766 -0.048008 
0.019946 -0.056308 
0.021784 -0.073068 
0.021147 -0.064888 
0.023878 -0.065496 
0.026764 -0.050205 
0.025580 -0.057800 
0.023665 -0.048929 
0.021163 -0.121525 
0.023335 -0.116626 
0.025217 -0.114764 
0.019520 -0.118585 
0.021430 -0.117866 
0.017553 -0.123561 
0.029359 -0.104520 
0.025398 -0.111489 
0.027306 -0.106102 
0.012196 -0.118003 
0.013945 -0.118509 
0.010748 -0.122857 
0.020915 -0.107855 
0.017358 -0.113486 
0.018791 -0.107760 
0.014038 -0.123782 
0.015759 -0.118824 
0.017623 -0.118875 
0.034830 -0.081364 
0.031607 -0.088313 
0.032375 -0.081784 
0.029012 -0.100453 
0.030465 -0.094529 
0.032707 -0.093415 
0.025753 -0.095386 
0.028135 -0.095146 
0.024537 -0.101705 
0.021370 -0.113291 
0.023059 -0.107669 
0.025198 -0.107116 
0.002281 -0.113713 
0.000954 -0.117733 
0.005855 -0.104268 
0.003933 -0.109234 
0.002951 -0.118454 
0.003471 -0.114105 
0.004721 -0.114626 
0.014721 -0.079459 
0.012499 -0.086381 
0.011639 -0.099827 
0.012183 -0.093318 
0.014245 -0.093816 
0.010219 -0.092835 
0.007976 -0.098802 
0.007783 -0.121355 
0.008942 -0.116665 
0.010526 -0.117369 
0.006042 -0.115250 
0.007447 -0.115944 