# vtk DataFile Version 2.0
Unstructured Grid Example
ASCII
DATASET UNSTRUCTURED_GRID

POINTS 9 float
0.010692 -0.148288 0.000000 
0.989308 -0.148288 0.000000 
1.000000 1.000000 0.000000 
0.000000 1.000000 0.000000 
0.500000 -0.060115 0.000000 
0.977304 0.396053 0.000000 
0.500000 1.000000 0.000000 
0.022696 0.396053 0.000000 
0.500000 0.407073 0.000000 

CELLS 8 32
3  0 4 8 
3  4 1 8 
3  1 5 8 
3  5 2 8 
3  2 6 8 
3  6 3 8 
3  3 7 8 
3  7 0 8 

CELL_TYPES 8
5
5
5
5
5
5
5
5

POINT_DATA 9

SCALARS u_h float 2
LOOKUP_TABLE default
0.010692 -0.148288 
-0.010692 -0.148288 
0.000000 0.000000 
0.000000 0.000000 
0.000000 -0.060115 
-0.022696 -0.103947 
0.000000 0.000000 
0.022696 -0.103947 
0.000000 -0.092927 

CELL_DATA 8

SCALARS epsilon float 4
LOOKUP_TABLE default
-0.021613 -0.049168 0.000000 0.094321
-0.021613 -0.049168 0.000000 -0.094321
-0.046661 0.084495 0.000000 -0.022592
-0.044781 0.187949 0.000000 0.013961
0.000000 0.169007 0.000000 -0.000000
0.000000 0.169007 0.000000 -0.000000
-0.044781 0.187949 0.000000 -0.013961
-0.046661 0.084495 0.000000 0.022592

SCALARS sigma float 4
LOOKUP_TABLE default
-1.279190 -2.072617 -0.920826 1.581413
-1.279190 -2.072617 -0.920826 -1.581413
-0.459512 1.657309 0.329065 -0.363522
0.496957 4.096315 1.261888 0.165912
1.567252 4.137547 1.567252 -0.000000
1.567252 4.137547 1.567252 -0.000000
0.496957 4.096315 1.261888 -0.165912
-0.459512 1.657309 0.329065 0.363522

