# vtk DataFile Version 2.0
Unstructured Grid Example
ASCII
DATASET UNSTRUCTURED_GRID

POINTS 25 float
0.008646 -0.166857 0.000000 
0.991354 -0.166857 0.000000 
1.000000 1.000000 0.000000 
0.000000 1.000000 0.000000 
0.500000 -0.089984 0.000000 
0.975579 0.381232 0.000000 
0.500000 1.000000 0.000000 
0.024421 0.381232 0.000000 
0.500000 0.385353 0.000000 
0.254811 -0.150038 0.000000 
0.500000 0.129014 0.000000 
0.251742 0.103609 0.000000 
0.745189 -0.150038 0.000000 
0.748258 0.103609 0.000000 
0.989734 0.097883 0.000000 
0.739022 0.379618 0.000000 
0.968710 0.674837 0.000000 
0.737847 0.680677 0.000000 
0.750000 1.000000 0.000000 
0.500000 0.683997 0.000000 
0.250000 1.000000 0.000000 
0.262153 0.680677 0.000000 
0.031290 0.674837 0.000000 
0.260978 0.379618 0.000000 
0.010266 0.097883 0.000000 

CELLS 32 128
3  0 9 11 
3  4 10 9 
3  8 11 10 
3  9 10 11 
3  4 12 10 
3  1 13 12 
3  8 10 13 
3  12 13 10 
3  1 14 13 
3  5 15 14 
3  8 13 15 
3  14 15 13 
3  5 16 15 
3  2 17 16 
3  8 15 17 
3  16 17 15 
3  2 18 17 
3  6 19 18 
3  8 17 19 
3  18 19 17 
3  6 20 19 
3  3 21 20 
3  8 19 21 
3  20 21 19 
3  3 22 21 
3  7 23 22 
3  8 21 23 
3  22 23 21 
3  7 24 23 
3  0 11 24 
3  8 23 11 
3  24 11 23 

CELL_TYPES 32
5
5
5
5
5
5
5
5
5
5
5
5
5
5
5
5
5
5
5
5
5
5
5
5
5
5
5
5
5
5
5
5

POINT_DATA 25

SCALARS u_h float 2
LOOKUP_TABLE default
0.008646 -0.166857 
-0.008646 -0.166857 
0.000000 0.000000 
0.000000 0.000000 
-0.000000 -0.089984 
-0.024421 -0.118768 
0.000000 0.000000 
0.024421 -0.118768 
-0.000000 -0.114647 
0.004811 -0.150038 
0.000000 -0.120986 
0.001742 -0.146391 
-0.004811 -0.150038 
-0.001742 -0.146391 
-0.010266 -0.152117 
-0.010978 -0.120382 
-0.031290 -0.075163 
-0.012153 -0.069323 
0.000000 0.000000 
-0.000000 -0.066003 
0.000000 0.000000 
0.012153 -0.069323 
0.031290 -0.075163 
0.010978 -0.120382 
0.010266 -0.152117 

CELL_DATA 32

SCALARS epsilon float 4
LOOKUP_TABLE default
-0.014555 0.017572 0.000000 0.026916
-0.019429 -0.092453 0.000000 0.137057
-0.006993 0.030014 0.000000 0.049551
-0.005681 0.020793 0.000000 0.043899
-0.019429 -0.092453 0.000000 -0.137057
-0.014555 0.017572 0.000000 -0.026916
-0.006993 0.030014 0.000000 -0.049551
-0.005681 0.020793 0.000000 -0.043899
-0.034803 0.057336 0.000000 -0.014146
-0.053481 0.124977 0.000000 -0.026662
-0.045063 0.098113 0.000000 -0.029518
-0.034870 0.098116 0.000000 -0.029316
-0.054749 0.159717 0.000000 -0.011456
-0.071640 0.260358 0.000000 0.055166
-0.044960 0.184086 0.000000 -0.011891
-0.079547 0.184103 0.000000 -0.012101
0.000724 0.240660 0.000000 0.023160
0.000000 0.230681 0.000000 0.000000
-0.049789 0.176217 0.000000 -0.005545
-0.048460 0.241226 0.000000 0.019152
0.000000 0.230681 0.000000 0.000000
0.000724 0.240660 0.000000 -0.023160
-0.049789 0.176217 0.000000 0.005545
-0.048460 0.241226 0.000000 -0.019152
-0.071640 0.260358 0.000000 -0.055166
-0.054749 0.159717 0.000000 0.011456
-0.044960 0.184086 0.000000 0.011891
-0.079547 0.184103 0.000000 0.012101
-0.053481 0.124977 0.000000 0.026662
-0.034803 0.057336 0.000000 0.014146
-0.045063 0.098113 0.000000 0.029518
-0.034870 0.098116 0.000000 0.029316

SCALARS sigma float 4
LOOKUP_TABLE default
-0.237170 0.253701 0.004541 0.451082
-1.933623 -3.933433 -1.611828 2.292729
0.062023 0.582655 0.177109 0.818383
0.003588 0.354049 0.098252 0.726261
-1.933623 -3.933433 -1.611828 -2.292729
-0.237170 0.253701 0.004541 -0.451082
0.062023 0.582655 0.177109 -0.818383
0.003588 0.354049 0.098252 -0.726261
-0.380488 1.111819 0.200915 -0.235616
-0.310780 2.550439 0.615291 -0.383402
-0.299684 2.000817 0.467344 -0.465578
-0.018521 2.107512 0.573898 -0.460556
-0.009287 3.357810 0.919924 -0.155049
0.211229 5.349102 1.527563 0.693329
0.480065 4.015028 1.234916 -0.196854
-0.496061 3.645188 0.865145 -0.206885
2.170948 5.731303 2.170948 0.312070
2.088684 5.514125 2.088684 0.000000
0.279948 3.789171 1.117890 -0.095829
0.840959 5.236920 1.669747 0.238265
2.088684 5.514125 2.088684 0.000000
2.170948 5.731303 2.170948 -0.312070
0.279948 3.789171 1.117890 0.095829
0.840959 5.236920 1.669747 -0.238265
0.211229 5.349102 1.527563 -0.693329
-0.009287 3.357810 0.919924 0.155049
0.480065 4.015028 1.234916 0.196854
-0.496061 3.645188 0.865145 0.206885
-0.310780 2.550439 0.615291 0.383402
-0.380488 1.111819 0.200915 0.235616
-0.299684 2.000817 0.467344 0.465578
-0.018521 2.107512 0.573898 0.460556

