# vtk DataFile Version 2.0
Unstructured Grid Example
ASCII
DATASET UNSTRUCTURED_GRID

POINTS 4225 float
0.006525 -0.167170 0.000000 
0.993475 -0.167170 0.000000 
1.000000 1.000000 0.000000 
0.000000 1.000000 0.000000 
0.500000 -0.099960 0.000000 
0.977047 0.380474 0.000000 
0.500000 1.000000 0.000000 
0.022953 0.380474 0.000000 
0.500000 0.382346 0.000000 
0.258744 -0.149870 0.000000 
0.500000 0.119970 0.000000 
0.248533 0.105062 0.000000 
0.741256 -0.149870 0.000000 
0.751467 0.105062 0.000000 
0.993354 0.098119 0.000000 
0.740784 0.377907 0.000000 
0.964788 0.675065 0.000000 
0.735545 0.678357 0.000000 
0.750000 1.000000 0.000000 
0.500000 0.680074 0.000000 
0.250000 1.000000 0.000000 
0.264455 0.678357 0.000000 
0.035212 0.675065 0.000000 
0.259216 0.377907 0.000000 
0.006646 0.098119 0.000000 
0.132106 -0.163153 0.000000 
0.247505 -0.023245 0.000000 
0.126351 -0.035055 0.000000 
0.500000 0.004792 0.000000 
0.371467 -0.004073 0.000000 
0.378220 -0.114783 0.000000 
0.375841 0.243662 0.000000 
0.372722 0.115229 0.000000 
0.500000 0.246165 0.000000 
0.621780 -0.114783 0.000000 
0.628533 -0.004073 0.000000 
0.873649 -0.035055 0.000000 
0.752495 -0.023245 0.000000 
0.867894 -0.163153 0.000000 
0.627278 0.115229 0.000000 
0.624159 0.243662 0.000000 
0.995657 -0.037957 0.000000 
0.872865 0.097746 0.000000 
0.859226 0.376193 0.000000 
0.866931 0.234582 0.000000 
0.986194 0.237921 0.000000 
0.746530 0.238209 0.000000 
0.620973 0.381005 0.000000 
0.968870 0.525937 0.000000 
0.852754 0.523252 0.000000 
0.857024 0.836370 0.000000 
0.850586 0.676451 0.000000 
0.969578 0.829139 0.000000 
0.736408 0.524686 0.000000 
0.618735 0.526682 0.000000 
0.875000 1.000000 0.000000 
0.740189 0.837701 0.000000 
0.500000 0.838172 0.000000 
0.620647 0.838057 0.000000 
0.625000 1.000000 0.000000 
0.618415 0.679611 0.000000 
0.500000 0.527533 0.000000 
0.375000 1.000000 0.000000 
0.379353 0.838057 0.000000 
0.142976 0.836370 0.000000 
0.259811 0.837701 0.000000 
0.125000 1.000000 0.000000 
0.381585 0.679611 0.000000 
0.381265 0.526682 0.000000 
0.030422 0.829139 0.000000 
0.149414 0.676451 0.000000 
0.140774 0.376193 0.000000 
0.147246 0.523252 0.000000 
0.031130 0.525937 0.000000 
0.263592 0.524686 0.000000 
0.379027 0.381005 0.000000 
0.013806 0.237921 0.000000 
0.133069 0.234582 0.000000 
0.127135 0.097746 0.000000 
0.004343 -0.037957 0.000000 
0.253470 0.238209 0.000000 
0.069056 -0.165640 0.000000 
0.128644 -0.099899 0.000000 
0.066943 -0.102308 0.000000 
0.250528 -0.086646 0.000000 
0.189943 -0.095141 0.000000 
0.195518 -0.158445 0.000000 
0.186443 0.034650 0.000000 
0.186989 -0.030571 0.000000 
0.247239 0.040480 0.000000 
0.500000 -0.048715 0.000000 
0.436312 -0.051692 0.000000 
0.438561 -0.103735 0.000000 
0.435538 0.059241 0.000000 
0.435442 0.002475 0.000000 
0.500000 0.060969 0.000000 
0.319462 -0.132510 0.000000 
0.373134 -0.060306 0.000000 
0.311031 -0.073479 0.000000 
0.438637 0.312610 0.000000 
0.437781 0.245505 0.000000 
0.500000 0.313090 0.000000 
0.310159 0.110302 0.000000 
0.374199 0.178312 0.000000 
0.312114 0.174731 0.000000 
0.500000 0.181744 0.000000 
0.436916 0.180835 0.000000 
0.436121 0.118713 0.000000 
0.308729 -0.013553 0.000000 
0.371654 0.054431 0.000000 
0.308841 0.047611 0.000000 
0.561439 -0.103735 0.000000 
0.563688 -0.051692 0.000000 
0.688969 -0.073479 0.000000 
0.626866 -0.060306 0.000000 
0.680538 -0.132510 0.000000 
0.564558 0.002475 0.000000 
0.564462 0.059241 0.000000 
0.933057 -0.102308 0.000000 
0.871356 -0.099899 0.000000 
0.930944 -0.165640 0.000000 
0.752761 0.040480 0.000000 
0.813011 -0.030571 0.000000 
0.813557 0.034650 0.000000 
0.804482 -0.158445 0.000000 
0.810057 -0.095141 0.000000 
0.749472 -0.086646 0.000000 
0.562219 0.245505 0.000000 
0.561363 0.312610 0.000000 
0.563879 0.118713 0.000000 
0.563084 0.180835 0.000000 
0.687886 0.174731 0.000000 
0.625801 0.178312 0.000000 
0.689841 0.110302 0.000000 
0.691271 -0.013553 0.000000 
0.691159 0.047611 0.000000 
0.628346 0.054431 0.000000 
0.994830 -0.103603 0.000000 
0.934602 -0.037254 0.000000 
0.933203 0.096817 0.000000 
0.934697 0.029204 0.000000 
0.995233 0.029455 0.000000 
0.874107 0.030874 0.000000 
0.812362 0.100625 0.000000 
0.918148 0.377228 0.000000 
0.922456 0.305633 0.000000 
0.981675 0.308840 0.000000 
0.803529 0.305476 0.000000 
0.863105 0.304746 0.000000 
0.800144 0.376625 0.000000 
0.990220 0.167666 0.000000 
0.926665 0.235053 0.000000 
0.930388 0.165450 0.000000 
0.622508 0.311246 0.000000 
0.560574 0.382037 0.000000 
0.749252 0.170887 0.000000 
0.685623 0.241035 0.000000 
0.681065 0.379514 0.000000 
0.683284 0.309289 0.000000 
0.743617 0.307186 0.000000 
0.870324 0.165614 0.000000 
0.806926 0.235842 0.000000 
0.809998 0.167612 0.000000 
0.972652 0.452782 0.000000 
0.914117 0.449903 0.000000 
0.908378 0.598872 0.000000 
0.910727 0.523746 0.000000 
0.966088 0.599997 0.000000 
0.855659 0.449001 0.000000 
0.797101 0.449361 0.000000 
0.923179 0.916758 0.000000 
0.913654 0.834052 0.000000 
0.978520 0.909611 0.000000 
0.793327 0.677476 0.000000 
0.852392 0.755582 0.000000 
0.795140 0.756741 0.000000 
0.965621 0.751320 0.000000 
0.908983 0.753712 0.000000 
0.907569 0.675444 0.000000 
0.619671 0.452855 0.000000 
0.559909 0.453654 0.000000 
0.738295 0.450407 0.000000 
0.679155 0.451687 0.000000 
0.677041 0.601599 0.000000 
0.677749 0.525750 0.000000 
0.735397 0.600702 0.000000 
0.850905 0.599035 0.000000 
0.793323 0.599776 0.000000 
0.794711 0.523735 0.000000 
0.937500 1.000000 0.000000 
0.864913 0.918252 0.000000 
0.744654 0.918668 0.000000 
0.805133 0.918587 0.000000 
0.812500 1.000000 0.000000 
0.799092 0.837294 0.000000 
0.737102 0.757461 0.000000 
0.500000 0.918709 0.000000 
0.561359 0.918704 0.000000 
0.562500 1.000000 0.000000 
0.559683 0.758478 0.000000 
0.560389 0.838139 0.000000 
0.500000 0.758552 0.000000 
0.687500 1.000000 0.000000 
0.622644 0.918697 0.000000 
0.683775 0.918689 0.000000 
0.559442 0.527309 0.000000 
0.500000 0.453933 0.000000 
0.677212 0.679073 0.000000 
0.618281 0.602333 0.000000 
0.500000 0.602986 0.000000 
0.559220 0.602814 0.000000 
0.559291 0.679951 0.000000 
0.680635 0.837920 0.000000 
0.619204 0.758275 0.000000 
0.678400 0.757944 0.000000 
0.437500 1.000000 0.000000 
0.438641 0.918704 0.000000 
0.316225 0.918689 0.000000 
0.377356 0.918697 0.000000 
0.312500 1.000000 0.000000 
0.439611 0.838139 0.000000 
0.440317 0.758478 0.000000 
0.076821 0.916758 0.000000 
0.135087 0.918252 0.000000 
0.062500 1.000000 0.000000 
0.262898 0.757461 0.000000 
0.200908 0.837294 0.000000 
0.204860 0.756741 0.000000 
0.187500 1.000000 0.000000 
0.194867 0.918587 0.000000 
0.255346 0.918668 0.000000 
0.440558 0.527309 0.000000 
0.440091 0.453654 0.000000 
0.440709 0.679951 0.000000 
0.440780 0.602814 0.000000 
0.322959 0.601599 0.000000 
0.381719 0.602333 0.000000 
0.322788 0.679073 0.000000 
0.319365 0.837920 0.000000 
0.321600 0.757944 0.000000 
0.380796 0.758275 0.000000 
0.021480 0.909611 0.000000 
0.086346 0.834052 0.000000 
0.092431 0.675444 0.000000 
0.091017 0.753712 0.000000 
0.034379 0.751320 0.000000 
0.147608 0.755582 0.000000 
0.206673 0.677476 0.000000 
0.081852 0.377228 0.000000 
0.085883 0.449903 0.000000 
0.027348 0.452782 0.000000 
0.202899 0.449361 0.000000 
0.144341 0.449001 0.000000 
0.199856 0.376625 0.000000 
0.033912 0.599997 0.000000 
0.089273 0.523746 0.000000 
0.091622 0.598872 0.000000 
0.380329 0.452855 0.000000 
0.439426 0.382037 0.000000 
0.264603 0.600702 0.000000 
0.322251 0.525750 0.000000 
0.318935 0.379514 0.000000 
0.320845 0.451687 0.000000 
0.261705 0.450407 0.000000 
0.149095 0.599035 0.000000 
0.205289 0.523735 0.000000 
0.206677 0.599776 0.000000 
0.018325 0.308840 0.000000 
0.077544 0.305633 0.000000 
0.069612 0.165450 0.000000 
0.073335 0.235053 0.000000 
0.009780 0.167666 0.000000 
0.136895 0.304746 0.000000 
0.196471 0.305476 0.000000 
0.065398 -0.037254 0.000000 
0.005170 -0.103603 0.000000 
0.187638 0.100625 0.000000 
0.125893 0.030874 0.000000 
0.004767 0.029455 0.000000 
0.065303 0.029204 0.000000 
0.066797 0.096817 0.000000 
0.377492 0.311246 0.000000 
0.256383 0.307186 0.000000 
0.316716 0.309289 0.000000 
0.314377 0.241035 0.000000 
0.250748 0.170887 0.000000 
0.129676 0.165614 0.000000 
0.190002 0.167612 0.000000 
0.193074 0.235842 0.000000 
0.037738 -0.166436 0.000000 
0.068021 -0.134204 0.000000 
0.036904 -0.134961 0.000000 
0.130325 -0.131771 0.000000 
0.099170 -0.133195 0.000000 
0.100516 -0.164598 0.000000 
0.096691 -0.069035 0.000000 
0.097822 -0.101321 0.000000 
0.127282 -0.067635 0.000000 
0.253779 -0.118354 0.000000 
0.223279 -0.123339 0.000000 
0.227216 -0.154799 0.000000 
0.218368 -0.059414 0.000000 
0.220331 -0.091461 0.000000 
0.248558 -0.054951 0.000000 
0.163790 -0.161157 0.000000 
0.192461 -0.127039 0.000000 
0.161444 -0.129776 0.000000 
0.217231 0.069893 0.000000 
0.216779 0.037333 0.000000 
0.247738 0.072636 0.000000 
0.156710 -0.033143 0.000000 
0.186458 0.001959 0.000000 
0.156190 -0.000425 0.000000 
0.247121 0.008541 0.000000 
0.216742 0.004960 0.000000 
0.217226 -0.027276 0.000000 
0.159367 -0.097892 0.000000 
0.188125 -0.062949 0.000000 
0.157766 -0.065648 0.000000 
0.500000 -0.074591 0.000000 
0.468590 -0.075439 0.000000 
0.469214 -0.100908 0.000000 
0.467827 -0.022948 0.000000 
0.468123 -0.049473 0.000000 
0.500000 -0.022274 0.000000 
0.408193 -0.108387 0.000000 
0.437267 -0.077934 0.000000 
0.406110 -0.082035 0.000000 
0.467860 0.089740 0.000000 
0.467732 0.060527 0.000000 
0.500000 0.090117 0.000000 
0.403342 -0.000321 0.000000 
0.435404 0.030520 0.000000 
0.403292 0.028106 0.000000 
0.500000 0.032530 0.000000 
0.467664 0.032016 0.000000 
0.467685 0.004199 0.000000 
0.289724 -0.142931 0.000000 
0.313975 -0.103079 0.000000 
0.283899 -0.111621 0.000000 
0.375169 -0.087672 0.000000 
0.344451 -0.094750 0.000000 
0.348685 -0.122836 0.000000 
0.340511 -0.037759 0.000000 
0.341893 -0.066470 0.000000 
0.371978 -0.032466 0.000000 
0.435720 -0.024914 0.000000 
0.403746 -0.028121 0.000000 
0.404630 -0.055329 0.000000 
0.469505 0.347349 0.000000 
[...]
POINT_DATA 4225

SCALARS u_h float 2
LOOKUP_TABLE default
0.006525 -0.167170 
-0.006525 -0.167170 
0.000000 0.000000 
0.000000 0.000000 
0.000000 -0.099960 
-0.022953 -0.119526 
0.000000 0.000000 
0.022953 -0.119526 
0.000000 -0.117654 
0.008744 -0.149870 
0.000000 -0.130030 
-0.001467 -0.144938 
-0.008744 -0.149870 
0.001467 -0.144938 
-0.006646 -0.151881 
-0.009216 -0.122093 
-0.035212 -0.074935 
-0.014455 -0.071643 
0.000000 0.000000 
0.000000 -0.069926 
0.000000 0.000000 
0.014455 -0.071643 
0.035212 -0.074935 
0.009216 -0.122093 
0.006646 -0.151881 
0.007106 -0.163153 
-0.002495 -0.148245 
0.001351 -0.160055 
0.000000 -0.120208 
-0.003533 -0.129073 
0.003220 -0.114783 
0.000841 -0.131338 
-0.002278 -0.134771 
0.000000 -0.128835 
-0.003220 -0.114783 
0.003533 -0.129073 
-0.001351 -0.160055 
0.002495 -0.148245 
-0.007106 -0.163153 
0.002278 -0.134771 
-0.000841 -0.131338 
-0.004343 -0.162957 
-0.002135 -0.152254 
-0.015774 -0.123807 
-0.008069 -0.140418 
-0.013806 -0.137079 
-0.003470 -0.136791 
-0.004027 -0.118995 
-0.031130 -0.099063 
-0.022246 -0.101748 
-0.017976 -0.038630 
-0.024414 -0.073549 
-0.030422 -0.045861 
-0.013592 -0.100314 
-0.006265 -0.098318 
0.000000 0.000000 
-0.009811 -0.037299 
0.000000 -0.036828 
-0.004353 -0.036943 
0.000000 0.000000 
-0.006585 -0.070389 
0.000000 -0.097467 
0.000000 0.000000 
0.004353 -0.036943 
0.017976 -0.038630 
0.009811 -0.037299 
0.000000 0.000000 
0.006585 -0.070389 
0.006265 -0.098318 
0.030422 -0.045861 
0.024414 -0.073549 
0.015774 -0.123807 
0.022246 -0.101748 
0.031130 -0.099063 
0.013592 -0.100314 
0.004027 -0.118995 
0.013806 -0.137079 
0.008069 -0.140418 
0.002135 -0.152254 
0.004343 -0.162957 
0.003470 -0.136791 
0.006556 -0.165640 
0.003644 -0.162399 
0.004443 -0.164808 
0.000528 -0.149146 
0.002443 -0.157641 
0.008018 -0.158445 
-0.001057 -0.152850 
-0.000511 -0.155571 
-0.002761 -0.147020 
0.000000 -0.111215 
-0.001188 -0.114192 
0.001061 -0.103735 
-0.001962 -0.128259 
-0.002058 -0.122525 
0.000000 -0.126531 
0.006962 -0.132510 
-0.001866 -0.122806 
-0.001469 -0.135979 
0.001137 -0.124890 
0.000281 -0.129495 
0.000000 -0.124410 
-0.002341 -0.139698 
-0.000801 -0.134188 
-0.000386 -0.137769 
0.000000 -0.130756 
-0.000584 -0.131665 
-0.001379 -0.131287 
-0.003771 -0.138553 
-0.003346 -0.133069 
-0.003659 -0.139889 
-0.001061 -0.103735 
0.001188 -0.114192 
0.001469 -0.135979 
0.001866 -0.122806 
-0.006962 -0.132510 
0.002058 -0.122525 
0.001962 -0.128259 
-0.004443 -0.164808 
-0.003644 -0.162399 
-0.006556 -0.165640 
0.002761 -0.147020 
0.000511 -0.155571 
0.001057 -0.152850 
-0.008018 -0.158445 
-0.002443 -0.157641 
-0.000528 -0.149146 
-0.000281 -0.129495 
-0.001137 -0.124890 
0.001379 -0.131287 
0.000584 -0.131665 
0.000386 -0.137769 
0.000801 -0.134188 
0.002341 -0.139698 
0.003771 -0.138553 
0.003659 -0.139889 
0.003346 -0.133069 
-0.005170 -0.166103 
-0.002898 -0.162254 
-0.004297 -0.153183 
-0.002803 -0.158296 
-0.004767 -0.158045 
-0.000893 -0.156626 
-0.000138 -0.149375 
-0.019352 -0.122772 
-0.015044 -0.131867 
-0.018325 -0.128660 
-0.008971 -0.132024 
-0.011895 -0.132754 
-0.012356 -0.123375 
-0.009780 -0.144834 
-0.010835 -0.139947 
-0.007112 -0.147050 
-0.002492 -0.126254 
-0.001926 -0.117963 
-0.000748 -0.141613 
-0.001877 -0.133965 
-0.006435 -0.120486 
-0.004216 -0.128211 
-0.006383 -0.130314 
-0.004676 -0.146886 
-0.005574 -0.139158 
-0.002502 -0.144888 
-0.027348 -0.109718 
-0.023383 -0.112597 
-0.029122 -0.088628 
-0.026773 -0.101254 
-0.033912 -0.087503 
-0.019341 -0.113499 
-0.015399 -0.113139 
-0.014321 -0.020742 
-0.023846 -0.040948 
-0.021480 -0.027889 
-0.019173 -0.072524 
-0.022608 -0.056918 
-0.017360 -0.055759 
-0.034379 -0.061180 
-0.028517 -0.058788 
-0.029931 -0.074556 
-0.005329 -0.109645 
-0.002591 -0.108846 
-0.011705 -0.112093 
-0.008345 -0.110813 
-0.010459 -0.085901 
-0.009751 -0.099250 
-0.014603 -0.086798 
-0.024095 -0.088465 
-0.019177 -0.087724 
-0.017789 -0.101265 
0.000000 0.000000 
-0.010087 -0.019248 
-0.005346 -0.018832 
-0.007367 -0.018913 
0.000000 0.000000 
-0.013408 -0.037706 
-0.012898 -0.055039 
0.000000 -0.018791 
-0.001141 -0.018796 
0.000000 0.000000 
-0.002817 -0.054022 
-0.002111 -0.036861 
0.000000 -0.053948 
0.000000 0.000000 
-0.002356 -0.018803 
-0.003725 -0.018811 
-0.003058 -0.097691 
0.000000 -0.108567 
-0.010288 -0.070927 
-0.006719 -0.085167 
0.000000 -0.084514 
-0.003280 -0.084686 
-0.003209 -0.070049 
-0.006865 -0.037080 
-0.005796 -0.054225 
-0.009100 -0.054556 
0.000000 0.000000 
0.001141 -0.018796 
0.003725 -0.018811 
0.002356 -0.018803 
0.000000 0.000000 
0.002111 -0.036861 
0.002817 -0.054022 
0.014321 -0.020742 
0.010087 -0.019248 
0.000000 0.000000 
0.012898 -0.055039 
0.013408 -0.037706 
0.017360 -0.055759 
0.000000 0.000000 
0.007367 -0.018913 
0.005346 -0.018832 
0.003058 -0.097691 
0.002591 -0.108846 
0.003209 -0.070049 
0.003280 -0.084686 
0.010459 -0.085901 
0.006719 -0.085167 
0.010288 -0.070927 
0.006865 -0.037080 
0.009100 -0.054556 
0.005796 -0.054225 
0.021480 -0.027889 
0.023846 -0.040948 
0.029931 -0.074556 
0.028517 -0.058788 
0.034379 -0.061180 
0.022608 -0.056918 
0.019173 -0.072524 
0.019352 -0.122772 
0.023383 -0.112597 
0.027348 -0.109718 
0.015399 -0.113139 
0.019341 -0.113499 
0.012356 -0.123375 
0.033912 -0.087503 
0.026773 -0.101254 
0.029122 -0.088628 
0.005329 -0.109645 
0.001926 -0.117963 
0.014603 -0.086798 
0.009751 -0.099250 
0.006435 -0.120486 
0.008345 -0.110813 
0.011705 -0.112093 
0.024095 -0.088465 
0.017789 -0.101265 
0.019177 -0.087724 
0.018325 -0.128660 
0.015044 -0.131867 
0.007112 -0.147050 
0.010835 -0.139947 
0.009780 -0.144834 
0.011895 -0.132754 
0.008971 -0.132024 
0.002898 -0.162254 
0.005170 -0.166103 
0.000138 -0.149375 
0.000893 -0.156626 
0.004767 -0.158045 
0.002803 -0.158296 
0.004297 -0.153183 
0.002492 -0.126254 
0.006383 -0.130314 
0.004216 -0.128211 
0.001877 -0.133965 
0.000748 -0.141613 
0.004676 -0.146886 
0.002502 -0.144888 
0.005574 -0.139158 
0.006488 -0.166436 
0.005521 -0.165454 
0.005654 -0.166211 
0.005325 -0.163021 
0.005420 -0.164445 
0.006766 -0.164598 
0.002941 -0.162785 
0.004072 -0.163821 
0.002282 -0.161385 
0.003779 -0.149604 
0.004529 -0.154589 
0.008466 -0.154799 
-0.000382 -0.153164 
0.001581 -0.153961 
-0.001442 -0.148701 
0.007540 -0.161157 
0.004961 -0.158289 
0.005194 -0.161026 
-0.001519 -0.148857 
-0.001971 -0.150167 
-0.002262 -0.146114 
0.000460 -0.158143 
-0.001042 -0.154291 
-0.000060 -0.156675 
-0.002879 -0.147709 
-0.002008 -0.151290 
-0.001524 -0.152276 
0.003117 -0.160392 
0.000625 -0.156699 
0.001516 -0.159398 
0.000000 -0.105841 
-0.000160 -0.106689 
0.000464 -0.100908 
-0.000923 -0.116698 
-0.000627 -0.111973 
0.000000 -0.116024 
0.001943 -0.108387 
-0.000233 -0.109184 
-0.000140 -0.113285 
-0.000890 -0.129010 
-0.001018 -0.126973 
0.000000 -0.128633 
-0.002908 -0.125321 
-0.002096 -0.125730 
-0.002958 -0.128144 
0.000000 -0.123720 
-0.001086 -0.124234 
-0.001065 -0.120801 
0.008474 -0.142931 
0.001475 -0.134329 
0.002649 -0.142871 
0.000169 -0.118922 
0.000701 -0.126000 
0.004935 -0.122836 
-0.003239 -0.131509 
-0.001857 -0.128970 
-0.003022 -0.126216 
-0.001780 -0.118664 
-0.002504 -0.121871 
-0.001620 -0.117829 
0.000755 -0.121401 
0.000553 -0.124529 
0.000000 -0.121308 
0.000511 -0.130288 
0.000714 -0.127490 
0.001150 -0.128170 
0.000000 -0.126926 
0.000341 -0.127068 
0.000122 -0.129002 
-0.002015 -0.142355 
-0.001420 -0.138961 
-0.001031 -0.141232 
-0.001572 -0.134764 
-0.001599 -0.136764 
-0.002428 -0.137120 
0.000289 -0.134502 
-0.000683 -0.135893 
0.000010 -0.133045 
0.000000 -0.130732 
-0.000526 -0.131004 
-0.000721 -0.130350 
-0.000098 -0.130314 
-0.000317 -0.130987 
0.000000 -0.130118 
-0.001915 -0.132789 
-0.000997 -0.131801 
-0.001360 -0.133078 
-0.000129 -0.131819 
-0.000758 -0.132752 
-0.000154 -0.130891 
-0.000596 -0.143053 
-0.003845 -0.133584 
-0.003047 -0.137400 
-0.002404 -0.143339 
-0.003293 -0.143579 
-0.001710 -0.130110 
-0.002885 -0.134206 
-0.002395 -0.131874 
-0.002761 -0.130328 
-0.003594 -0.131358 
-0.002808 -0.143109 
-0.003549 -0.143669 
-0.003348 -0.143532 
-0.003107 -0.140000 
-0.003132 -0.136970 
-0.003931 -0.135192 
-0.003658 -0.136324 
-0.003918 -0.139396 
-0.000464 -0.100908 
0.000160 -0.106689 
0.000140 -0.113285 
0.000233 -0.109184 
-0.001943 -0.108387 
0.000627 -0.111973 
0.000923 -0.116698 
-0.002649 -0.142871 
-0.001475 -0.134329 
-0.008474 -0.142931 
0.003022 -0.126216 
0.001857 -0.128970 
0.003239 -0.131509 
-0.004935 -0.122836 
-0.000701 -0.126000 
-0.000169 -0.118922 
0.001018 -0.126973 
0.000890 -0.129010 
0.001065 -0.120801 
0.001086 -0.124234 
0.002958 -0.128144 
0.002096 -0.125730 
0.002908 -0.125321 
0.001620 -0.117829 
0.002504 -0.121871 
0.001780 -0.118664 
-0.005654 -0.166211 
-0.005521 -0.165454 
-0.006488 -0.166436 
-0.002282 -0.161385 
-0.004072 -0.163821 
-0.002941 -0.162785 
-0.006766 -0.164598 
-0.005420 -0.164445 
-0.005325 -0.163021 
0.002262 -0.146114 
0.001971 -0.150167 
0.001519 -0.148857 
0.001524 -0.152276 
0.002008 -0.151290 
0.002879 -0.147709 
0.000060 -0.156675 
0.001042 -0.154291 
-0.000460 -0.158143 
-0.008466 -0.154799 
-0.004529 -0.154589 
-0.003779 -0.149604 
-0.005194 -0.161026 
-0.004961 -0.158289 
-0.007540 -0.161157 
0.001442 -0.148701 
-0.001581 -0.153961 
0.000382 -0.153164 
-0.001516 -0.159398 
-0.000625 -0.156699 
-0.003117 -0.160392 
-0.000553 -0.124529 
-0.000755 -0.121401 
-0.000122 -0.129002 
-0.000341 -0.127068 
-0.001150 -0.128170 
-0.000714 -0.127490 
-0.000511 -0.130288 
0.000721 -0.130350 
0.000526 -0.131004 
0.001360 -0.133078 
0.000997 -0.131801 
0.001915 -0.132789 
0.000317 -0.130987 
0.000098 -0.130314 
0.001031 -0.141232 
0.001420 -0.138961 
0.002015 -0.142355 
-0.000010 -0.133045 
0.000683 -0.135893 
-0.000289 -0.134502 
0.002428 -0.137120 
0.001599 -0.136764 
0.001572 -0.134764 
0.000154 -0.130891 
0.000758 -0.132752 
0.000129 -0.131819 
0.000596 -0.143053 
0.003293 -0.143579 
0.002404 -0.143339 
0.003047 -0.137400 
0.003845 -0.133584 
0.002808 -0.143109 
0.003132 -0.136970 
0.003107 -0.140000 
0.003348 -0.143532 
0.003549 -0.143669 
0.001710 -0.130110 
0.003594 -0.131358 
0.002761 -0.130328 
0.002395 -0.131874 
0.002885 -0.134206 
0.003918 -0.139396 
0.003658 -0.136324 
0.003931 -0.135192 
-0.005829 -0.166888 
-0.004796 -0.165512 
-0.003606 -0.162739 
-0.004071 -0.164343 
-0.004636 -0.164783 
-0.003523 -0.163727 
-0.002158 -0.161394 
-0.005435 -0.152832 
-0.004413 -0.155751 
-0.005531 -0.155091 
-0.002338 -0.155473 
-0.003362 -0.155873 
-0.003201 -0.152979 
-0.004373 -0.160688 
-0.003756 -0.158400 
-0.003488 -0.160742 
0.000638 -0.151223 
0.000735 -0.147315 
-0.000891 -0.158460 
0.000086 -0.155009 
-0.001107 -0.151040 
-0.000324 -0.153137 
-0.001324 -0.154559 
-0.002647 -0.160432 
-0.001856 -0.157714 
-0.001791 -0.159693 
-0.021159 -0.121481 
-0.018923 -0.126151 
-0.020649 -0.124189 
-0.015512 -0.128184 
-0.017208 -0.127450 
-0.017552 -0.123515 
-0.016028 -0.132954 
-0.016672 -0.130600 
-0.014448 -0.134835 
-0.009211 -0.127238 
-0.010685 -0.127894 
-0.010744 -0.122806 
-0.009953 -0.136741 
-0.010398 -0.132550 
-0.008565 -0.136427 
-0.014037 -0.123733 
-0.012236 -0.128322 
-0.013850 -0.128446 
-0.008077 -0.148453 
-0.008413 -0.146279 
-0.006784 -0.149669 
-0.012296 -0.138859 
-0.010267 -0.142674 
-0.011707 -0.141040 
-0.007561 -0.143967 
-0.008887 -0.143619 
-0.009424 -0.140439 
-0.013447 -0.132555 
-0.011402 -0.136637 
-0.012904 -0.136031 
-0.001542 -0.121709 
-0.000951 -0.117698 
-0.001673 -0.129072 
-0.001776 -0.125475 
-0.002945 -0.118404 
-0.002378 -0.122216 
-0.003281 -0.122892 
0.000445 -0.143450 
-0.000093 -0.139712 
-0.002604 -0.135393 
-0.001317 -0.137772 
-0.002067 -0.139401 
-0.000723 -0.136107 
-0.001291 -0.132587 
-0.007778 -0.121301 
-0.006538 -0.125522 
-0.007826 -0.126425 
-0.004269 -0.123700 
-0.005353 -0.124595 
-0.005187 -0.119702 
-0.004920 -0.133766 
-0.005244 -0.129276 
-0.003923 -0.132565 
-0.002302 -0.130147 
-0.003050 -0.131334 
-0.003301 -0.127184 
-0.005564 -0.150239 
-0.006294 -0.143796 
-0.005867 -0.147229 
-0.004395 -0.150232 
-0.003271 -0.149701 
-0.007629 -0.131254 
-0.004465 -0.138073 
-0.006034 -0.134862 
-0.007254 -0.135775 
-0.006782 -0.139966 
-0.000311 -0.145497 
-0.002201 -0.148697 
-0.001205 -0.147274 
-0.001559 -0.143370 
-0.002959 -0.140903 
-0.005093 -0.143179 
-0.003975 -0.142190 
-0.003549 -0.146084 
-0.025207 -0.114727 
-0.023329 -0.116587 
-0.027288 -0.106070 
-0.025386 -0.111454 
-0.029338 -0.104499 
-0.021425 -0.117824 
-0.019515 -0.118540 
-0.032330 -0.081758 
-0.031569 -0.088287 
-0.034782 -0.081353 
-0.024515 -0.101663 
-0.028106 -0.095110 
-0.025725 -0.095345 
-0.032673 -0.093402 
-0.030434 -0.094502 
-0.028987 -0.100424 
-0.013939 -0.118459 
-0.012190 -0.117951 
-0.017618 -0.118828 
-0.015753 -0.118775 
-0.018777 -0.107712 
-0.017348 -0.113437 
-0.020900 -0.107809 
-0.025181 -0.107078 
-0.023043 -0.107626 
-0.021361 -0.113247 
-0.009593 -0.011487 
-0.017580 -0.023071 
-0.013808 -0.016664 
-0.020742 -0.039530 
-0.019807 -0.031126 
-0.016868 -0.029755 
-0.026759 -0.037344 
-0.023228 -0.033547 
-0.027171 -0.043058 
-0.016743 -0.072063 
-0.018517 -0.064326 
-0.016108 -0.063884 
-0.023819 -0.065450 
-0.021092 -0.064844 
-0.021737 -0.073023 
-0.018049 -0.047320 
-0.019884 -0.056265 
-0.020688 -0.047964 
-0.035112 -0.068222 
-0.032408 -0.067647 
-0.032639 -0.074890 
-0.029843 -0.051818 
-0.031524 -0.059980 
-0.032875 -0.053755 
-0.027165 -0.074078 
-0.029556 -0.066904 
-0.026662 -0.066146 
-0.023579 -0.048880 
-0.025508 -0.057753 
-0.026674 -0.050155 
-0.002281 -0.113670 
-0.001134 -0.113437 
-0.004716 -0.114575 
-0.003469 -0.114056 
-0.004324 -0.103815 
-0.003932 -0.109187 
-0.005850 -0.104220 
-0.010519 -0.117316 
-0.008935 -0.116612 
-0.010887 -0.105845 
-0.009981 -0.111458 
-0.012741 -0.106425 
-0.007441 -0.115890 
-0.006037 -0.115198 
-0.012533 -0.078992 
-0.012477 -0.086336 
-0.014691 -0.079416 
-0.007967 -0.098755 
-0.010204 -0.092790 
-0.008339 -0.092347 
-0.014225 -0.093769 
-0.012165 -0.093271 
-0.011625 -0.099779 
-0.006796 -0.110197 
-0.009123 -0.105262 
-0.007446 -0.104711 
-0.029756 -0.081786 
-0.024480 -0.081217 
-0.027120 -0.081572 
-0.026615 -0.088654 
-0.023329 -0.095304 
-0.016972 -0.079865 
-0.016383 -0.094257 
-0.016838 -0.087268 
-0.019375 -0.080329 
-0.021885 -0.080788 
-0.013514 -0.112671 
-0.019995 -0.101592 
-0.016697 -0.107409 
-0.014680 -0.106961 
-0.015650 -0.100823 
-0.021604 -0.088136 
-0.018632 -0.094703 
-0.020955 -0.095069 
0.000000 0.000000 
-0.007419 -0.010152 
-0.005162 -0.009537 
-0.006109 -0.009710 
0.000000 0.000000 
-0.011920 -0.019717 
-0.014426 -0.029007 
-0.002742 -0.009447 
-0.003227 -0.009441 
0.000000 0.000000 
-0.009086 -0.028219 
-0.006294 -0.018859 
-0.007727 -0.028130 
0.000000 0.000000 
-0.003776 -0.009445 
-0.004409 -0.009469 
-0.015036 -0.055360 
-0.013864 -0.063506 
-0.015546 -0.038066 
-0.015662 -0.046865 
-0.011544 -0.046287 
-0.013503 -0.046535 
-0.011511 -0.037466 
-0.008609 -0.019023 
-0.010619 -0.028359 
-0.012375 -0.028594 
0.000000 -0.009482 
-0.000290 -0.009483 
0.000000 0.000000 
-0.000820 -0.027918 
-0.000566 -0.018793 
0.000000 -0.027912 
0.000000 0.000000 
-0.000584 -0.009482 
-0.000889 -0.009480 
-0.001517 -0.062122 
-0.001399 -0.053969 
0.000000 -0.062095 
-0.003207 -0.036896 
-0.002501 -0.045568 
-0.003799 -0.045626 
0.000000 -0.045515 
-0.001241 -0.045531 
-0.001047 -0.036838 
0.000000 0.000000 
-0.001911 -0.009463 
-0.002307 -0.009455 
-0.001208 -0.009476 
-0.001547 -0.009470 
0.000000 0.000000 
-0.004368 -0.027993 
-0.003016 -0.018806 
-0.003414 -0.027966 
-0.001654 -0.027929 
-0.002514 -0.027945 
-0.001734 -0.018799 
-0.001287 -0.108637 
0.000000 -0.113367 
-0.004634 -0.097959 
-0.002852 -0.103512 
0.000000 -0.103261 
-0.001417 -0.103326 
-0.001520 -0.097525 
-0.012306 -0.071264 
-0.010494 -0.078605 
-0.006731 -0.077967 
-0.008565 -0.078260 
-0.008387 -0.070635 
-0.008544 -0.085507 
-0.006559 -0.091959 
0.000000 -0.077409 
-0.001631 -0.077449 
-0.001594 -0.069959 
-0.001592 -0.091261 
-0.001630 -0.084560 
0.000000 -0.091209 
-0.004866 -0.070193 
-0.003284 -0.077557 
-0.004977 -0.077731 
-0.004853 -0.091643 
-0.004970 -0.084891 
-0.003203 -0.091407 
-0.004497 -0.018819 
-0.005566 -0.037004 
-0.005392 -0.028026 
-0.006505 -0.028070 
-0.008272 -0.037175 
-0.003054 -0.062193 
-0.006275 -0.062464 
-0.004633 -0.062307 
-0.004276 -0.054108 
-0.005152 -0.045707 
-0.011775 -0.063180 
-0.009755 -0.046092 
-0.010926 -0.054776 
-0.009826 -0.062899 
-0.007999 -0.062661 
-0.006582 -0.045809 
-0.007397 -0.054374 
-0.008109 -0.045936 
0.000000 0.000000 
0.000290 -0.009483 
0.000889 -0.009480 
0.000584 -0.009482 
0.000000 0.000000 
0.000566 -0.018793 
0.000820 -0.027918 
0.002307 -0.009455 
0.001911 -0.009463 
0.000000 0.000000 
0.003414 -0.027966 
0.003016 -0.018806 
0.004368 -0.027993 
0.000000 0.000000 
0.001547 -0.009470 
0.001208 -0.009476 
0.001399 -0.053969 
0.001517 -0.062122 
0.001047 -0.036838 
0.001241 -0.045531 
0.003799 -0.045626 
0.002501 -0.045568 
0.003207 -0.036896 
0.001734 -0.018799 
0.002514 -0.027945 
0.001654 -0.027929 
0.009593 -0.011487 
0.007419 -0.010152 
0.000000 0.000000 
0.014426 -0.029007 
0.011920 -0.019717 
0.016868 -0.029755 
0.000000 0.000000 
0.006109 -0.009710 
0.005162 -0.009537 
0.013864 -0.063506 
0.015036 -0.055360 
0.016108 -0.063884 
0.011511 -0.037466 
0.013503 -0.046535 
0.011544 -0.046287 
0.018049 -0.047320 
0.015662 -0.046865 
0.015546 -0.038066 
0.000000 0.000000 
0.003227 -0.009441 
0.002742 -0.009447 
0.004409 -0.009469 
0.003776 -0.009445 
0.000000 0.000000 
0.007727 -0.028130 
0.006294 -0.018859 
0.009086 -0.028219 
0.012375 -0.028594 
0.010619 -0.028359 
0.008609 -0.019023 
0.001287 -0.108637 
0.001134 -0.113437 
0.001520 -0.097525 
0.001417 -0.103326 
0.004324 -0.103815 
0.002852 -0.103512 
0.004634 -0.097959 
0.001594 -0.069959 
0.001631 -0.077449 
0.004977 -0.077731 
0.003284 -0.077557 
0.004866 -0.070193 
0.001630 -0.084560 
0.001592 -0.091261 
0.012533 -0.078992 
0.010494 -0.078605 
0.012306 -0.071264 
0.006559 -0.091959 
0.008544 -0.085507 
0.008339 -0.092347 
0.008387 -0.070635 
0.008565 -0.078260 
0.006731 -0.077967 
0.003203 -0.091407 
0.004970 -0.084891 
0.004853 -0.091643 
0.004497 -0.018819 
0.008272 -0.037175 
0.006505 -0.028070 
0.005392 -0.028026 
0.005566 -0.037004 
0.011775 -0.063180 
0.007999 -0.062661 
0.009826 -0.062899 
0.010926 -0.054776 
0.009755 -0.046092 
0.003054 -0.062193 
0.005152 -0.045707 
0.004276 -0.054108 
0.004633 -0.062307 
0.006275 -0.062464 
0.008109 -0.045936 
0.007397 -0.054374 
0.006582 -0.045809 
0.013808 -0.016664 
0.017580 -0.023071 
0.027171 -0.043058 
0.023228 -0.033547 
0.026759 -0.037344 
0.019807 -0.031126 
0.020742 -0.039530 
0.032639 -0.074890 
0.032408 -0.067647 
0.035112 -0.068222 
0.026662 -0.066146 
0.029556 -0.066904 
0.027165 -0.074078 
0.032875 -0.053755 
0.031524 -0.059980 
0.029843 -0.051818 
0.018517 -0.064326 
0.016743 -0.072063 
0.020688 -0.047964 
0.019884 -0.056265 
0.021737 -0.073023 
0.021092 -0.064844 
0.023819 -0.065450 
0.026674 -0.050155 
0.025508 -0.057753 
0.023579 -0.048880 
0.021159 -0.121481 
0.023329 -0.116587 
0.025207 -0.114727 
0.019515 -0.118540 
0.021425 -0.117824 
0.017552 -0.123515 
0.029338 -0.104499 
0.025386 -0.111454 
0.027288 -0.106070 
0.012190 -0.117951 
0.013939 -0.118459 
0.010744 -0.122806 
0.020900 -0.107809 
0.017348 -0.113437 
0.018777 -0.107712 
0.014037 -0.123733 
0.015753 -0.118775 
0.017618 -0.118828 
0.034782 -0.081353 
0.031569 -0.088287 
0.032330 -0.081758 
0.028987 -0.100424 
0.030434 -0.094502 
0.032673 -0.093402 
0.025725 -0.095345 
0.028106 -0.095110 
0.024515 -0.101663 
0.021361 -0.113247 
0.023043 -0.107626 
0.025181 -0.107078 
0.002281 -0.113670 
0.000951 -0.117698 
0.005850 -0.104220 
0.003932 -0.109187 
0.002945 -0.118404 
0.003469 -0.114056 
0.004716 -0.114575 
0.014691 -0.079416 
0.012477 -0.086336 
0.011625 -0.099779 
0.012165 -0.093271 
0.014225 -0.093769 
0.010204 -0.092790 
0.007967 -0.098755 
0.007778 -0.121301 
0.008935 -0.116612 
0.010519 -0.117316 
0.006037 -0.115198 
0.007441 -0.115890 
0.005187 -0.119702 