# vtk DataFile Version 2.0
Unstructured Grid Example
ASCII
DATASET UNSTRUCTURED_GRID

POINTS 81 float
0.007855 -0.165974 0.000000 
0.992145 -0.165974 0.000000 
1.000000 1.000000 0.000000 
0.000000 1.000000 0.000000 
0.500000 -0.097519 0.000000 
0.977090 0.381718 0.000000 
0.500000 1.000000 0.000000 
0.022910 0.381718 0.000000 
0.500000 0.383100 0.000000 
0.255726 -0.147185 0.000000 
0.500000 0.123743 0.000000 
0.249374 0.106156 0.000000 
0.744274 -0.147185 0.000000 
0.750626 0.106156 0.000000 
0.992636 0.099531 0.000000 
0.740699 0.379753 0.000000 
0.966875 0.675310 0.000000 
0.736609 0.679706 0.000000 
0.750000 1.000000 0.000000 
0.500000 0.681742 0.000000 
0.250000 1.000000 0.000000 
0.263391 0.679706 0.000000 
0.033125 0.675310 0.000000 
0.259301 0.379753 0.000000 
0.007364 0.099531 0.000000 
0.132030 -0.160579 0.000000 
0.248499 -0.022224 0.000000 
0.126423 -0.032901 0.000000 
0.500000 0.008906 0.000000 
0.372032 -0.001686 0.000000 
0.377960 -0.112400 0.000000 
0.375570 0.246125 0.000000 
0.372890 0.117884 0.000000 
0.500000 0.248729 0.000000 
0.622040 -0.112400 0.000000 
0.627968 -0.001686 0.000000 
0.873577 -0.032901 0.000000 
0.751501 -0.022224 0.000000 
0.867970 -0.160579 0.000000 
0.627110 0.117884 0.000000 
0.624430 0.246125 0.000000 
0.995740 -0.035887 0.000000 
0.872092 0.099212 0.000000 
0.858954 0.377840 0.000000 
0.866341 0.236023 0.000000 
0.985426 0.238869 0.000000 
0.746265 0.239758 0.000000 
0.621220 0.383140 0.000000 
0.970002 0.526130 0.000000 
0.853473 0.524658 0.000000 
0.859346 0.837505 0.000000 
0.852249 0.677621 0.000000 
0.972228 0.830978 0.000000 
0.736867 0.526404 0.000000 
0.618801 0.528436 0.000000 
0.875000 1.000000 0.000000 
0.741142 0.838388 0.000000 
0.500000 0.839166 0.000000 
0.620979 0.838742 0.000000 
0.625000 1.000000 0.000000 
0.618799 0.680961 0.000000 
0.500000 0.529218 0.000000 
0.375000 1.000000 0.000000 
0.379021 0.838742 0.000000 
0.140654 0.837505 0.000000 
0.258858 0.838388 0.000000 
0.125000 1.000000 0.000000 
0.381201 0.680961 0.000000 
0.381199 0.528436 0.000000 
0.027772 0.830978 0.000000 
0.147751 0.677621 0.000000 
0.141046 0.377840 0.000000 
0.146527 0.524658 0.000000 
0.029998 0.526130 0.000000 
0.263133 0.526404 0.000000 
0.378780 0.383140 0.000000 
0.014574 0.238869 0.000000 
0.133659 0.236023 0.000000 
0.127908 0.099212 0.000000 
0.004260 -0.035887 0.000000 
0.253735 0.239758 0.000000 

CELLS 128 512
3  0 25 27 
3  9 26 25 
3  11 27 26 
3  25 26 27 
3  4 28 30 
3  10 29 28 
3  9 30 29 
3  28 29 30 
3  8 31 33 
3  11 32 31 
3  10 33 32 
3  31 32 33 
3  9 29 26 
3  10 32 29 
3  11 26 32 
3  29 32 26 
3  4 34 28 
3  12 35 34 
3  10 28 35 
3  34 35 28 
3  1 36 38 
3  13 37 36 
3  12 38 37 
3  36 37 38 
3  8 33 40 
3  10 39 33 
3  13 40 39 
3  33 39 40 
3  12 37 35 
3  13 39 37 
3  10 35 39 
3  37 39 35 
3  1 41 36 
3  14 42 41 
3  13 36 42 
3  41 42 36 
3  5 43 45 
3  15 44 43 
3  14 45 44 
3  43 44 45 
3  8 40 47 
3  13 46 40 
3  15 47 46 
3  40 46 47 
3  14 44 42 
3  15 46 44 
3  13 42 46 
3  44 46 42 
3  5 48 43 
3  16 49 48 
3  15 43 49 
3  48 49 43 
3  2 50 52 
3  17 51 50 
3  16 52 51 
3  50 51 52 
3  8 47 54 
3  15 53 47 
3  17 54 53 
3  47 53 54 
3  16 51 49 
3  17 53 51 
3  15 49 53 
3  51 53 49 
3  2 55 50 
3  18 56 55 
3  17 50 56 
3  55 56 50 
3  6 57 59 
3  19 58 57 
3  18 59 58 
3  57 58 59 
3  8 54 61 
3  17 60 54 
3  19 61 60 
3  54 60 61 
3  18 58 56 
3  19 60 58 
3  17 56 60 
3  58 60 56 
3  6 62 57 
3  20 63 62 
3  19 57 63 
3  62 63 57 
3  3 64 66 
3  21 65 64 
3  20 66 65 
3  64 65 66 
3  8 61 68 
3  19 67 61 
3  21 68 67 
3  61 67 68 
3  20 65 63 
3  21 67 65 
3  19 63 67 
3  65 67 63 
3  3 69 64 
3  22 70 69 
3  21 64 70 
3  69 70 64 
3  7 71 73 
3  23 72 71 
3  22 73 72 
3  71 72 73 
3  8 68 75 
3  21 74 68 
3  23 75 74 
3  68 74 75 
3  22 72 70 
3  23 74 72 
3  21 70 74 
3  72 74 70 
3  7 76 71 
3  24 77 76 
3  23 71 77 
3  76 77 71 
3  0 27 79 
3  11 78 27 
3  24 79 78 
3  27 78 79 
3  8 75 31 
3  23 80 75 
3  11 31 80 
3  75 80 31 
3  24 78 77 
3  11 80 78 
3  23 77 80 
3  78 80 77 

CELL_TYPES 128
5
5
5
5
5
5
5
5
5
5
5
5
5
5
5
5
5
5
5
5
5
5
5
5
5
5
5
5
5
5
5
5
5
5
5
5
5
5
5
5
5
5
5
5
5
5
5
5
5
5
5
5
5
5
5
5
5
5
5
5
5
5
5
5
5
5
5
5
5
5
5
5
5
5
5
5
5
5
5
5
5
5
5
5
5
5
5
5
5
5
5
5
5
5
5
5
5
5
5
5
5
5
5
5
5
5
5
5
5
5
5
5
5
5
5
5
5
5
5
5
5
5
5
5
5
5
5
5

POINT_DATA 81

SCALARS u_h float 2
LOOKUP_TABLE default
0.007855 -0.165974 
-0.007855 -0.165974 
0.000000 0.000000 
0.000000 0.000000 
0.000000 -0.097519 
-0.022910 -0.118282 
0.000000 0.000000 
0.022910 -0.118282 
0.000000 -0.116900 
0.005726 -0.147185 
0.000000 -0.126257 
-0.000626 -0.143844 
-0.005726 -0.147185 
0.000626 -0.143844 
-0.007364 -0.150469 
-0.009301 -0.120247 
-0.033125 -0.074690 
-0.013391 -0.070294 
0.000000 0.000000 
0.000000 -0.068258 
0.000000 0.000000 
0.013391 -0.070294 
0.033125 -0.074690 
0.009301 -0.120247 
0.007364 -0.150469 
0.007030 -0.160579 
-0.001501 -0.147224 
0.001423 -0.157901 
0.000000 -0.116094 
-0.002968 -0.126686 
0.002960 -0.112400 
0.000570 -0.128875 
-0.002110 -0.132116 
0.000000 -0.126271 
-0.002960 -0.112400 
0.002968 -0.126686 
-0.001423 -0.157901 
0.001501 -0.147224 
-0.007030 -0.160579 
0.002110 -0.132116 
-0.000570 -0.128875 
-0.004260 -0.160887 
-0.002908 -0.150788 
-0.016046 -0.122160 
-0.008659 -0.138977 
-0.014574 -0.136131 
-0.003735 -0.135242 
-0.003780 -0.116860 
-0.029998 -0.098870 
-0.021527 -0.100342 
-0.015654 -0.037495 
-0.022751 -0.072379 
-0.027772 -0.044022 
-0.013133 -0.098596 
-0.006199 -0.096564 
0.000000 0.000000 
-0.008858 -0.036612 
0.000000 -0.035834 
-0.004021 -0.036258 
0.000000 0.000000 
-0.006201 -0.069039 
0.000000 -0.095782 
0.000000 0.000000 
0.004021 -0.036258 
0.015654 -0.037495 
0.008858 -0.036612 
0.000000 0.000000 
0.006201 -0.069039 
0.006199 -0.096564 
0.027772 -0.044022 
0.022751 -0.072379 
0.016046 -0.122160 
0.021527 -0.100342 
0.029998 -0.098870 
0.013133 -0.098596 
0.003780 -0.116860 
0.014574 -0.136131 
0.008659 -0.138977 
0.002908 -0.150788 
0.004260 -0.160887 
0.003735 -0.135242 

CELL_DATA 128

SCALARS epsilon float 4
LOOKUP_TABLE default
-0.003746 0.024004 0.000000 -0.001442
-0.002560 0.011720 0.000000 0.024384
-0.024236 0.029708 0.000000 0.045137
-0.018829 0.028667 0.000000 0.018842
-0.023958 -0.149049 0.000000 0.069872
0.023461 -0.080525 0.000000 0.046092
-0.005799 -0.055732 0.000000 0.133141
0.029235 -0.112031 0.000000 0.024994
-0.004572 0.072358 0.000000 0.009691
-0.013697 0.027908 0.000000 0.056561
0.016734 0.000956 0.000000 0.023431
-0.004789 0.025364 0.000000 0.020916
-0.000553 0.022819 0.000000 0.052931
0.016428 -0.043550 0.000000 0.027862
-0.012559 0.030306 0.000000 0.049210
-0.012969 -0.030433 0.000000 0.089335
-0.023958 -0.149049 0.000000 -0.069872
-0.005799 -0.055732 0.000000 -0.133141
0.023461 -0.080525 0.000000 -0.046092
0.029235 -0.112031 0.000000 -0.024994
-0.003746 0.024004 0.000000 0.001442
-0.024236 0.029708 0.000000 -0.045137
-0.002560 0.011720 0.000000 -0.024384
-0.018829 0.028667 0.000000 -0.018842
-0.004572 0.072358 0.000000 -0.009691
0.016734 0.000956 0.000000 -0.023431
-0.013697 0.027908 0.000000 -0.056561
-0.004789 0.025364 0.000000 -0.020916
-0.000553 0.022819 0.000000 -0.052931
-0.012559 0.030306 0.000000 -0.049210
0.016428 -0.043550 0.000000 -0.027862
-0.012969 -0.030433 0.000000 -0.089335
-0.021883 0.040816 0.000000 0.003219
-0.035937 0.079956 0.000000 -0.011621
-0.029254 0.056109 0.000000 -0.032356
-0.023166 0.055279 0.000000 -0.017359
-0.052604 0.135050 0.000000 -0.021184
-0.054733 0.124884 0.000000 -0.037519
-0.045732 0.109643 0.000000 -0.019760
-0.045705 0.127061 0.000000 -0.020563
-0.030401 0.091540 0.000000 -0.012996
-0.026783 0.065962 0.000000 -0.041638
-0.045397 0.112051 0.000000 -0.035099
-0.026574 0.091456 0.000000 -0.036293
-0.035219 0.090176 0.000000 -0.022510
-0.040545 0.112008 0.000000 -0.036232
-0.029978 0.066038 0.000000 -0.043846
-0.040515 0.089169 0.000000 -0.037399
-0.053461 0.145442 0.000000 -0.016065
-0.069530 0.175537 0.000000 -0.008160
-0.055233 0.159153 0.000000 -0.029158
-0.068776 0.160167 0.000000 -0.018010
-0.075988 0.304064 0.000000 0.095088
-0.075722 0.242849 0.000000 0.022738
-0.085020 0.217209 0.000000 0.015081
-0.097850 0.245444 0.000000 0.009724
-0.030548 0.149452 0.000000 -0.009645
-0.045504 0.158105 0.000000 -0.027210
-0.057033 0.201725 0.000000 -0.007658
-0.057136 0.149275 0.000000 -0.017010
-0.086531 0.199492 0.000000 -0.012650
-0.077695 0.201733 0.000000 -0.007834
-0.069393 0.158237 0.000000 -0.021996
-0.069479 0.199471 0.000000 -0.010750
0.004640 0.257368 0.000000 0.059281
0.001502 0.252202 0.000000 0.033614
-0.055171 0.235011 0.000000 0.015535
-0.049941 0.258066 0.000000 0.059964
0.000000 0.247623 0.000000 -0.000000
-0.032683 0.227182 0.000000 -0.001346
0.000311 0.250124 0.000000 0.015270
-0.032264 0.250211 0.000000 0.014463
-0.050818 0.154986 0.000000 -0.002669
-0.059168 0.196784 0.000000 -0.004107
-0.050835 0.196751 0.000000 -0.002552
-0.050818 0.196760 0.000000 -0.002565
-0.037659 0.252358 0.000000 0.033873
-0.050639 0.229444 0.000000 0.006313
-0.058406 0.235116 0.000000 0.014430
-0.039301 0.229385 0.000000 0.007562
0.000000 0.247623 0.000000 -0.000000
0.000311 0.250124 0.000000 -0.015270
-0.032683 0.227182 0.000000 0.001346
-0.032264 0.250211 0.000000 -0.014463
0.004640 0.257368 0.000000 -0.059281
-0.055171 0.235011 0.000000 -0.015535
0.001502 0.252202 0.000000 -0.033614
-0.049941 0.258066 0.000000 -0.059964
-0.050818 0.154986 0.000000 0.002669
-0.050835 0.196751 0.000000 0.002552
-0.059168 0.196784 0.000000 0.004107
-0.050818 0.196760 0.000000 0.002565
-0.037659 0.252358 0.000000 -0.033873
-0.058406 0.235116 0.000000 -0.014430
-0.050639 0.229444 0.000000 -0.006313
-0.039301 0.229385 0.000000 -0.007562
-0.075988 0.304064 0.000000 -0.095088
-0.085020 0.217209 0.000000 -0.015081
-0.075722 0.242849 0.000000 -0.022738
-0.097850 0.245444 0.000000 -0.009724
-0.053461 0.145442 0.000000 0.016065
-0.055233 0.159153 0.000000 0.029158
-0.069530 0.175537 0.000000 0.008160
-0.068776 0.160167 0.000000 0.018010
-0.030548 0.149452 0.000000 0.009645
-0.057033 0.201725 0.000000 0.007658
-0.045504 0.158105 0.000000 0.027210
-0.057136 0.149275 0.000000 0.017010
-0.086531 0.199492 0.000000 0.012650
-0.069393 0.158237 0.000000 0.021996
-0.077695 0.201733 0.000000 0.007834
-0.069479 0.199471 0.000000 0.010750
-0.052604 0.135050 0.000000 0.021184
-0.045732 0.109643 0.000000 0.019760
-0.054733 0.124884 0.000000 0.037519
-0.045705 0.127061 0.000000 0.020563
-0.021883 0.040816 0.000000 -0.003219
-0.029254 0.056109 0.000000 0.032356
-0.035937 0.079956 0.000000 0.011621
-0.023166 0.055279 0.000000 0.017359
-0.030401 0.091540 0.000000 0.012996
-0.045397 0.112051 0.000000 0.035099
-0.026783 0.065962 0.000000 0.041638
-0.026574 0.091456 0.000000 0.036293
-0.035219 0.090176 0.000000 0.022510
-0.029978 0.066038 0.000000 0.043846
-0.040545 0.112008 0.000000 0.036232
-0.040515 0.089169 0.000000 0.037399

SCALARS sigma float 4
LOOKUP_TABLE default
0.103540 0.555732 0.181119 -0.013731
-0.053263 0.113432 0.016530 0.406463
-0.390965 0.434085 0.011846 0.755942
-0.281638 0.452379 0.046907 0.332096
-2.385628 -4.850286 -1.987888 1.174383
-0.272736 -2.104486 -0.653083 0.738782
-1.313103 -3.031998 -1.193709 2.152838
-0.514493 -2.999991 -0.965517 0.335961
0.576387 1.795231 0.651544 0.159665
-0.136761 0.475862 0.093160 0.934202
0.437085 0.163157 0.164902 0.378000
0.115881 0.605735 0.198246 0.339582
0.033072 0.220775 0.069738 0.875458
-0.028030 -1.045317 -0.294876 0.453154
-0.077331 0.551760 0.130338 0.815190
-0.811960 -1.362680 -0.597429 1.486540
-2.385628 -4.850286 -1.987888 -1.174383
-1.313103 -3.031998 -1.193709 -2.152838
-0.272736 -2.104486 -0.653083 -0.738782
-0.514493 -2.999991 -0.965517 -0.335961
0.103540 0.555732 0.181119 0.013731
-0.390965 0.434085 0.011846 -0.755942
-0.053263 0.113432 0.016530 -0.406463
-0.281638 0.452379 0.046907 -0.332096
0.576387 1.795231 0.651544 -0.159665
0.437085 0.163157 0.164902 -0.378000
-0.136761 0.475862 0.093160 -0.934202
0.115881 0.605735 0.198246 -0.339582
0.033072 0.220775 0.069738 -0.875458
-0.077331 0.551760 0.130338 -0.815190
-0.028030 -1.045317 -0.294876 -0.453154
-0.811960 -1.362680 -0.597429 -1.486540
-0.197447 0.824049 0.172143 0.039248
-0.204261 1.663527 0.400897 -0.174835
-0.253485 1.107578 0.234641 -0.538790
-0.084852 1.179335 0.300682 -0.284098
-0.214154 2.782081 0.705474 -0.270259
-0.350921 2.531678 0.599109 -0.568845
-0.237010 2.262013 0.556319 -0.269307
-0.080061 2.675853 0.713130 -0.275296
0.053821 2.003355 0.565158 -0.195679
-0.104174 1.380378 0.350605 -0.676724
-0.189997 2.327215 0.587148 -0.549238
0.146694 2.013088 0.593347 -0.588772
-0.108397 1.913470 0.495899 -0.337544
-0.056642 2.375508 0.637051 -0.567834
-0.192681 1.343449 0.316145 -0.715419
-0.267234 1.823956 0.427671 -0.592640
-0.130677 3.021608 0.794212 -0.192599
-0.288387 3.560905 0.899044 -0.097622
-0.041727 3.332871 0.904160 -0.436762
-0.415547 3.211976 0.768250 -0.240096
0.115243 6.090415 1.704851 1.130560
0.074056 4.975819 1.387328 0.277632
-0.393764 4.318154 1.078129 0.174711
-0.557298 4.767790 1.156728 0.032300
0.573757 3.376124 1.085132 -0.138450
0.229751 3.411176 1.000254 -0.422581
0.294605 4.285555 1.258286 -0.129660
-0.164055 3.090971 0.804098 -0.265971
-0.567256 3.915730 0.919910 -0.206638
-0.291856 4.063385 1.036135 -0.135494
-0.438500 3.164792 0.748981 -0.334463
-0.076812 4.102270 1.105895 -0.170688
2.307460 6.091695 2.307460 0.789940
2.265419 5.980705 2.265419 0.449445
0.612467 5.035496 1.551638 0.199404
0.815281 5.538987 1.745678 0.787654
2.228024 5.881983 2.228024 -0.000000
1.182254 5.105168 1.727314 -0.022826
2.248465 5.935946 2.248465 0.204457
1.374113 5.606285 1.917692 0.188953
0.067725 3.293707 0.923470 -0.046175
0.193407 4.153894 1.194313 -0.071707
0.426544 4.242039 1.282578 -0.044158
0.427079 4.242407 1.282826 -0.044347
1.208347 5.583119 1.865787 0.448808
0.702844 4.965768 1.557311 0.076526
0.522330 5.002971 1.517940 0.179671
1.016301 5.083603 1.675798 0.098753
2.228024 5.881983 2.228024 -0.000000
2.248465 5.935946 2.248465 -0.204457
1.182254 5.105168 1.727314 0.022826
1.374113 5.606285 1.917692 -0.188953
2.307460 6.091695 2.307460 -0.789940
0.612467 5.035496 1.551638 -0.199404
2.265419 5.980705 2.265419 -0.449445
0.815281 5.538987 1.745678 -0.787654
0.067725 3.293707 0.923470 0.046175
0.426544 4.242039 1.282578 0.044158
0.193407 4.153894 1.194313 0.071707
0.427079 4.242407 1.282826 0.044347
1.208347 5.583119 1.865787 -0.448808
0.522330 5.002971 1.517940 -0.179671
0.702844 4.965768 1.557311 -0.076526
1.016301 5.083603 1.675798 -0.098753
0.115243 6.090415 1.704851 -1.130560
-0.393764 4.318154 1.078129 -0.174711
0.074056 4.975819 1.387328 -0.277632
-0.557298 4.767790 1.156728 -0.032300
-0.130677 3.021608 0.794212 0.192599
-0.041727 3.332871 0.904160 0.436762
-0.288387 3.560905 0.899044 0.097622
-0.415547 3.211976 0.768250 0.240096
0.573757 3.376124 1.085132 0.138450
0.294605 4.285555 1.258286 0.129660
0.229751 3.411176 1.000254 0.422581
-0.164055 3.090971 0.804098 0.265971
-0.567256 3.915730 0.919910 0.206638
-0.438500 3.164792 0.748981 0.334463
-0.291856 4.063385 1.036135 0.135494
-0.076812 4.102270 1.105895 0.170688
-0.214154 2.782081 0.705474 0.270259
-0.237010 2.262013 0.556319 0.269307
-0.350921 2.531678 0.599109 0.568845
-0.080061 2.675853 0.713130 0.275296
-0.197447 0.824049 0.172143 -0.039248
-0.253485 1.107578 0.234641 0.538790
-0.204261 1.663527 0.400897 0.174835
-0.084852 1.179335 0.300682 0.284098
0.053821 2.003355 0.565158 0.195679
-0.189997 2.327215 0.587148 0.549238
-0.104174 1.380378 0.350605 0.676724
0.146694 2.013088 0.593347 0.588772
-0.108397 1.913470 0.495899 0.337544
-0.192681 1.343449 0.316145 0.715419
-0.056642 2.375508 0.637051 0.567834
-0.267234 1.823956 0.427671 0.592640

