# vtk DataFile Version 2.0
Unstructured Grid Example
ASCII
DATASET UNSTRUCTURED_GRID

POINTS 1089 float
0.006828 -0.167308 0.000000 
0.993172 -0.167308 0.000000 
1.000000 1.000000 0.000000 
0.000000 1.000000 0.000000 
0.500000 -0.099843 0.000000 
0.977059 0.380598 0.000000 
0.500000 1.000000 0.000000 
0.022941 0.380598 0.000000 
0.500000 0.382346 0.000000 
0.258350 -0.149508 0.000000 
0.500000 0.120217 0.000000 
0.248591 0.105157 0.000000 
0.741650 -0.149508 0.000000 
0.751409 0.105157 0.000000 
0.993314 0.098232 0.000000 
0.740793 0.378054 0.000000 
0.964966 0.675056 0.000000 
0.735644 0.678468 0.000000 
0.750000 1.000000 0.000000 
0.500000 0.680199 0.000000 
0.250000 1.000000 0.000000 
0.264356 0.678468 0.000000 
0.035034 0.675056 0.000000 
0.259207 0.378054 0.000000 
0.006686 0.098232 0.000000 
0.132236 -0.162960 0.000000 
0.247620 -0.023170 0.000000 
0.126336 -0.034866 0.000000 
0.500000 0.005086 0.000000 
0.371501 -0.003928 0.000000 
0.378337 -0.114642 0.000000 
0.375820 0.243834 0.000000 
0.372728 0.115409 0.000000 
0.500000 0.246335 0.000000 
0.621663 -0.114642 0.000000 
0.628499 -0.003928 0.000000 
0.873664 -0.034866 0.000000 
0.752380 -0.023170 0.000000 
0.867764 -0.162960 0.000000 
0.627272 0.115409 0.000000 
0.624180 0.243834 0.000000 
0.995688 -0.037826 0.000000 
0.872814 0.097854 0.000000 
0.859217 0.376314 0.000000 
0.866896 0.234689 0.000000 
0.986146 0.237985 0.000000 
0.746521 0.238339 0.000000 
0.620995 0.381162 0.000000 
0.968952 0.525949 0.000000 
0.852814 0.523369 0.000000 
0.857260 0.836468 0.000000 
0.850735 0.676564 0.000000 
0.969906 0.829264 0.000000 
0.736454 0.524823 0.000000 
0.618750 0.526813 0.000000 
0.875000 1.000000 0.000000 
0.740292 0.837758 0.000000 
0.500000 0.838242 0.000000 
0.620686 0.838104 0.000000 
0.625000 1.000000 0.000000 
0.618457 0.679710 0.000000 
0.500000 0.527662 0.000000 
0.375000 1.000000 0.000000 
0.379314 0.838104 0.000000 
0.142740 0.836468 0.000000 
0.259708 0.837758 0.000000 
0.125000 1.000000 0.000000 
0.381543 0.679710 0.000000 
0.381250 0.526813 0.000000 
0.030094 0.829264 0.000000 
0.149265 0.676564 0.000000 
0.140783 0.376314 0.000000 
0.147186 0.523369 0.000000 
0.031048 0.525949 0.000000 
0.263546 0.524823 0.000000 
0.379005 0.381162 0.000000 
0.013854 0.237985 0.000000 
0.133104 0.234689 0.000000 
0.127186 0.097854 0.000000 
0.004312 -0.037826 0.000000 
0.253479 0.238339 0.000000 
0.069281 -0.165550 0.000000 
0.128612 -0.099667 0.000000 
0.066943 -0.102170 0.000000 
0.250568 -0.086483 0.000000 
0.189894 -0.094855 0.000000 
0.195491 -0.158146 0.000000 
0.186514 0.034762 0.000000 
0.187032 -0.030396 0.000000 
0.247329 0.040556 0.000000 
0.500000 -0.048437 0.000000 
0.436339 -0.051499 0.000000 
0.438729 -0.103598 0.000000 
0.435539 0.059462 0.000000 
0.435450 0.002687 0.000000 
0.500000 0.061245 0.000000 
0.319072 -0.132545 0.000000 
0.373162 -0.060193 0.000000 
0.311111 -0.073475 0.000000 
0.438610 0.312758 0.000000 
0.437761 0.245681 0.000000 
0.500000 0.313198 0.000000 
0.310190 0.110434 0.000000 
0.374190 0.178491 0.000000 
0.312122 0.174877 0.000000 
0.500000 0.181956 0.000000 
0.436903 0.181036 0.000000 
0.436115 0.118930 0.000000 
0.308817 -0.013483 0.000000 
0.371677 0.054601 0.000000 
0.308901 0.047720 0.000000 
0.561271 -0.103598 0.000000 
0.563661 -0.051499 0.000000 
0.688889 -0.073475 0.000000 
0.626838 -0.060193 0.000000 
0.680928 -0.132545 0.000000 
0.564550 0.002687 0.000000 
0.564461 0.059462 0.000000 
0.933057 -0.102170 0.000000 
0.871388 -0.099667 0.000000 
0.930719 -0.165550 0.000000 
0.752671 0.040556 0.000000 
0.812968 -0.030396 0.000000 
0.813486 0.034762 0.000000 
0.804509 -0.158146 0.000000 
0.810106 -0.094855 0.000000 
0.749432 -0.086483 0.000000 
0.562239 0.245681 0.000000 
0.561390 0.312758 0.000000 
0.563885 0.118930 0.000000 
0.563097 0.181036 0.000000 
0.687878 0.174877 0.000000 
0.625810 0.178491 0.000000 
0.689810 0.110434 0.000000 
0.691183 -0.013483 0.000000 
0.691099 0.047720 0.000000 
0.628323 0.054601 0.000000 
0.994804 -0.103579 0.000000 
0.934639 -0.037110 0.000000 
0.933162 0.096931 0.000000 
0.934693 0.029335 0.000000 
0.995231 0.029599 0.000000 
0.874078 0.031009 0.000000 
0.812298 0.100720 0.000000 
0.918142 0.377336 0.000000 
0.922437 0.305737 0.000000 
0.981649 0.308917 0.000000 
0.803521 0.305601 0.000000 
0.863090 0.304861 0.000000 
0.800142 0.376759 0.000000 
0.990164 0.167746 0.000000 
0.926625 0.235153 0.000000 
0.930337 0.165553 0.000000 
0.622534 0.311409 0.000000 
0.560591 0.382167 0.000000 
0.749222 0.171001 0.000000 
0.685632 0.241189 0.000000 
0.681083 0.379671 0.000000 
0.683301 0.309446 0.000000 
0.743622 0.307327 0.000000 
0.870274 0.165717 0.000000 
0.806901 0.235956 0.000000 
0.809953 0.167714 0.000000 
0.972692 0.452832 0.000000 
0.914142 0.449998 0.000000 
0.908489 0.598953 0.000000 
0.910793 0.523830 0.000000 
0.966214 0.599991 0.000000 
0.855682 0.449121 0.000000 
0.797125 0.449496 0.000000 
0.923526 0.916897 0.000000 
0.913959 0.834182 0.000000 
0.978881 0.910119 0.000000 
0.793454 0.677592 0.000000 
0.852591 0.755694 0.000000 
0.795298 0.756842 0.000000 
0.965864 0.751336 0.000000 
0.909210 0.753821 0.000000 
0.907731 0.675533 0.000000 
0.619680 0.452999 0.000000 
0.559902 0.453776 0.000000 
0.738320 0.450552 0.000000 
0.679175 0.451836 0.000000 
0.677092 0.601721 0.000000 
0.677782 0.525887 0.000000 
0.735470 0.600828 0.000000 
0.851007 0.599149 0.000000 
0.793412 0.599901 0.000000 
0.794765 0.523867 0.000000 
0.937500 1.000000 0.000000 
0.865088 0.918299 0.000000 
0.744713 0.918690 0.000000 
0.805231 0.918615 0.000000 
0.812500 1.000000 0.000000 
0.799250 0.837366 0.000000 
0.737216 0.757549 0.000000 
0.500000 0.918744 0.000000 
0.561371 0.918728 0.000000 
0.562500 1.000000 0.000000 
0.559704 0.758558 0.000000 
0.560408 0.838192 0.000000 
0.500000 0.758654 0.000000 
0.687500 1.000000 0.000000 
0.622666 0.918718 0.000000 
0.683811 0.918709 0.000000 
0.559444 0.527432 0.000000 
0.500000 0.454026 0.000000 
0.677281 0.679176 0.000000 
0.618311 0.602451 0.000000 
0.500000 0.603122 0.000000 
0.559232 0.602932 0.000000 
0.559310 0.680055 0.000000 
0.680700 0.837969 0.000000 
0.619250 0.758350 0.000000 
0.678476 0.758023 0.000000 
0.437500 1.000000 0.000000 
0.438629 0.918728 0.000000 
0.316189 0.918709 0.000000 
0.377334 0.918718 0.000000 
0.312500 1.000000 0.000000 
0.439592 0.838192 0.000000 
0.440296 0.758558 0.000000 
0.076474 0.916897 0.000000 
0.134912 0.918299 0.000000 
0.062500 1.000000 0.000000 
0.262784 0.757549 0.000000 
0.200750 0.837366 0.000000 
0.204702 0.756842 0.000000 
0.187500 1.000000 0.000000 
0.194769 0.918615 0.000000 
0.255287 0.918690 0.000000 
0.440556 0.527432 0.000000 
0.440098 0.453776 0.000000 
0.440690 0.680055 0.000000 
0.440768 0.602932 0.000000 
0.322908 0.601721 0.000000 
0.381689 0.602451 0.000000 
0.322719 0.679176 0.000000 
0.319300 0.837969 0.000000 
0.321524 0.758023 0.000000 
0.380750 0.758350 0.000000 
0.021119 0.910119 0.000000 
0.086041 0.834182 0.000000 
0.092269 0.675533 0.000000 
0.090790 0.753821 0.000000 
0.034136 0.751336 0.000000 
0.147409 0.755694 0.000000 
0.206546 0.677592 0.000000 
0.081858 0.377336 0.000000 
0.085858 0.449998 0.000000 
0.027308 0.452832 0.000000 
0.202875 0.449496 0.000000 
0.144318 0.449121 0.000000 
0.199858 0.376759 0.000000 
0.033786 0.599991 0.000000 
0.089207 0.523830 0.000000 
0.091511 0.598953 0.000000 
0.380320 0.452999 0.000000 
0.439409 0.382167 0.000000 
0.264530 0.600828 0.000000 
0.322218 0.525887 0.000000 
0.318917 0.379671 0.000000 
0.320825 0.451836 0.000000 
0.261680 0.450552 0.000000 
0.148993 0.599149 0.000000 
0.205235 0.523867 0.000000 
0.206588 0.599901 0.000000 
0.018351 0.308917 0.000000 
0.077563 0.305737 0.000000 
0.069663 0.165553 0.000000 
0.073375 0.235153 0.000000 
0.009836 0.167746 0.000000 
0.136910 0.304861 0.000000 
0.196479 0.305601 0.000000 
0.065361 -0.037110 0.000000 
0.005196 -0.103579 0.000000 
0.187702 0.100720 0.000000 
0.125922 0.031009 0.000000 
0.004769 0.029599 0.000000 
0.065307 0.029335 0.000000 
0.066838 0.096931 0.000000 
0.377466 0.311409 0.000000 
0.256378 0.307327 0.000000 
0.316699 0.309446 0.000000 
0.314368 0.241189 0.000000 
0.250778 0.171001 0.000000 
0.129726 0.165717 0.000000 
0.190047 0.167714 0.000000 
0.193099 0.235956 0.000000 
0.038005 -0.166421 0.000000 
0.068108 -0.134083 0.000000 
0.037012 -0.134913 0.000000 
0.130339 -0.131545 0.000000 
0.099225 -0.133019 0.000000 
0.100697 -0.164453 0.000000 
0.096654 -0.068851 0.000000 
0.097808 -0.101133 0.000000 
0.127248 -0.067418 0.000000 
0.253654 -0.118078 0.000000 
0.223145 -0.122999 0.000000 
0.227045 -0.154448 0.000000 
0.218419 -0.059229 0.000000 
0.220308 -0.091199 0.000000 
0.248660 -0.054851 0.000000 
0.163856 -0.160913 0.000000 
0.192368 -0.126719 0.000000 
0.161407 -0.129501 0.000000 
0.217308 0.069981 0.000000 
0.216865 0.037424 0.000000 
0.247812 0.072721 0.000000 
0.156719 -0.032950 0.000000 
0.186521 0.002096 0.000000 
0.156224 -0.000269 0.000000 
0.247228 0.008611 0.000000 
0.216833 0.005063 0.000000 
0.217310 -0.027143 0.000000 
0.159319 -0.097624 0.000000 
0.188130 -0.062721 0.000000 
0.157744 -0.065414 0.000000 
0.500000 -0.074360 0.000000 
0.468631 -0.075247 0.000000 
0.469329 -0.100784 0.000000 
0.467834 -0.022706 0.000000 
0.468139 -0.049247 0.000000 
0.500000 -0.021981 0.000000 
0.408366 -0.108241 0.000000 
0.437329 -0.077760 0.000000 
0.406170 -0.081881 0.000000 
0.467856 0.089982 0.000000 
0.467729 0.060775 0.000000 
0.500000 0.090379 0.000000 
0.403360 -0.000143 0.000000 
0.435408 0.030738 0.000000 
0.403307 0.028294 0.000000 
0.500000 0.032818 0.000000 
0.467664 0.032267 0.000000 
0.467687 0.004449 0.000000 
0.289120 -0.142770 0.000000 
0.313969 -0.103120 0.000000 
0.283862 -0.111593 0.000000 
0.375202 -0.087558 0.000000 
0.344444 -0.094717 0.000000 
0.348644 -0.122739 0.000000 
0.340567 -0.037671 0.000000 
0.341931 -0.066414 0.000000 
0.372010 -0.032339 0.000000 
0.435735 -0.024710 0.000000 
0.403767 -0.027954 0.000000 
0.404660 -0.055171 0.000000 
0.469482 0.347454 0.000000 
[...]
POINT_DATA 1089

SCALARS u_h float 2
LOOKUP_TABLE default
0.006828 -0.167308 
-0.006828 -0.167308 
0.000000 0.000000 
0.000000 0.000000 
-0.000000 -0.099843 
-0.022941 -0.119402 
0.000000 0.000000 
0.022941 -0.119402 
0.000000 -0.117654 
0.008350 -0.149508 
-0.000000 -0.129783 
-0.001409 -0.144843 
-0.008350 -0.149508 
0.001409 -0.144843 
-0.006686 -0.151768 
-0.009207 -0.121946 
-0.035034 -0.074944 
-0.014356 -0.071532 
0.000000 0.000000 
0.000000 -0.069801 
0.000000 0.000000 
0.014356 -0.071532 
0.035034 -0.074944 
0.009207 -0.121946 
0.006686 -0.151768 
0.007236 -0.162960 
-0.002380 -0.148170 
0.001336 -0.159866 
-0.000000 -0.119914 
-0.003499 -0.128928 
0.003337 -0.114642 
0.000820 -0.131166 
-0.002272 -0.134591 
0.000000 -0.128665 
-0.003337 -0.114642 
0.003499 -0.128928 
-0.001336 -0.159866 
0.002380 -0.148170 
-0.007236 -0.162960 
0.002272 -0.134591 
-0.000820 -0.131166 
-0.004312 -0.162826 
-0.002186 -0.152146 
-0.015783 -0.123686 
-0.008104 -0.140311 
-0.013854 -0.137015 
-0.003479 -0.136661 
-0.004005 -0.118838 
-0.031048 -0.099051 
-0.022186 -0.101631 
-0.017740 -0.038532 
-0.024265 -0.073436 
-0.030094 -0.045736 
-0.013546 -0.100177 
-0.006250 -0.098187 
0.000000 0.000000 
-0.009708 -0.037242 
0.000000 -0.036758 
-0.004314 -0.036896 
0.000000 0.000000 
-0.006543 -0.070290 
0.000000 -0.097338 
0.000000 0.000000 
0.004314 -0.036896 
0.017740 -0.038532 
0.009708 -0.037242 
0.000000 0.000000 
0.006543 -0.070290 
0.006250 -0.098187 
0.030094 -0.045736 
0.024265 -0.073436 
0.015783 -0.123686 
0.022186 -0.101631 
0.031048 -0.099051 
0.013546 -0.100177 
0.004005 -0.118838 
0.013854 -0.137015 
0.008104 -0.140311 
0.002186 -0.152146 
0.004312 -0.162826 
0.003479 -0.136661 
0.006781 -0.165550 
0.003612 -0.162167 
0.004443 -0.164670 
0.000568 -0.148983 
0.002394 -0.157355 
0.007991 -0.158146 
-0.000986 -0.152738 
-0.000468 -0.155396 
-0.002671 -0.146944 
-0.000000 -0.110937 
-0.001161 -0.113999 
0.001229 -0.103598 
-0.001961 -0.128038 
-0.002050 -0.122313 
-0.000000 -0.126255 
0.006572 -0.132545 
-0.001838 -0.122693 
-0.001389 -0.135975 
0.001110 -0.124742 
0.000261 -0.129319 
0.000000 -0.124302 
-0.002310 -0.139566 
-0.000810 -0.134009 
-0.000378 -0.137623 
0.000000 -0.130544 
-0.000597 -0.131464 
-0.001385 -0.131070 
-0.003683 -0.138483 
-0.003323 -0.132899 
-0.003599 -0.139780 
-0.001229 -0.103598 
0.001161 -0.113999 
0.001389 -0.135975 
0.001838 -0.122693 
-0.006572 -0.132545 
0.002050 -0.122313 
0.001961 -0.128038 
-0.004443 -0.164670 
-0.003612 -0.162167 
-0.006781 -0.165550 
0.002671 -0.146944 
0.000468 -0.155396 
0.000986 -0.152738 
-0.007991 -0.158146 
-0.002394 -0.157355 
-0.000568 -0.148983 
-0.000261 -0.129319 
-0.001110 -0.124742 
0.001385 -0.131070 
0.000597 -0.131464 
0.000378 -0.137623 
0.000810 -0.134009 
0.002310 -0.139566 
0.003683 -0.138483 
0.003599 -0.139780 
0.003323 -0.132899 
-0.005196 -0.166079 
-0.002861 -0.162110 
-0.004338 -0.153069 
-0.002807 -0.158165 
-0.004769 -0.157901 
-0.000922 -0.156491 
-0.000202 -0.149280 
-0.019358 -0.122664 
-0.015063 -0.131763 
-0.018351 -0.128583 
-0.008979 -0.131899 
-0.011910 -0.132639 
-0.012358 -0.123241 
-0.009836 -0.144754 
-0.010875 -0.139847 
-0.007163 -0.146947 
-0.002466 -0.126091 
-0.001909 -0.117833 
-0.000778 -0.141499 
-0.001868 -0.133811 
-0.006417 -0.120329 
-0.004199 -0.128054 
-0.006378 -0.130173 
-0.004726 -0.146783 
-0.005599 -0.139044 
-0.002547 -0.144786 
-0.027308 -0.109668 
-0.023358 -0.112502 
-0.029011 -0.088547 
-0.026707 -0.101170 
-0.033786 -0.087509 
-0.019318 -0.113379 
-0.015375 -0.113004 
-0.013974 -0.020603 
-0.023541 -0.040818 
-0.021119 -0.027381 
-0.019046 -0.072408 
-0.022409 -0.056806 
-0.017202 -0.055658 
-0.034136 -0.061164 
-0.028290 -0.058679 
-0.029769 -0.074467 
-0.005320 -0.109501 
-0.002598 -0.108724 
-0.011680 -0.111948 
-0.008325 -0.110664 
-0.010408 -0.085779 
-0.009718 -0.099113 
-0.014530 -0.086672 
-0.023993 -0.088351 
-0.019088 -0.087599 
-0.017735 -0.101133 
0.000000 0.000000 
-0.009912 -0.019201 
-0.005287 -0.018810 
-0.007269 -0.018885 
0.000000 0.000000 
-0.013250 -0.037634 
-0.012784 -0.054951 
0.000000 -0.018756 
-0.001129 -0.018772 
0.000000 0.000000 
-0.002796 -0.053942 
-0.002092 -0.036808 
0.000000 -0.053846 
0.000000 0.000000 
-0.002334 -0.018782 
-0.003689 -0.018791 
-0.003056 -0.097568 
0.000000 -0.108474 
-0.010219 -0.070824 
-0.006689 -0.085049 
0.000000 -0.084378 
-0.003268 -0.084568 
-0.003190 -0.069945 
-0.006800 -0.037031 
-0.005750 -0.054150 
-0.009024 -0.054477 
0.000000 0.000000 
0.001129 -0.018772 
0.003689 -0.018791 
0.002334 -0.018782 
0.000000 0.000000 
0.002092 -0.036808 
0.002796 -0.053942 
0.013974 -0.020603 
0.009912 -0.019201 
0.000000 0.000000 
0.012784 -0.054951 
0.013250 -0.037634 
0.017202 -0.055658 
0.000000 0.000000 
0.007269 -0.018885 
0.005287 -0.018810 
0.003056 -0.097568 
0.002598 -0.108724 
0.003190 -0.069945 
0.003268 -0.084568 
0.010408 -0.085779 
0.006689 -0.085049 
0.010219 -0.070824 
0.006800 -0.037031 
0.009024 -0.054477 
0.005750 -0.054150 
0.021119 -0.027381 
0.023541 -0.040818 
0.029769 -0.074467 
0.028290 -0.058679 
0.034136 -0.061164 
0.022409 -0.056806 
0.019046 -0.072408 
0.019358 -0.122664 
0.023358 -0.112502 
0.027308 -0.109668 
0.015375 -0.113004 
0.019318 -0.113379 
0.012358 -0.123241 
0.033786 -0.087509 
0.026707 -0.101170 
0.029011 -0.088547 
0.005320 -0.109501 
0.001909 -0.117833 
0.014530 -0.086672 
0.009718 -0.099113 
0.006417 -0.120329 
0.008325 -0.110664 
0.011680 -0.111948 
0.023993 -0.088351 
0.017735 -0.101133 
0.019088 -0.087599 
0.018351 -0.128583 
0.015063 -0.131763 
0.007163 -0.146947 
0.010875 -0.139847 
0.009836 -0.144754 
0.011910 -0.132639 
0.008979 -0.131899 
0.002861 -0.162110 
0.005196 -0.166079 
0.000202 -0.149280 
0.000922 -0.156491 
0.004769 -0.157901 
0.002807 -0.158165 
0.004338 -0.153069 
0.002466 -0.126091 
0.006378 -0.130173 
0.004199 -0.128054 
0.001868 -0.133811 
0.000778 -0.141499 
0.004726 -0.146783 
0.002547 -0.144786 
0.005599 -0.139044 
0.006755 -0.166421 
0.005608 -0.165333 
0.005762 -0.166163 
0.005339 -0.162795 
0.005475 -0.164269 
0.006947 -0.164453 
0.002904 -0.162601 
0.004058 -0.163633 
0.002248 -0.161168 
0.003654 -0.149328 
0.004395 -0.154249 
0.008295 -0.154448 
-0.000331 -0.152979 
0.001558 -0.153699 
-0.001340 -0.148601 
0.007606 -0.160913 
0.004868 -0.157969 
0.005157 -0.160751 
-0.001442 -0.148769 
-0.001885 -0.150076 
-0.002188 -0.146029 
0.000469 -0.157950 
-0.000979 -0.154154 
-0.000026 -0.156519 
-0.002772 -0.147639 
-0.001917 -0.151187 
-0.001440 -0.152143 
0.003069 -0.160124 
0.000630 -0.156471 
0.001494 -0.159164 
-0.000000 -0.105610 
-0.000119 -0.106497 
0.000579 -0.100784 
-0.000916 -0.116456 
-0.000611 -0.111747 
-0.000000 -0.115731 
0.002116 -0.108241 
-0.000171 -0.109010 
-0.000080 -0.113131 
-0.000894 -0.128768 
-0.001021 -0.126725 
-0.000000 -0.128371 
-0.002890 -0.125143 
-0.002092 -0.125512 
-0.002943 -0.127956 
-0.000000 -0.123432 
-0.001086 -0.123983 
-0.001063 -0.120551 
0.007870 -0.142770 
0.001469 -0.134370 
0.002612 -0.142843 
0.000202 -0.118808 
0.000694 -0.125967 
0.004894 -0.122739 
-0.003183 -0.131421 
-0.001819 -0.128914 
-0.002990 -0.126089 
-0.001765 -0.118460 
-0.002483 -0.121704 
-0.001590 -0.117671 
0.000732 -0.121296 
0.000533 -0.124399 
0.000000 -0.121247 
0.000489 -0.130112 
0.000691 -0.127328 
0.001125 -0.128003 
0.000000 -0.126784 
0.000325 -0.126915 
0.000109 -0.128829 
-0.001969 -0.142245 
-0.001401 -0.138821 
-0.000999 -0.141112 
-0.001574 -0.134584 
-0.001591 -0.136602 
-0.002411 -0.136963 
0.000279 -0.134337 
-0.000685 -0.135729 
-0.000005 -0.132869 
-0.000000 -0.130502 
-0.000534 -0.130783 
-0.000727 -0.130118 
-0.000109 -0.130122 
-0.000325 -0.130779 
0.000000 -0.129925 
-0.001917 -0.132590 
-0.001007 -0.131591 
-0.001368 -0.132882 
-0.000147 -0.131635 
-0.000771 -0.132561 
-0.000171 -0.130702 
-0.000494 -0.143056 
-0.003789 -0.133473 
-0.002953 -0.137359 
-0.002278 -0.143326 
-0.003176 -0.143541 
-0.001712 -0.129890 
-0.002870 -0.134030 
-0.002391 -0.131675 
-0.002751 -0.130133 
-0.003564 -0.131199 
-0.002746 -0.143012 
-0.003449 -0.143607 
-0.003267 -0.143451 
-0.003062 -0.139877 
-0.003104 -0.136819 
-0.003881 -0.135063 
-0.003618 -0.136182 
-0.003843 -0.139303 
-0.000579 -0.100784 
0.000119 -0.106497 
0.000080 -0.113131 
0.000171 -0.109010 
-0.002116 -0.108241 
0.000611 -0.111747 
0.000916 -0.116456 
-0.002612 -0.142843 
-0.001469 -0.134370 
-0.007870 -0.142770 
0.002990 -0.126089 
0.001819 -0.128914 
0.003183 -0.131421 
-0.004894 -0.122739 
-0.000694 -0.125967 
-0.000202 -0.118808 
0.001021 -0.126725 
0.000894 -0.128768 
0.001063 -0.120551 
0.001086 -0.123983 
0.002943 -0.127956 
0.002092 -0.125512 
0.002890 -0.125143 
0.001590 -0.117671 
0.002483 -0.121704 
0.001765 -0.118460 
-0.005762 -0.166163 
-0.005608 -0.165333 
-0.006755 -0.166421 
-0.002248 -0.161168 
-0.004058 -0.163633 
-0.002904 -0.162601 
-0.006947 -0.164453 
-0.005475 -0.164269 
-0.005339 -0.162795 
0.002188 -0.146029 
0.001885 -0.150076 
0.001442 -0.148769 
0.001440 -0.152143 
0.001917 -0.151187 
0.002772 -0.147639 
0.000026 -0.156519 
0.000979 -0.154154 
-0.000469 -0.157950 
-0.008295 -0.154448 
-0.004395 -0.154249 
-0.003654 -0.149328 
-0.005157 -0.160751 
-0.004868 -0.157969 
-0.007606 -0.160913 
0.001340 -0.148601 
-0.001558 -0.153699 
0.000331 -0.152979 
-0.001494 -0.159164 
-0.000630 -0.156471 
-0.003069 -0.160124 
-0.000533 -0.124399 
-0.000732 -0.121296 
-0.000109 -0.128829 
-0.000325 -0.126915 
-0.001125 -0.128003 
-0.000691 -0.127328 
-0.000489 -0.130112 
0.000727 -0.130118 
0.000534 -0.130783 
0.001368 -0.132882 
0.001007 -0.131591 
0.001917 -0.132590 
0.000325 -0.130779 
0.000109 -0.130122 
0.000999 -0.141112 
0.001401 -0.138821 
0.001969 -0.142245 
0.000005 -0.132869 
0.000685 -0.135729 
-0.000279 -0.134337 
0.002411 -0.136963 
0.001591 -0.136602 
0.001574 -0.134584 
0.000171 -0.130702 
0.000771 -0.132561 
0.000147 -0.131635 
0.000494 -0.143056 
0.003176 -0.143541 
0.002278 -0.143326 
0.002953 -0.137359 
0.003789 -0.133473 
0.002746 -0.143012 
0.003104 -0.136819 
0.003062 -0.139877 
0.003267 -0.143451 
0.003449 -0.143607 
0.001712 -0.129890 
0.003564 -0.131199 
0.002751 -0.130133 
0.002391 -0.131675 
0.002870 -0.134030 
0.003843 -0.139303 
0.003618 -0.136182 
0.003881 -0.135063 
-0.005961 -0.166952 
-0.004805 -0.165432 
-0.003569 -0.162614 
-0.004038 -0.164236 
-0.004614 -0.164691 
-0.003487 -0.163582 
-0.002129 -0.161224 
-0.005475 -0.152718 
-0.004436 -0.155628 
-0.005554 -0.154961 
-0.002370 -0.155352 
-0.003388 -0.155751 
-0.003245 -0.152866 
-0.004354 -0.160542 
-0.003758 -0.158269 
-0.003467 -0.160611 
0.000569 -0.151124 
0.000671 -0.147224 
-0.000900 -0.158301 
0.000036 -0.154880 
-0.001165 -0.150938 
-0.000381 -0.153026 
-0.001367 -0.154441 
-0.002628 -0.160293 
-0.001870 -0.157579 
-0.001782 -0.159541 
-0.021157 -0.121375 
-0.018932 -0.126049 
-0.020661 -0.124091 
-0.015522 -0.128071 
-0.017217 -0.127343 
-0.017561 -0.123401 
-0.016067 -0.132887 
-0.016694 -0.130505 
-0.014481 -0.134745 
-0.009208 -0.127101 
-0.010688 -0.127764 
-0.010741 -0.122665 
-0.009977 -0.136630 
-0.010410 -0.132430 
-0.008586 -0.136312 
-0.014043 -0.123606 
-0.012243 -0.128198 
-0.013860 -0.128327 
-0.008128 -0.148358 
-0.008466 -0.146183 
-0.006835 -0.149565 
-0.012340 -0.138770 
-0.010318 -0.142583 
-0.011761 -0.140971 
-0.007607 -0.143863 
-0.008935 -0.143519 
-0.009462 -0.140333 
-0.013465 -0.132444 
-0.011430 -0.136529 
-0.012934 -0.135929 
-0.001517 -0.121571 
-0.000941 -0.117608 
-0.001649 -0.128905 
-0.001749 -0.125316 
-0.002924 -0.118256 
-0.002352 -0.122062 
-0.003256 -0.122732 
0.000402 -0.143345 
-0.000112 -0.139583 
-0.002604 -0.135252 
-0.001325 -0.137636 
-0.002085 -0.139279 
-0.000721 -0.135957 
-0.001276 -0.132423 
-0.007764 -0.121148 
-0.006524 -0.125371 
-0.007818 -0.126281 
-0.004247 -0.123540 
-0.005334 -0.124438 
-0.005165 -0.119544 
-0.004921 -0.133630 
-0.005232 -0.129127 
-0.003916 -0.132419 
-0.002282 -0.129984 
-0.003036 -0.131178 
-0.003279 -0.127022 
-0.005613 -0.150132 
-0.006337 -0.143692 
-0.005917 -0.147126 
-0.004445 -0.150125 
-0.003324 -0.149597 
-0.007630 -0.131121 
-0.004482 -0.137953 
-0.006043 -0.134735 
-0.007269 -0.135655 
-0.006811 -0.139856 
-0.000362 -0.145400 
-0.002256 -0.148598 
-0.001260 -0.147177 
-0.001598 -0.143265 
-0.002987 -0.140790 
-0.005133 -0.143074 
-0.004009 -0.142082 
-0.003597 -0.145983 
-0.025184 -0.114645 
-0.023317 -0.116496 
-0.027237 -0.106006 
-0.025356 -0.111378 
-0.029277 -0.104471 
-0.021417 -0.117723 
-0.019509 -0.118429 
-0.032189 -0.081710 
-0.031452 -0.088240 
-0.034632 -0.081363 
-0.024453 -0.101559 
-0.028018 -0.095029 
-0.025641 -0.095243 
-0.032570 -0.093400 
-0.030339 -0.094453 
-0.028915 -0.100370 
-0.013927 -0.118324 
-0.012176 -0.117810 
-0.017611 -0.118708 
-0.015745 -0.118647 
-0.018737 -0.107585 
-0.017324 -0.113309 
-0.020859 -0.107691 
-0.025136 -0.106989 
-0.023001 -0.107520 
-0.021337 -0.113138 
-0.009179 -0.011199 
-0.017184 -0.022852 
-0.013493 -0.015843 
-0.020467 -0.039417 
-0.019469 -0.030991 
-0.016582 -0.029650 
-0.026397 -0.037081 
-0.022858 -0.033357 
-0.026847 -0.042905 
-0.016629 -0.071949 
-0.018373 -0.064216 
-0.015982 -0.063779 
-0.023645 -0.065337 
-0.020932 -0.064731 
-0.021598 -0.072907 
-0.017856 -0.047222 
-0.019704 -0.056158 
-0.020466 -0.047856 
-0.034905 -0.068224 
-0.032210 -0.067579 
-0.032472 -0.074835 
-0.029566 -0.051701 
-0.031289 -0.059892 
-0.032592 -0.053703 
-0.027008 -0.073972 
-0.029363 -0.066806 
-0.026477 -0.066036 
-0.023332 -0.048766 
-0.025292 -0.057640 
-0.026408 -0.050034 
-0.002284 -0.113546 
-0.001146 -0.113344 
-0.004704 -0.114424 
-0.003463 -0.113915 
-0.004321 -0.103684 
-0.003931 -0.109052 
-0.005840 -0.104083 
-0.010503 -0.117170 
-0.008917 -0.116461 
-0.010857 -0.105701 
-0.009958 -0.111310 
-0.012706 -0.106283 
-0.007423 -0.115736 
-0.006021 -0.115044 
-0.012459 -0.078876 
-0.012415 -0.086212 
-0.014605 -0.079297 
-0.007943 -0.098620 
-0.010163 -0.092660 
-0.008307 -0.092219 
-0.014166 -0.093637 
-0.012114 -0.093140 
-0.011585 -0.099641 
-0.006781 -0.110049 
-0.009098 -0.105119 
-0.007428 -0.104569 
-0.029621 -0.081702 
-0.024355 -0.081104 
-0.026990 -0.081469 
-0.026509 -0.088552 
-0.023249 -0.095189 
-0.016875 -0.079744 
-0.016318 -0.094126 
-0.016757 -0.087142 
-0.019267 -0.080208 
-0.021768 -0.080669 
-0.013489 -0.112530 
-0.019938 -0.101467 
-0.016658 -0.107275 
-0.014643 -0.106823 
-0.015599 -0.100688 
-0.021508 -0.088015 
-0.018560 -0.094575 
-0.020879 -0.094946 
0.000000 0.000000 
-0.007219 -0.010078 
-0.005074 -0.009523 
-0.005984 -0.009683 
0.000000 0.000000 
-0.011675 -0.019642 
-0.014200 -0.028928 
-0.002712 -0.009438 
-0.003188 -0.009433 
0.000000 0.000000 
-0.008980 -0.028175 
-0.006218 -0.018834 
-0.007643 -0.028091 
0.000000 0.000000 
-0.003725 -0.009436 
-0.004342 -0.009458 
-0.014900 -0.055265 
-0.013756 -0.063405 
-0.015351 -0.037982 
-0.015498 -0.046776 
-0.011432 -0.046213 
-0.013367 -0.046455 
-0.011383 -0.037403 
-0.008480 -0.018989 
-0.010483 -0.028309 
-0.012200 -0.028533 
0.000000 -0.009466 
-0.000286 -0.009470 
0.000000 0.000000 
-0.000812 -0.027874 
-0.000560 -0.018765 
0.000000 -0.027859 
0.000000 0.000000 
-0.000578 -0.009471 
-0.000880 -0.009469 
-0.001506 -0.062021 
-0.001388 -0.053880 
0.000000 -0.061980 
-0.003179 -0.036847 
-0.002481 -0.045501 
-0.003767 -0.045564 
0.000000 -0.045429 
-0.001231 -0.045456 
-0.001038 -0.036779 
0.000000 0.000000 
-0.001892 -0.009454 
-0.002283 -0.009446 
-0.001196 -0.009466 
-0.001532 -0.009461 
0.000000 0.000000 
-0.004327 -0.027959 
-0.002988 -0.018786 
-0.003382 -0.027932 
-0.001638 -0.027890 
-0.002491 -0.027910 
-0.001718 -0.018777 
-0.001297 -0.108532 
0.000000 -0.113311 
-0.004626 -0.097832 
-0.002856 -0.103390 
0.000000 -0.103145 
-0.001422 -0.103209 
-0.001521 -0.097402 
-0.012222 -0.071157 
-0.010433 -0.078491 
-0.006694 -0.077858 
-0.008516 -0.078150 
-0.008331 -0.070534 
-0.008503 -0.085387 
-0.006537 -0.091835 
0.000000 -0.077277 
-0.001624 -0.077330 
-0.001585 -0.069848 
-0.001589 -0.091136 
-0.001625 -0.084435 
0.000000 -0.091074 
-0.004836 -0.070093 
-0.003267 -0.077445 
-0.004951 -0.077622 
-0.004839 -0.091520 
-0.004950 -0.084774 
-0.003196 -0.091285 
-0.004451 -0.018797 
-0.005515 -0.036956 
-0.005340 -0.027992 
-0.006438 -0.028034 
-0.008190 -0.037123 
-0.003033 -0.062100 
-0.006229 -0.062376 
-0.004600 -0.062218 
-0.004243 -0.054031 
-0.005109 -0.045645 
-0.011684 -0.063084 
-0.009664 -0.046024 
-0.010832 -0.054693 
-0.009752 -0.062807 
-0.007940 -0.062572 
-0.006525 -0.045747 
-0.007337 -0.054298 
-0.008036 -0.045872 
0.000000 0.000000 
0.000286 -0.009470 
0.000880 -0.009469 
0.000578 -0.009471 
0.000000 0.000000 
0.000560 -0.018765 
0.000812 -0.027874 
0.002283 -0.009446 
0.001892 -0.009454 
0.000000 0.000000 
0.003382 -0.027932 
0.002988 -0.018786 
0.004327 -0.027959 
0.000000 0.000000 
0.001532 -0.009461 
0.001196 -0.009466 
0.001388 -0.053880 
0.001506 -0.062021 
0.001038 -0.036779 
0.001231 -0.045456 
0.003767 -0.045564 
0.002481 -0.045501 
0.003179 -0.036847 
0.001718 -0.018777 
0.002491 -0.027910 
0.001638 -0.027890 
0.009179 -0.011199 
0.007219 -0.010078 
0.000000 0.000000 
0.014200 -0.028928 
0.011675 -0.019642 
0.016582 -0.029650 
0.000000 0.000000 
0.005984 -0.009683 
0.005074 -0.009523 
0.013756 -0.063405 
0.014900 -0.055265 
0.015982 -0.063779 
0.011383 -0.037403 
0.013367 -0.046455 
0.011432 -0.046213 
0.017856 -0.047222 
0.015498 -0.046776 
0.015351 -0.037982 
0.000000 0.000000 
0.003188 -0.009433 
0.002712 -0.009438 
0.004342 -0.009458 
0.003725 -0.009436 
0.000000 0.000000 
0.007643 -0.028091 
0.006218 -0.018834 
0.008980 -0.028175 
0.012200 -0.028533 
0.010483 -0.028309 
0.008480 -0.018989 
0.001297 -0.108532 
0.001146 -0.113344 
0.001521 -0.097402 
0.001422 -0.103209 
0.004321 -0.103684 
0.002856 -0.103390 
0.004626 -0.097832 
0.001585 -0.069848 
0.001624 -0.077330 
0.004951 -0.077622 
0.003267 -0.077445 
0.004836 -0.070093 
0.001625 -0.084435 
0.001589 -0.091136 
0.012459 -0.078876 
0.010433 -0.078491 
0.012222 -0.071157 
0.006537 -0.091835 
0.008503 -0.085387 
0.008307 -0.092219 
0.008331 -0.070534 
0.008516 -0.078150 
0.006694 -0.077858 
0.003196 -0.091285 
0.004950 -0.084774 
0.004839 -0.091520 
0.004451 -0.018797 
0.008190 -0.037123 
0.006438 -0.028034 
0.005340 -0.027992 
0.005515 -0.036956 
0.011684 -0.063084 
0.007940 -0.062572 
0.009752 -0.062807 
0.010832 -0.054693 
0.009664 -0.046024 
0.003033 -0.062100 
0.005109 -0.045645 
0.004243 -0.054031 
0.004600 -0.062218 
0.006229 -0.062376 
0.008036 -0.045872 
0.007337 -0.054298 
0.006525 -0.045747 
0.013493 -0.015843 
0.017184 -0.022852 
0.026847 -0.042905 
0.022858 -0.033357 
0.026397 -0.037081 
0.019469 -0.030991 
0.020467 -0.039417 
0.032472 -0.074835 
0.032210 -0.067579 
0.034905 -0.068224 
0.026477 -0.066036 
0.029363 -0.066806 
0.027008 -0.073972 
0.032592 -0.053703 
0.031289 -0.059892 
0.029566 -0.051701 
0.018373 -0.064216 
0.016629 -0.071949 
0.020466 -0.047856 
0.019704 -0.056158 
0.021598 -0.072907 
0.020932 -0.064731 
0.023645 -0.065337 
0.026408 -0.050034 
0.025292 -0.057640 
0.023332 -0.048766 
0.021157 -0.121375 
0.023317 -0.116496 
0.025184 -0.114645 
0.019509 -0.118429 
0.021417 -0.117723 
0.017561 -0.123401 
0.029277 -0.104471 
0.025356 -0.111378 
0.027237 -0.106006 
0.012176 -0.117810 
0.013927 -0.118324 
0.010741 -0.122665 
0.020859 -0.107691 
0.017324 -0.113309 
0.018737 -0.107585 
0.014043 -0.123606 
0.015745 -0.118647 
0.017611 -0.118708 
0.034632 -0.081363 
0.031452 -0.088240 
0.032189 -0.081710 
0.028915 -0.100370 
0.030339 -0.094453 
0.032570 -0.093400 
0.025641 -0.095243 
0.028018 -0.095029 
0.024453 -0.101559 
0.021337 -0.113138 
0.023001 -0.107520 
0.025136 -0.106989 
0.002284 -0.113546 
0.000941 -0.117608 
0.005840 -0.104083 
0.003931 -0.109052 
0.002924 -0.118256 
0.003463 -0.113915 
0.004704 -0.114424 
0.014605 -0.079297 
0.012415 -0.086212 
0.011585 -0.099641 
0.012114 -0.093140 
0.014166 -0.093637 
0.010163 -0.092660 
0.007943 -0.098620 
0.007764 -0.121148 
0.008917 -0.116461 
0.010503 -0.117170 
0.006021 -0.115044 
0.007423 -0.115736 