# vtk DataFile Version 2.0
Unstructured Grid Example
ASCII
DATASET UNSTRUCTURED_GRID

POINTS 64 float
0.000000 0.000000 0.000000 
0.031250 0.000000 0.000000 
0.031250 0.000000 0.000000 
0.062500 0.000000 0.000000 
0.062500 0.000000 0.000000 
0.093750 0.000000 0.000000 
0.093750 0.000000 0.000000 
0.125000 0.000000 0.000000 
0.187500 0.000000 0.000000 
0.218750 0.000000 0.000000 
0.218750 0.000000 0.000000 
0.250000 0.000000 0.000000 
0.125000 0.000000 0.000000 
0.156250 0.000000 0.000000 
0.156250 0.000000 0.000000 
0.187500 0.000000 0.000000 
0.437500 -2.460123 0.000000 
0.468750 -2.352215 0.000000 
0.468750 -2.429523 0.000000 
0.500000 -2.305508 0.000000 
0.375000 -2.759593 0.000000 
0.406250 -2.366841 0.000000 
0.406250 -2.571363 0.000000 
0.437500 -2.350549 0.000000 
0.250000 4.815765 0.000000 
0.281250 -9.631531 0.000000 
0.281250 -6.224274 0.000000 
0.312500 -1.998749 0.000000 
0.312500 -3.940092 0.000000 
0.343750 -2.341587 0.000000 
0.343750 -3.120168 0.000000 
0.375000 -2.382929 0.000000 
0.500000 -2.305508 0.000000 
0.531250 -2.429523 0.000000 
0.531250 -2.352215 0.000000 
0.562500 -2.460123 0.000000 
0.562500 -2.350549 0.000000 
0.593750 -2.571363 0.000000 
0.593750 -2.366841 0.000000 
0.625000 -2.759593 0.000000 
0.687500 -1.998749 0.000000 
0.718750 -6.224274 0.000000 
0.718750 -9.631531 0.000000 
0.750000 4.815765 0.000000 
0.625000 -2.382929 0.000000 
0.656250 -3.120168 0.000000 
0.656250 -2.341587 0.000000 
0.687500 -3.940092 0.000000 
0.937500 0.000000 0.000000 
0.968750 0.000000 0.000000 
0.968750 0.000000 0.000000 
1.000000 0.000000 0.000000 
0.875000 0.000000 0.000000 
0.906250 0.000000 0.000000 
0.906250 0.000000 0.000000 
0.937500 0.000000 0.000000 
0.750000 0.000000 0.000000 
0.781250 0.000000 0.000000 
0.781250 0.000000 0.000000 
0.812500 0.000000 0.000000 
0.812500 0.000000 0.000000 
0.843750 0.000000 0.000000 
0.843750 0.000000 0.000000 
0.875000 0.000000 0.000000 

CELLS 32 96
2  0 1 
2  2 3 
2  4 5 
2  6 7 
2  8 9 
2  10 11 
2  12 13 
2  14 15 
2  16 17 
2  18 19 
2  20 21 
2  22 23 
2  24 25 
2  26 27 
2  28 29 
2  30 31 
2  32 33 
2  34 35 
2  36 37 
2  38 39 
2  40 41 
2  42 43 
2  44 45 
2  46 47 
2  48 49 
2  50 51 
2  52 53 
2  54 55 
2  56 57 
2  58 59 
2  60 61 
2  62 63 

CELL_TYPES 32
3
3
3
3
3
3
3
3
3
3
3
3
3
3
3
3
3
3
3
3
3
3
3
3
3
3
3
3
3
3
3
3

POINT_DATA 64

SCALARS lambda_h float 1
LOOKUP_TABLE default
0.000000 
0.000000 
0.000000 
0.000000 
0.000000 
0.000000 
0.000000 
0.000000 
0.000000 
0.000000 
0.000000 
0.000000 
0.000000 
0.000000 
0.000000 
0.000000 
-2.460123 
-2.352215 
-2.429523 
-2.305508 
-2.759593 
-2.366841 
-2.571363 
-2.350549 
4.815765 
-9.631531 
-6.224274 
-1.998749 
-3.940092 
-2.341587 
-3.120168 
-2.382929 
-2.305508 
-2.429523 
-2.352215 
-2.460123 
-2.350549 
-2.571363 
-2.366841 
-2.759593 
-1.998749 
-6.224274 
-9.631531 
4.815765 
-2.382929 
-3.120168 
-2.341587 
-3.940092 
0.000000 
0.000000 
0.000000 
0.000000 
0.000000 
0.000000 
0.000000 
0.000000 
0.000000 
0.000000 
0.000000 
0.000000 
0.000000 
0.000000 
0.000000 
0.000000 

