# vtk DataFile Version 2.0
Unstructured Grid Example
ASCII
DATASET UNSTRUCTURED_GRID

POINTS 128 float
0.000000 0.000000 0.000000 
0.015625 0.000000 0.000000 
0.015625 0.000000 0.000000 
0.031250 0.000000 0.000000 
0.031250 0.000000 0.000000 
0.046875 0.000000 0.000000 
0.046875 0.000000 0.000000 
0.062500 0.000000 0.000000 
0.093750 0.000000 0.000000 
0.109375 0.000000 0.000000 
0.109375 0.000000 0.000000 
0.125000 0.000000 0.000000 
0.062500 0.000000 0.000000 
0.078125 0.000000 0.000000 
0.078125 0.000000 0.000000 
0.093750 0.000000 0.000000 
0.218750 0.000000 0.000000 
0.234375 0.000000 0.000000 
0.234375 0.000000 0.000000 
0.250000 0.000000 0.000000 
0.187500 0.000000 0.000000 
0.203125 0.000000 0.000000 
0.203125 0.000000 0.000000 
0.218750 0.000000 0.000000 
0.125000 0.000000 0.000000 
0.140625 0.000000 0.000000 
0.140625 0.000000 0.000000 
0.156250 0.000000 0.000000 
0.156250 0.000000 0.000000 
0.171875 0.000000 0.000000 
0.171875 0.000000 0.000000 
0.187500 0.000000 0.000000 
0.468750 -2.379708 0.000000 
0.484375 -2.358988 0.000000 
0.484375 -2.388110 0.000000 
0.500000 -2.321464 0.000000 
0.437500 -2.429303 0.000000 
0.453125 -2.365625 0.000000 
0.453125 -2.400900 0.000000 
0.468750 -2.358752 0.000000 
0.375000 -2.665853 0.000000 
0.390625 -2.459818 0.000000 
0.390625 -2.580318 0.000000 
0.406250 -2.424853 0.000000 
0.406250 -2.515907 0.000000 
0.421875 -2.398210 0.000000 
0.421875 -2.466808 0.000000 
0.437500 -2.378711 0.000000 
0.250000 4.308881 0.000000 
0.265625 -8.617763 0.000000 
0.265625 -4.141761 0.000000 
0.281250 -4.643122 0.000000 
0.281250 -5.219747 0.000000 
0.296875 -2.988511 0.000000 
0.296875 -4.184359 0.000000 
0.312500 -2.828051 0.000000 
0.343750 -2.945105 0.000000 
0.359375 -2.561835 0.000000 
0.359375 -2.782009 0.000000 
0.375000 -2.504758 0.000000 
0.312500 -3.559182 0.000000 
0.328125 -2.722096 0.000000 
0.328125 -3.184901 0.000000 
0.343750 -2.633572 0.000000 
0.500000 -2.321318 0.000000 
0.515625 -2.388401 0.000000 
0.515625 -2.358982 0.000000 
0.531250 -2.380156 0.000000 
0.531250 -2.358885 0.000000 
0.546875 -2.401525 0.000000 
0.546875 -2.365900 0.000000 
0.562500 -2.430135 0.000000 
0.593750 -2.425635 0.000000 
0.609375 -2.582175 0.000000 
0.609375 -2.460821 0.000000 
0.625000 -2.668344 0.000000 
0.562500 -2.379137 0.000000 
0.578125 -2.467895 0.000000 
0.578125 -2.398803 0.000000 
0.593750 -2.517321 0.000000 
0.718750 -4.743422 0.000000 
0.734375 -3.973695 0.000000 
0.734375 -8.460541 0.000000 
0.750000 4.230270 0.000000 
0.687500 -2.833114 0.000000 
0.703125 -4.198829 0.000000 
0.703125 -3.000336 0.000000 
0.718750 -5.230101 0.000000 
0.625000 -2.506028 0.000000 
0.640625 -2.785453 0.000000 
0.640625 -2.563445 0.000000 
0.656250 -2.950045 0.000000 
0.656250 -2.635661 0.000000 
0.671875 -3.192212 0.000000 
0.671875 -2.725037 0.000000 
0.687500 -3.570010 0.000000 
0.968750 0.000000 0.000000 
0.984375 0.000000 0.000000 
0.984375 0.000000 0.000000 
1.000000 0.000000 0.000000 
0.937500 0.000000 0.000000 
0.953125 0.000000 0.000000 
0.953125 0.000000 0.000000 
0.968750 0.000000 0.000000 
0.875000 0.000000 0.000000 
0.890625 0.000000 0.000000 
0.890625 0.000000 0.000000 
0.906250 0.000000 0.000000 
0.906250 0.000000 0.000000 
0.921875 0.000000 0.000000 
0.921875 0.000000 0.000000 
0.937500 0.000000 0.000000 
0.750000 0.000000 0.000000 
0.765625 0.000000 0.000000 
0.765625 0.000000 0.000000 
0.781250 0.000000 0.000000 
0.781250 0.000000 0.000000 
0.796875 0.000000 0.000000 
0.796875 0.000000 0.000000 
0.812500 0.000000 0.000000 
0.843750 0.000000 0.000000 
0.859375 0.000000 0.000000 
0.859375 0.000000 0.000000 
0.875000 0.000000 0.000000 
0.812500 0.000000 0.000000 
0.828125 0.000000 0.000000 
0.828125 0.000000 0.000000 
0.843750 0.000000 0.000000 

CELLS 64 192
2  0 1 
2  2 3 
2  4 5 
2  6 7 
2  8 9 
2  10 11 
2  12 13 
2  14 15 
2  16 17 
2  18 19 
2  20 21 
2  22 23 
2  24 25 
2  26 27 
2  28 29 
2  30 31 
2  32 33 
2  34 35 
2  36 37 
2  38 39 
2  40 41 
2  42 43 
2  44 45 
2  46 47 
2  48 49 
2  50 51 
2  52 53 
2  54 55 
2  56 57 
2  58 59 
2  60 61 
2  62 63 
2  64 65 
2  66 67 
2  68 69 
2  70 71 
2  72 73 
2  74 75 
2  76 77 
2  78 79 
2  80 81 
2  82 83 
2  84 85 
2  86 87 
2  88 89 
2  90 91 
2  92 93 
2  94 95 
2  96 97 
2  98 99 
2  100 101 
2  102 103 
2  104 105 
2  106 107 
2  108 109 
2  110 111 
2  112 113 
2  114 115 
2  116 117 
2  118 119 
2  120 121 
2  122 123 
2  124 125 
2  126 127 

CELL_TYPES 64
3
3
3
3
3
3
3
3
3
3
3
3
3
3
3
3
3
3
3
3
3
3
3
3
3
3
3
3
3
3
3
3
3
3
3
3
3
3
3
3
3
3
3
3
3
3
3
3
3
3
3
3
3
3
3
3
3
3
3
3
3
3
3
3

POINT_DATA 128

SCALARS lambda_h float 1
LOOKUP_TABLE default
0.000000 
0.000000 
0.000000 
0.000000 
0.000000 
0.000000 
0.000000 
0.000000 
0.000000 
0.000000 
0.000000 
0.000000 
0.000000 
0.000000 
0.000000 
0.000000 
0.000000 
0.000000 
0.000000 
0.000000 
0.000000 
0.000000 
0.000000 
0.000000 
0.000000 
0.000000 
0.000000 
0.000000 
0.000000 
0.000000 
0.000000 
0.000000 
-2.379708 
-2.358988 
-2.388110 
-2.321464 
-2.429303 
-2.365625 
-2.400900 
-2.358752 
-2.665853 
-2.459818 
-2.580318 
-2.424853 
-2.515907 
-2.398210 
-2.466808 
-2.378711 
4.308881 
-8.617763 
-4.141761 
-4.643122 
-5.219747 
-2.988511 
-4.184359 
-2.828051 
-2.945105 
-2.561835 
-2.782009 
-2.504758 
-3.559182 
-2.722096 
-3.184901 
-2.633572 
-2.321318 
-2.388401 
-2.358982 
-2.380156 
-2.358885 
-2.401525 
-2.365900 
-2.430135 
-2.425635 
-2.582175 
-2.460821 
-2.668344 
-2.379137 
-2.467895 
-2.398803 
-2.517321 
-4.743422 
-3.973695 
-8.460541 
4.230270 
-2.833114 
-4.198829 
-3.000336 
-5.230101 
-2.506028 
-2.785453 
-2.563445 
-2.950045 
-2.635661 
-3.192212 
-2.725037 
-3.570010 
0.000000 
0.000000 
0.000000 
0.000000 
0.000000 
0.000000 
0.000000 
0.000000 
0.000000 
0.000000 
0.000000 
0.000000 
0.000000 
0.000000 
0.000000 
0.000000 
0.000000 
0.000000 
0.000000 
0.000000 
0.000000 
0.000000 
0.000000 
0.000000 
0.000000 
0.000000 
0.000000 
0.000000 
0.000000 
0.000000 
0.000000 
0.000000 

