# vtk DataFile Version 2.0
Unstructured Grid Example
ASCII
DATASET UNSTRUCTURED_GRID

POINTS 4225 float
0.009290 -0.136025 0.000000 
0.990670 -0.136060 0.000000 
1.000000 1.000000 0.000000 
0.000000 1.000000 0.000000 
0.499979 -0.100000 0.000000 
0.977288 0.405131 0.000000 
0.500000 1.000000 0.000000 
0.022696 0.405155 0.000000 
0.499996 0.407266 0.000000 
0.261741 -0.113417 0.000000 
0.499989 0.139872 0.000000 
0.252492 0.132492 0.000000 
0.738215 -0.113523 0.000000 
0.747482 0.132468 0.000000 
0.989898 0.127874 0.000000 
0.740470 0.404263 0.000000 
0.971174 0.692407 0.000000 
0.739283 0.696093 0.000000 
0.750000 1.000000 0.000000 
0.500000 0.697148 0.000000 
0.250000 1.000000 0.000000 
0.260715 0.696099 0.000000 
0.028820 0.692418 0.000000 
0.259519 0.404275 0.000000 
0.010070 0.127909 0.000000 
0.135015 -0.132355 0.000000 
0.251156 0.005781 0.000000 
0.129522 -0.004579 0.000000 
0.499984 0.016780 0.000000 
0.376013 0.015018 0.000000 
0.378746 -0.100000 0.000000 
0.377586 0.268855 0.000000 
0.375932 0.137952 0.000000 
0.499993 0.270202 0.000000 
0.621210 -0.100000 0.000000 
0.623956 0.015006 0.000000 
0.870437 -0.004615 0.000000 
0.748809 0.005743 0.000000 
0.864946 -0.132393 0.000000 
0.624046 0.137940 0.000000 
0.622399 0.268846 0.000000 
0.992441 -0.006998 0.000000 
0.869151 0.127301 0.000000 
0.859122 0.402679 0.000000 
0.864352 0.262954 0.000000 
0.983861 0.265406 0.000000 
0.743998 0.265537 0.000000 
0.620664 0.406409 0.000000 
0.972375 0.547291 0.000000 
0.855682 0.546548 0.000000 
0.862590 0.846593 0.000000 
0.856060 0.694617 0.000000 
0.976602 0.841198 0.000000 
0.738474 0.548037 0.000000 
0.619751 0.549476 0.000000 
0.875000 1.000000 0.000000 
0.743503 0.847244 0.000000 
0.500000 0.847436 0.000000 
0.622164 0.847386 0.000000 
0.625000 1.000000 0.000000 
0.620226 0.696875 0.000000 
0.499998 0.550038 0.000000 
0.375000 1.000000 0.000000 
0.377837 0.847388 0.000000 
0.137409 0.846597 0.000000 
0.256497 0.847246 0.000000 
0.125000 1.000000 0.000000 
0.379773 0.696877 0.000000 
0.380245 0.549480 0.000000 
0.023395 0.841204 0.000000 
0.143937 0.694625 0.000000 
0.140865 0.402696 0.000000 
0.144310 0.546561 0.000000 
0.027615 0.547308 0.000000 
0.261521 0.548046 0.000000 
0.379327 0.406415 0.000000 
0.016116 0.265436 0.000000 
0.135627 0.262977 0.000000 
0.130818 0.127331 0.000000 
0.007519 -0.006962 0.000000 
0.255985 0.265554 0.000000 
0.071833 -0.134719 0.000000 
0.131452 -0.069217 0.000000 
0.069871 -0.071427 0.000000 
0.252684 -0.054809 0.000000 
0.192379 -0.064269 0.000000 
0.198736 -0.127055 0.000000 
0.190212 0.064014 0.000000 
0.190169 -0.000461 0.000000 
0.251373 0.068283 0.000000 
0.499980 -0.042366 0.000000 
0.438851 -0.042522 0.000000 
0.439296 -0.100000 0.000000 
0.437867 0.076970 0.000000 
0.438170 0.016408 0.000000 
0.499987 0.077453 0.000000 
0.318560 -0.100000 0.000000 
0.377468 -0.043215 0.000000 
0.315151 -0.045869 0.000000 
0.439196 0.337689 0.000000 
0.438739 0.269857 0.000000 
0.499995 0.337965 0.000000 
0.314029 0.135552 0.000000 
0.376673 0.202496 0.000000 
0.315235 0.200583 0.000000 
0.499991 0.204134 0.000000 
0.438296 0.203718 0.000000 
0.437961 0.139396 0.000000 
0.313387 0.011684 0.000000 
0.375598 0.075398 0.000000 
0.313278 0.072452 0.000000 
0.560661 -0.100000 0.000000 
0.561110 -0.042524 0.000000 
0.684816 -0.045893 0.000000 
0.622495 -0.043221 0.000000 
0.681402 -0.100000 0.000000 
0.561798 0.016403 0.000000 
0.562107 0.076965 0.000000 
0.930088 -0.071463 0.000000 
0.868505 -0.069254 0.000000 
0.928127 -0.134754 0.000000 
0.748597 0.068253 0.000000 
0.809792 -0.000500 0.000000 
0.809754 0.063982 0.000000 
0.801227 -0.127102 0.000000 
0.807576 -0.064314 0.000000 
0.747273 -0.054867 0.000000 
0.561247 0.269852 0.000000 
0.560793 0.337685 0.000000 
0.562018 0.139390 0.000000 
0.561686 0.203713 0.000000 
0.684746 0.200568 0.000000 
0.623309 0.202486 0.000000 
0.685948 0.135534 0.000000 
0.686584 0.011659 0.000000 
0.686696 0.072430 0.000000 
0.624376 0.075385 0.000000 
0.991840 -0.072513 0.000000 
0.931361 -0.006544 0.000000 
0.929613 0.126628 0.000000 
0.931160 0.059570 0.000000 
0.991792 0.059984 0.000000 
0.870478 0.060915 0.000000 
0.808508 0.129448 0.000000 
0.918196 0.403100 0.000000 
0.921103 0.332757 0.000000 
0.980484 0.334970 0.000000 
0.802017 0.332970 0.000000 
0.861642 0.332301 0.000000 
0.799920 0.403229 0.000000 
0.987117 0.196377 0.000000 
0.924183 0.263238 0.000000 
0.927142 0.194528 0.000000 
0.621477 0.336868 0.000000 
0.560390 0.407069 0.000000 
0.745857 0.198258 0.000000 
0.683347 0.267318 0.000000 
0.680714 0.405413 0.000000 
0.681949 0.335641 0.000000 
0.742135 0.334229 0.000000 
0.866969 0.194629 0.000000 
0.804318 0.263911 0.000000 
0.806577 0.196071 0.000000 
0.974493 0.475862 0.000000 
0.915733 0.474296 0.000000 
0.913144 0.619425 0.000000 
0.913962 0.546387 0.000000 
0.971170 0.619452 0.000000 
0.857056 0.474092 0.000000 
0.798261 0.474655 0.000000 
0.927885 0.922661 0.000000 
0.920258 0.845113 0.000000 
0.983873 0.917833 0.000000 
0.798003 0.695475 0.000000 
0.858415 0.770188 0.000000 
0.800126 0.770961 0.000000 
0.972779 0.766254 0.000000 
0.915759 0.768677 0.000000 
0.913599 0.693486 0.000000 
0.620060 0.477325 0.000000 
0.560090 0.477856 0.000000 
0.739194 0.475561 0.000000 
0.679787 0.476517 0.000000 
0.679336 0.622225 0.000000 
0.679295 0.548832 0.000000 
0.738464 0.621591 0.000000 
0.855255 0.620057 0.000000 
0.797097 0.620844 0.000000 
0.797250 0.547211 0.000000 
0.937500 1.000000 0.000000 
0.868463 0.923380 0.000000 
0.746621 0.923492 0.000000 
0.807799 0.923490 0.000000 
0.812500 1.000000 0.000000 
0.803481 0.847068 0.000000 
0.740984 0.771378 0.000000 
0.500000 0.923471 0.000000 
0.561789 0.923471 0.000000 
0.562500 1.000000 0.000000 
0.560580 0.771922 0.000000 
0.561130 0.847422 0.000000 
0.500000 0.771961 0.000000 
0.687500 1.000000 0.000000 
0.623527 0.923473 0.000000 
0.685161 0.923481 0.000000 
0.559943 0.549891 0.000000 
0.499997 0.478038 0.000000 
0.679976 0.696549 0.000000 
0.619796 0.622710 0.000000 
0.499999 0.623125 0.000000 
0.559970 0.623017 0.000000 
0.560185 0.697076 0.000000 
0.682999 0.847331 0.000000 
0.621032 0.771815 0.000000 
0.681220 0.771639 0.000000 
0.437500 1.000000 0.000000 
0.438212 0.923471 0.000000 
0.314840 0.923482 0.000000 
0.376473 0.923474 0.000000 
0.312500 1.000000 0.000000 
0.438871 0.847422 0.000000 
0.439420 0.771923 0.000000 
0.072114 0.922663 0.000000 
0.131537 0.923382 0.000000 
0.062500 1.000000 0.000000 
0.259015 0.771382 0.000000 
0.196518 0.847071 0.000000 
0.199872 0.770966 0.000000 
0.187500 1.000000 0.000000 
0.192201 0.923491 0.000000 
0.253379 0.923494 0.000000 
0.440053 0.549894 0.000000 
0.439904 0.477859 0.000000 
0.439815 0.697077 0.000000 
0.440028 0.623018 0.000000 
0.320661 0.622230 0.000000 
0.380201 0.622714 0.000000 
0.320023 0.696553 0.000000 
0.317002 0.847333 0.000000 
0.318780 0.771642 0.000000 
0.378968 0.771817 0.000000 
0.016125 0.917836 0.000000 
0.079740 0.845118 0.000000 
0.086396 0.693496 0.000000 
0.084237 0.768684 0.000000 
0.027216 0.766262 0.000000 
0.141583 0.770194 0.000000 
0.201994 0.695481 0.000000 
0.081790 0.403121 0.000000 
0.084256 0.474314 0.000000 
0.025494 0.475882 0.000000 
0.201730 0.474668 0.000000 
0.142934 0.474107 0.000000 
0.200068 0.403244 0.000000 
0.028822 0.619466 0.000000 
0.086030 0.546401 0.000000 
0.086850 0.619437 0.000000 
0.379934 0.477331 0.000000 
0.439601 0.407073 0.000000 
0.261533 0.621597 0.000000 
0.320701 0.548838 0.000000 
0.319276 0.405422 0.000000 
0.320206 0.476525 0.000000 
0.260798 0.475571 0.000000 
0.144740 0.620067 0.000000 
0.202744 0.547221 0.000000 
0.202899 0.620853 0.000000 
0.019497 0.334997 0.000000 
0.078879 0.332781 0.000000 
0.072831 0.194557 0.000000 
0.075795 0.263264 0.000000 
0.012855 0.196411 0.000000 
0.138341 0.332322 0.000000 
0.197968 0.332988 0.000000 
0.068598 -0.006509 0.000000 
0.008119 -0.072477 0.000000 
0.191464 0.129476 0.000000 
0.129486 0.060948 0.000000 
0.008171 0.060020 0.000000 
0.068803 0.059604 0.000000 
0.070355 0.126660 0.000000 
0.378511 0.336876 0.000000 
0.257851 0.334244 0.000000 
0.318039 0.335652 0.000000 
0.316637 0.267331 0.000000 
0.254122 0.198278 0.000000 
0.133005 0.194655 0.000000 
0.193399 0.196095 0.000000 
0.195663 0.263931 0.000000 
0.040499 -0.135399 0.000000 
0.070875 -0.103303 0.000000 
0.039759 -0.103934 0.000000 
0.133142 -0.101045 0.000000 
0.102016 -0.102407 0.000000 
0.103340 -0.133772 0.000000 
0.099701 -0.038323 0.000000 
0.100711 -0.070560 0.000000 
0.130227 -0.037027 0.000000 
0.255036 -0.084403 0.000000 
0.225297 -0.091336 0.000000 
0.230580 -0.122128 0.000000 
0.221132 -0.028920 0.000000 
0.222508 -0.060162 0.000000 
0.251602 -0.024766 0.000000 
0.166831 -0.130233 0.000000 
0.194964 -0.095922 0.000000 
0.164173 -0.098988 0.000000 
0.221216 0.098328 0.000000 
0.220707 0.066065 0.000000 
0.251849 0.100184 0.000000 
0.159863 -0.002825 0.000000 
0.189994 0.031671 0.000000 
0.159637 0.029632 0.000000 
0.251119 0.036807 0.000000 
0.220454 0.034124 0.000000 
0.220545 0.002479 0.000000 
0.162029 -0.067199 0.000000 
0.190886 -0.032429 0.000000 
0.160618 -0.035108 0.000000 
0.499979 -0.071395 0.000000 
0.469573 -0.071405 0.000000 
0.469629 -0.100000 0.000000 
0.469253 -0.013035 0.000000 
0.469428 -0.042400 0.000000 
0.499982 -0.012971 0.000000 
0.408994 -0.100000 0.000000 
0.439168 -0.071457 0.000000 
0.408763 -0.071560 0.000000 
0.468937 0.108311 0.000000 
0.468939 0.077332 0.000000 
0.499988 0.108434 0.000000 
0.407154 0.015883 0.000000 
0.437961 0.046466 0.000000 
0.406865 0.045864 0.000000 
0.499985 0.046911 0.000000 
0.468991 0.046800 0.000000 
0.469099 0.016689 0.000000 
0.288602 -0.100000 0.000000 
0.317098 -0.073075 0.000000 
0.285538 -0.076410 0.000000 
0.378342 -0.071750 0.000000 
0.347851 -0.072131 0.000000 
0.348587 -0.100000 0.000000 
0.345400 -0.015548 0.000000 
0.346494 -0.044080 0.000000 
0.376618 -0.014339 0.000000 
0.438484 -0.013240 0.000000 
0.407625 -0.013639 0.000000 
0.408218 -0.042765 0.000000 
0.469692 0.372381 0.000000 
[...]
POINT_DATA 4225

SCALARS u_h float 2
LOOKUP_TABLE default
0.009290 -0.136025 
-0.009330 -0.136060 
0.000000 0.000000 
0.000000 0.000000 
-0.000021 -0.100000 
-0.022712 -0.094869 
0.000000 0.000000 
0.022696 -0.094845 
-0.000004 -0.092734 
0.011741 -0.113417 
-0.000011 -0.110128 
0.002492 -0.117508 
-0.011785 -0.113523 
-0.002518 -0.117532 
-0.010102 -0.122126 
-0.009530 -0.095737 
-0.028826 -0.057593 
-0.010717 -0.053907 
0.000000 0.000000 
-0.000000 -0.052852 
0.000000 0.000000 
0.010715 -0.053901 
0.028820 -0.057582 
0.009519 -0.095725 
0.010070 -0.122091 
0.010015 -0.132355 
0.001156 -0.119219 
0.004522 -0.129579 
-0.000016 -0.108220 
0.001013 -0.109982 
0.003746 -0.100000 
0.002586 -0.106145 
0.000932 -0.112048 
-0.000007 -0.104798 
-0.003790 -0.100000 
-0.001044 -0.109994 
-0.004563 -0.129615 
-0.001191 -0.119257 
-0.010054 -0.132393 
-0.000954 -0.112060 
-0.002601 -0.106154 
-0.007559 -0.131998 
-0.005849 -0.122699 
-0.015878 -0.097321 
-0.010648 -0.112046 
-0.016139 -0.109594 
-0.006002 -0.109463 
-0.004336 -0.093591 
-0.027625 -0.077709 
-0.019318 -0.078452 
-0.012410 -0.028407 
-0.018940 -0.055383 
-0.023398 -0.033802 
-0.011526 -0.076963 
-0.005249 -0.075524 
0.000000 0.000000 
-0.006497 -0.027756 
0.000000 -0.027564 
-0.002836 -0.027614 
0.000000 0.000000 
-0.004774 -0.053125 
-0.000002 -0.074962 
0.000000 0.000000 
0.002837 -0.027612 
0.012409 -0.028403 
0.006497 -0.027754 
0.000000 0.000000 
0.004773 -0.053123 
0.005245 -0.075520 
0.023395 -0.033796 
0.018937 -0.055375 
0.015865 -0.097304 
0.019310 -0.078439 
0.027615 -0.077692 
0.011521 -0.076954 
0.004327 -0.093585 
0.016116 -0.109564 
0.010627 -0.112023 
0.005818 -0.122669 
0.007519 -0.131962 
0.005985 -0.109446 
0.009333 -0.134719 
0.006452 -0.131717 
0.007371 -0.133927 
0.002684 -0.117309 
0.004879 -0.126769 
0.011236 -0.127055 
0.002712 -0.123486 
0.002669 -0.125461 
0.001373 -0.119217 
-0.000020 -0.104866 
0.001351 -0.105022 
0.001796 -0.100000 
0.000367 -0.110530 
0.000670 -0.108592 
-0.000013 -0.110047 
0.006060 -0.100000 
0.002468 -0.105715 
0.002651 -0.108369 
0.001696 -0.099811 
0.001239 -0.105143 
-0.000005 -0.099535 
0.001529 -0.114448 
0.001673 -0.110004 
0.002735 -0.111917 
-0.000009 -0.108366 
0.000796 -0.108782 
0.000461 -0.110604 
0.000887 -0.113316 
0.000598 -0.112102 
0.000778 -0.115048 
-0.001839 -0.100000 
-0.001390 -0.105024 
-0.002684 -0.108393 
-0.002505 -0.105721 
-0.006098 -0.100000 
-0.000702 -0.108597 
-0.000393 -0.110535 
-0.007412 -0.133963 
-0.006495 -0.131754 
-0.009373 -0.134754 
-0.001403 -0.119247 
-0.002708 -0.125500 
-0.002746 -0.123518 
-0.011273 -0.127102 
-0.004924 -0.126814 
-0.002727 -0.117367 
-0.001253 -0.105148 
-0.001707 -0.099815 
-0.000482 -0.110610 
-0.000814 -0.108787 
-0.002754 -0.111932 
-0.001691 -0.110014 
-0.001552 -0.114466 
-0.000916 -0.113341 
-0.000804 -0.115070 
-0.000624 -0.112115 
-0.008160 -0.135013 
-0.006139 -0.131544 
-0.007887 -0.123372 
-0.006340 -0.127930 
-0.008208 -0.127516 
-0.004522 -0.126585 
-0.003992 -0.120552 
-0.019304 -0.096900 
-0.016397 -0.104743 
-0.019516 -0.102530 
-0.010483 -0.104530 
-0.013358 -0.105199 
-0.012580 -0.096771 
-0.012883 -0.116123 
-0.013317 -0.111762 
-0.010358 -0.117972 
-0.003523 -0.100632 
-0.002110 -0.092931 
-0.004143 -0.114242 
-0.004153 -0.107682 
-0.006786 -0.094587 
-0.005551 -0.101859 
-0.007865 -0.103271 
-0.008031 -0.117871 
-0.008182 -0.111089 
-0.005923 -0.116429 
-0.025507 -0.086638 
-0.021767 -0.088204 
-0.024356 -0.068075 
-0.023538 -0.078613 
-0.028830 -0.068048 
-0.017944 -0.088408 
-0.014239 -0.087845 
-0.009615 -0.014839 
-0.017242 -0.029887 
-0.016127 -0.019667 
-0.014497 -0.054525 
-0.016585 -0.042312 
-0.012374 -0.041539 
-0.027221 -0.046246 
-0.021741 -0.043823 
-0.023901 -0.056514 
-0.004940 -0.085175 
-0.002410 -0.084644 
-0.010806 -0.086939 
-0.007713 -0.085983 
-0.008164 -0.065275 
-0.008205 -0.076168 
-0.011536 -0.065909 
-0.019745 -0.067443 
-0.015403 -0.066656 
-0.015250 -0.077789 
0.000000 0.000000 
-0.006537 -0.014120 
-0.003379 -0.014008 
-0.004701 -0.014010 
0.000000 0.000000 
-0.009019 -0.027932 
-0.009016 -0.041122 
0.000000 -0.014029 
-0.000711 -0.014029 
0.000000 0.000000 
-0.001920 -0.040578 
-0.001370 -0.027578 
0.000000 -0.040539 
0.000000 0.000000 
-0.001473 -0.014027 
-0.002339 -0.014019 
-0.002557 -0.075109 
-0.000003 -0.084462 
-0.007524 -0.053451 
-0.005204 -0.064790 
-0.000001 -0.064375 
-0.002530 -0.064483 
-0.002315 -0.052924 
-0.004501 -0.027669 
-0.003968 -0.040685 
-0.006280 -0.040861 
0.000000 0.000000 
0.000712 -0.014029 
0.002340 -0.014018 
0.001473 -0.014026 
0.000000 0.000000 
0.001371 -0.027578 
0.001920 -0.040577 
0.009614 -0.014837 
0.006537 -0.014118 
0.000000 0.000000 
0.009015 -0.041118 
0.009018 -0.027929 
0.012372 -0.041534 
0.000000 0.000000 
0.004701 -0.014009 
0.003379 -0.014006 
0.002553 -0.075106 
0.002404 -0.084641 
0.002315 -0.052923 
0.002528 -0.064482 
0.008161 -0.065270 
0.005201 -0.064786 
0.007523 -0.053447 
0.004502 -0.027667 
0.006280 -0.040858 
0.003968 -0.040683 
0.016125 -0.019664 
0.017240 -0.029882 
0.023896 -0.056504 
0.021737 -0.043816 
0.027216 -0.046238 
0.016583 -0.042306 
0.014494 -0.054519 
0.019290 -0.096879 
0.021756 -0.088186 
0.025494 -0.086618 
0.014230 -0.087832 
0.017934 -0.088393 
0.012568 -0.096756 
0.028822 -0.068034 
0.023530 -0.078599 
0.024350 -0.068063 
0.004934 -0.085169 
0.002101 -0.092927 
0.011533 -0.065903 
0.008201 -0.076162 
0.006776 -0.094578 
0.007706 -0.085975 
0.010798 -0.086929 
0.019740 -0.067433 
0.015244 -0.077779 
0.015399 -0.066647 
0.019497 -0.102503 
0.016379 -0.104719 
0.010331 -0.117943 
0.013295 -0.111736 
0.012855 -0.116089 
0.013341 -0.105178 
0.010468 -0.104512 
0.006098 -0.131509 
0.008119 -0.134977 
0.003964 -0.120524 
0.004486 -0.126552 
0.008171 -0.127480 
0.006303 -0.127896 
0.007855 -0.123340 
0.003511 -0.100624 
0.007851 -0.103256 
0.005539 -0.101848 
0.004137 -0.107669 
0.004122 -0.114222 
0.008005 -0.117845 
0.005899 -0.116405 
0.008163 -0.111069 
0.009249 -0.135399 
0.008375 -0.134553 
0.008509 -0.135184 
0.008142 -0.132295 
0.008266 -0.133657 
0.009590 -0.133772 
0.005951 -0.132073 
0.006961 -0.133060 
0.005227 -0.130777 
0.005036 -0.115653 
0.006547 -0.122586 
0.011830 -0.122128 
0.002382 -0.122670 
0.003758 -0.122662 
0.001602 -0.118516 
0.010581 -0.130233 
0.007464 -0.127172 
0.007923 -0.130238 
0.002466 -0.120422 
0.001957 -0.121435 
0.001849 -0.118566 
0.003613 -0.127825 
0.002494 -0.124579 
0.003387 -0.126618 
0.001119 -0.119443 
0.001704 -0.122126 
0.001795 -0.122521 
0.005779 -0.129699 
0.003386 -0.126179 
0.004368 -0.128858 
-0.000021 -0.102645 
0.000823 -0.102655 
0.000879 -0.100000 
0.000503 -0.106785 
0.000678 -0.104900 
-0.000018 -0.106721 
0.002744 -0.100000 
0.001668 -0.102707 
0.002513 -0.102810 
0.000187 -0.110439 
0.000189 -0.110168 
-0.000012 -0.110316 
0.000904 -0.109117 
0.000461 -0.109784 
0.000615 -0.110386 
-0.000015 -0.109339 
0.000241 -0.109450 
0.000349 -0.108311 
0.007352 -0.100000 
0.004598 -0.104325 
0.004288 -0.107660 
0.003342 -0.103000 
0.004101 -0.103381 
0.004837 -0.100000 
0.001650 -0.109298 
0.002744 -0.106580 
0.001618 -0.108089 
0.000984 -0.106990 
0.001375 -0.107389 
0.001968 -0.105265 
0.000942 -0.096369 
0.000837 -0.099603 
-0.000005 -0.096314 
0.001894 -0.105567 
0.001470 -0.102680 
0.002243 -0.103063 
-0.000006 -0.102370 
0.000725 -0.102447 
0.000610 -0.104884 
0.001950 -0.115931 
0.002093 -0.113408 
0.002625 -0.114700 
0.001268 -0.111263 
0.001649 -0.112246 
0.001201 -0.113137 
0.002740 -0.109083 
0.002171 -0.110887 
0.002119 -0.108291 
-0.000010 -0.109478 
0.000297 -0.109591 
0.000227 -0.110248 
0.000496 -0.106897 
0.000390 -0.108471 
-0.000008 -0.106802 
0.000693 -0.111202 
0.000608 -0.109927 
0.000928 -0.110486 
0.001548 -0.107651 
0.001220 -0.109296 
0.001011 -0.107183 
0.002348 -0.111899 
0.000987 -0.111331 
0.001482 -0.111331 
0.001335 -0.114454 
0.000876 -0.116002 
0.000373 -0.110806 
0.000696 -0.112336 
0.000541 -0.111431 
0.000504 -0.111161 
0.000686 -0.111323 
0.001391 -0.116717 
0.000795 -0.116815 
0.000989 -0.117028 
0.001076 -0.115008 
0.000861 -0.113531 
0.000690 -0.112678 
0.000672 -0.113393 
0.000690 -0.114512 
-0.000921 -0.100000 
-0.000865 -0.102656 
-0.002555 -0.102811 
-0.001710 -0.102707 
-0.002788 -0.100000 
-0.000717 -0.104901 
-0.000540 -0.106786 
-0.004322 -0.107710 
-0.004638 -0.104340 
-0.007355 -0.100000 
-0.001651 -0.108099 
-0.002780 -0.106593 
-0.001681 -0.109314 
-0.004881 -0.100000 
-0.004143 -0.103387 
-0.003384 -0.103003 
-0.000215 -0.110171 
-0.000211 -0.110442 
-0.000381 -0.108313 
-0.000271 -0.109452 
-0.000644 -0.110394 
-0.000490 -0.109789 
-0.000936 -0.109124 
-0.002006 -0.105268 
-0.001410 -0.107394 
-0.001019 -0.106994 
-0.008550 -0.135219 
-0.008416 -0.134588 
-0.009290 -0.135434 
-0.005269 -0.130814 
-0.007003 -0.133096 
-0.005993 -0.132109 
-0.009630 -0.133808 
-0.008307 -0.133693 
-0.008184 -0.132332 
-0.001877 -0.118593 
-0.001990 -0.121467 
-0.002495 -0.120451 
-0.001833 -0.122561 
-0.001739 -0.122162 
-0.001151 -0.119476 
-0.003425 -0.126653 
-0.002530 -0.124615 
-0.003654 -0.127862 
-0.011866 -0.122190 
-0.006595 -0.122643 
-0.005089 -0.115729 
-0.007965 -0.130278 
-0.007509 -0.127219 
-0.010619 -0.130274 
-0.001640 -0.118561 
-0.003804 -0.122714 
-0.002424 -0.122716 
-0.004410 -0.128897 
-0.003429 -0.126221 
-0.005822 -0.129739 
-0.000848 -0.099605 
-0.000952 -0.096370 
-0.000624 -0.104887 
-0.000737 -0.102449 
-0.002256 -0.103069 
-0.001483 -0.102684 
-0.001908 -0.105574 
-0.000248 -0.110251 
-0.000317 -0.109593 
-0.000947 -0.110494 
-0.000627 -0.109932 
-0.000714 -0.111211 
-0.000408 -0.108473 
-0.000512 -0.106900 
-0.002647 -0.114720 
-0.002114 -0.113425 
-0.001974 -0.115952 
-0.002135 -0.108301 
-0.002190 -0.110900 
-0.002757 -0.109095 
-0.001223 -0.113152 
-0.001670 -0.112260 
-0.001289 -0.111274 
-0.001027 -0.107187 
-0.001238 -0.109304 
-0.001564 -0.107658 
-0.002382 -0.111943 
-0.000907 -0.116035 
-0.001368 -0.114492 
-0.001513 -0.111357 
-0.001016 -0.111348 
-0.001417 -0.116741 
-0.000885 -0.113547 
-0.001101 -0.115028 
-0.001017 -0.117054 
-0.000824 -0.116844 
-0.000397 -0.110811 
-0.000714 -0.111335 
-0.000530 -0.111169 
-0.000565 -0.111440 
-0.000720 -0.112348 
-0.000718 -0.114536 
-0.000698 -0.113410 
-0.000718 -0.112695 
-0.008730 -0.135786 
-0.007781 -0.134538 
-0.006840 -0.131903 
-0.007167 -0.133414 
-0.007730 -0.133730 
-0.006609 -0.132927 
-0.005391 -0.130814 
-0.008961 -0.123020 
-0.007962 -0.125586 
-0.009019 -0.124910 
-0.006002 -0.125474 
-0.006970 -0.125761 
-0.006852 -0.123247 
-0.007714 -0.129900 
-0.007247 -0.127944 
-0.006864 -0.130063 
-0.003257 -0.122173 
-0.003194 -0.119102 
-0.004336 -0.128203 
-0.003611 -0.125253 
-0.004887 -0.121778 
-0.004123 -0.123636 
-0.005048 -0.124754 
-0.006051 -0.129866 
-0.005436 -0.127479 
-0.005215 -0.129262 
-0.021020 -0.096135 
-0.019522 -0.100106 
-0.021155 -0.098779 
-0.016263 -0.101326 
-0.017888 -0.100925 
-0.017584 -0.097268 
-0.017833 -0.106132 
-0.017951 -0.103899 
-0.016335 -0.107515 
-0.010117 -0.100273 
-0.011572 -0.100799 
-0.011019 -0.096289 
-0.012010 -0.108751 
-0.011894 -0.104969 
-0.010648 -0.108468 
-0.014205 -0.097134 
-0.013089 -0.101191 
-0.014658 -0.101389 
-0.011408 -0.119192 
-0.011591 -0.117334 
-0.010190 -0.120266 
-0.014710 -0.110958 
-0.013114 -0.114231 
-0.014475 -0.112923 
-0.010532 -0.115226 
-0.011801 -0.114968 
-0.011961 -0.112097 
-0.014863 -0.105149 
-0.013418 -0.108738 
-0.014862 -0.108354 
-0.001918 -0.096558 
-0.001049 -0.092764 
-0.003069 -0.103591 
-0.002594 -0.100162 
-0.003201 -0.093211 
-0.002913 -0.096869 
-0.003950 -0.097292 
-0.003286 -0.116078 
-0.003401 -0.113066 
-0.005037 -0.108563 
-0.004207 -0.111009 
-0.005059 -0.112034 
-0.003443 -0.110012 
-0.003345 -0.106866 
-0.008119 -0.095158 
-0.007428 -0.099028 
-0.008734 -0.099667 
-0.005042 -0.097809 
-0.006198 -0.098397 
-0.005527 -0.094057 
-0.006946 -0.106539 
-0.006670 -0.102561 
-0.005865 -0.105743 
-0.003934 -0.104230 
-0.004863 -0.104959 
-0.004505 -0.101206 
-0.009036 -0.120774 
-0.009308 -0.115086 
-0.009172 -0.118126 
-0.007928 -0.120799 
-0.006861 -0.120407 
-0.009138 -0.103944 
-0.007052 -0.110326 
-0.008107 -0.107298 
-0.009343 -0.107961 
-0.009384 -0.111686 
-0.004038 -0.117415 
-0.005845 -0.119664 
-0.004896 -0.118640 
-0.004986 -0.115389 
-0.006001 -0.113025 
-0.008137 -0.114623 
-0.007030 -0.113912 
-0.006943 -0.117281 
-0.024183 -0.090840 
-0.022411 -0.091980 
-0.024738 -0.083090 
-0.023660 -0.087634 
-0.026664 -0.082262 
-0.020607 -0.092661 
-0.018790 -0.092972 
-0.026706 -0.062775 
-0.026639 -0.068193 
-0.029000 -0.062925 
-0.021426 -0.078624 
-0.024085 -0.073467 
-0.021870 -0.073342 
-0.028358 -0.072973 
-0.026262 -0.073377 
-0.025617 -0.078340 
-0.013477 -0.092452 
-0.011814 -0.092000 
-0.016982 -0.092995 
-0.015205 -0.092801 
-0.016756 -0.083310 
-0.016065 -0.088192 
-0.018733 -0.083561 
-0.022755 -0.083523 
-0.020742 -0.083654 
-0.019853 -0.088435 
-0.006329 -0.007934 
-0.012336 -0.016221 
-0.010240 -0.011241 
-0.014608 -0.028941 
-0.013853 -0.022460 
-0.011482 -0.021656 
-0.020322 -0.027023 
-0.016892 -0.024093 
-0.020271 -0.031466 
-0.012526 -0.054192 
-0.013593 -0.048127 
-0.011697 -0.047836 
-0.017977 -0.048967 
-0.015684 -0.048495 
-0.016637 -0.054919 
-0.012652 -0.035049 
-0.014359 -0.041861 
-0.014733 -0.035443 
-0.028255 -0.052040 
-0.025712 -0.051176 
-0.026416 -0.057109 
-0.022752 -0.038397 
-0.024522 -0.044950 
-0.025640 -0.040182 
-0.021380 -0.055920 
-0.023067 -0.050317 
-0.020455 -0.049571 
-0.017127 -0.036061 
-0.019058 -0.042948 
-0.019834 -0.037015 
-0.002277 -0.088953 
-0.001135 -0.088803 
-0.004670 -0.089546 
-0.003451 -0.089204 
-0.003795 -0.080222 
-0.003651 -0.084869 
-0.005135 -0.080494 
-0.010227 -0.091491 
-0.008721 -0.090962 
-0.009587 -0.081645 
-0.009216 -0.086453 
-0.011246 -0.082092 
-0.007296 -0.090444 
-0.005948 -0.089965 
-0.009516 -0.059726 
-0.009792 -0.065575 
-0.011236 -0.060017 
-0.006687 -0.075822 
-0.008256 -0.070847 
-0.006722 -0.070542 
-0.011629 -0.071563 
-0.009889 -0.071191 
-0.009816 -0.076553 
-0.006290 -0.085551 
-0.008020 -0.081219 
-0.006540 -0.080830 
-0.024311 -0.062428 
-0.019516 -0.061544 
-0.021891 -0.061995 
-0.022039 -0.067801 
-0.019667 -0.073080 
-0.013093 -0.060344 
-0.013482 -0.071956 
-0.013406 -0.066271 
-0.015094 -0.060708 
-0.017240 -0.061109 
-0.012482 -0.087414 
-0.017250 -0.078158 
-0.014839 -0.082955 
-0.012998 -0.082538 
-0.013339 -0.077382 
-0.017523 -0.067052 
-0.015447 -0.072353 
-0.017515 -0.072737 
0.000000 0.000000 
-0.004762 -0.007275 
-0.003255 -0.007023 
-0.003879 -0.007084 
0.000000 0.000000 
-0.007826 -0.014324 
-0.009645 -0.021271 
-0.001700 -0.007033 
-0.002007 -0.007021 
0.000000 0.000000 
-0.005905 -0.020945 
-0.003995 -0.014004 
-0.004994 -0.020920 
0.000000 0.000000 
-0.002357 -0.007011 
-0.002765 -0.007008 
-0.010603 -0.041303 
-0.009976 -0.047600 
-0.010575 -0.028106 
-0.010841 -0.034795 
-0.007849 -0.034499 
-0.009254 -0.034622 
-0.007676 -0.027826 
-0.005530 -0.014039 
-0.006950 -0.020992 
-0.008172 -0.021084 
0.000000 -0.007073 
-0.000177 -0.007073 
0.000000 0.000000 
-0.000521 -0.020863 
-0.000352 -0.014029 
0.000000 -0.020861 
0.000000 0.000000 
-0.000358 -0.007072 
-0.000545 -0.007069 
-0.001061 -0.046801 
-0.000952 -0.040550 
-0.000000 -0.046786 
-0.002085 -0.027593 
-0.001662 -0.034153 
-0.002528 -0.034181 
0.000000 -0.034127 
-0.000824 -0.034135 
-0.000679 -0.027568 
0.000000 0.000000 
-0.001178 -0.007053 
-0.001426 -0.007044 
-0.000742 -0.007066 
-0.000952 -0.007060 
0.000000 0.000000 
-0.002791 -0.020886 
-0.001889 -0.014024 
-0.002176 -0.020879 
-0.001051 -0.020867 
-0.001600 -0.020872 
-0.001083 -0.014029 
-0.001199 -0.084508 
-0.000003 -0.088758 
-0.003877 -0.075285 
-0.002504 -0.080022 
-0.000002 -0.079857 
-0.001245 -0.079900 
-0.001271 -0.075001 
-0.009056 -0.053662 
-0.007921 -0.059469 
-0.005038 -0.059064 
-0.006434 -0.059248 
-0.006104 -0.053273 
-0.006639 -0.065011 
-0.005273 -0.070283 
-0.000001 -0.058721 
-0.001214 -0.058745 
-0.001149 -0.052872 
-0.001275 -0.069829 
-0.001256 -0.064404 
-0.000001 -0.069795 
-0.003518 -0.053009 
-0.002446 -0.058811 
-0.003714 -0.058918 
-0.003893 -0.070075 
-0.003840 -0.064613 
-0.002566 -0.069922 
-0.002832 -0.014013 
-0.003637 -0.027639 
-0.003456 -0.020894 
-0.004185 -0.020905 
-0.005448 -0.027707 
-0.002139 -0.046841 
-0.004416 -0.046993 
-0.003252 -0.046905 
-0.002920 -0.040623 
-0.003438 -0.034220 
-0.008410 -0.047405 
-0.006590 -0.034405 
-0.007584 -0.040978 
-0.006976 -0.047241 
-0.005651 -0.047105 
-0.004406 -0.034270 
-0.005082 -0.040764 
-0.005450 -0.034330 
0.000000 0.000000 
0.000178 -0.007073 
0.000546 -0.007069 
0.000359 -0.007072 
0.000000 0.000000 
0.000353 -0.014029 
0.000521 -0.020863 
0.001426 -0.007043 
0.001178 -0.007052 
0.000000 0.000000 
0.002177 -0.020878 
0.001890 -0.014023 
0.002792 -0.020885 
0.000000 0.000000 
0.000952 -0.007060 
0.000742 -0.007065 
0.000952 -0.040550 
0.001061 -0.046800 
0.000680 -0.027568 
0.000824 -0.034134 
0.002529 -0.034180 
0.001662 -0.034152 
0.002086 -0.027593 
0.001083 -0.014028 
0.001600 -0.020872 
0.001052 -0.020867 
0.006328 -0.007933 
0.004762 -0.007274 
0.000000 0.000000 
0.009644 -0.021269 
0.007826 -0.014322 
0.011481 -0.021653 
0.000000 0.000000 
0.003879 -0.007083 
0.003255 -0.007022 
0.009975 -0.047596 
0.010602 -0.041299 
0.011695 -0.047831 
0.007675 -0.027823 
0.009254 -0.034619 
0.007848 -0.034495 
0.012651 -0.035045 
0.010841 -0.034791 
0.010574 -0.028103 
0.000000 0.000000 
0.002007 -0.007021 
0.001700 -0.007032 
0.002765 -0.007007 
0.002357 -0.007010 
0.000000 0.000000 
0.004994 -0.020918 
0.003995 -0.014003 
0.005905 -0.020943 
0.008172 -0.021082 
0.006949 -0.020990 
0.005530 -0.014037 
0.001194 -0.084506 
0.001128 -0.088801 
0.001267 -0.074999 
0.001241 -0.079899 
0.003790 -0.080219 
0.002499 -0.080020 
0.003873 -0.075281 
0.001148 -0.052871 
0.001213 -0.058744 
0.003713 -0.058915 
0.002445 -0.058809 
0.003517 -0.053007 
0.001254 -0.064403 
0.001272 -0.069828 
0.009514 -0.059720 
0.007919 -0.059465 
0.009054 -0.053657 
0.005270 -0.070279 
0.006637 -0.065007 
0.006719 -0.070538 
0.006102 -0.053269 
0.006432 -0.059245 
0.005036 -0.059061 
0.002564 -0.069920 
0.003837 -0.064610 
0.003890 -0.070072 
0.002832 -0.014012 
0.005448 -0.027705 
0.004185 -0.020903 
0.003456 -0.020893 
0.003637 -0.027637 
0.008409 -0.047401 
0.005650 -0.047102 
0.006975 -0.047238 
0.007583 -0.040975 
0.006590 -0.034402 
0.002139 -0.046840 
0.003438 -0.034219 
0.002920 -0.040622 
0.003251 -0.046903 
0.004416 -0.046990 
0.005450 -0.034328 
0.005082 -0.040762 
0.004406 -0.034268 
0.010239 -0.011240 
0.012335 -0.016218 
0.020269 -0.031461 
0.016890 -0.024090 
0.020319 -0.027019 
0.013852 -0.022457 
0.014607 -0.028937 
0.026411 -0.057099 
0.025707 -0.051167 
0.028249 -0.052031 
0.020452 -0.049563 
0.023063 -0.050309 
0.021376 -0.055911 
0.025636 -0.040175 
0.024518 -0.044943 
0.022748 -0.038390 
0.013591 -0.048121 
0.012524 -0.054186 
0.014732 -0.035438 
0.014357 -0.041856 
0.016634 -0.054912 
0.015682 -0.048489 
0.017974 -0.048960 
0.019831 -0.037009 
0.019056 -0.042941 
0.017125 -0.036056 
0.021005 -0.096113 
0.022398 -0.091960 
0.024169 -0.090819 
0.018778 -0.092954 
0.020594 -0.092642 
0.017571 -0.097249 
0.026652 -0.082243 
0.023648 -0.087615 
0.024728 -0.083072 
0.011805 -0.091988 
0.013467 -0.092438 
0.011007 -0.096275 
0.018724 -0.083547 
0.016055 -0.088178 
0.016748 -0.083298 
0.014192 -0.097118 
0.015194 -0.092786 
0.016971 -0.092978 
0.028993 -0.062912 
0.026632 -0.068180 
0.026700 -0.062763 
0.025607 -0.078324 
0.026254 -0.073363 
0.028349 -0.072958 
0.021863 -0.073330 
0.024077 -0.073454 
0.021418 -0.078611 
0.019842 -0.088419 
0.020733 -0.083639 
0.022745 -0.083507 
0.002270 -0.088950 
0.001041 -0.092762 
0.005130 -0.080490 
0.003645 -0.084865 
0.003192 -0.093206 
0.003443 -0.089200 
0.004663 -0.089540 
0.011233 -0.060011 
0.009789 -0.065569 
0.009811 -0.076545 
0.009885 -0.071184 
0.011624 -0.071556 
0.008253 -0.070842 
0.006682 -0.075816 
0.008108 -0.095147 
0.008712 -0.090952 
0.010218 -0.091480 
0.005941 -0.089958 