# vtk DataFile Version 2.0
Unstructured Grid Example
ASCII
DATASET UNSTRUCTURED_GRID

POINTS 9 float
-0.002530 -0.115016 0.000000 
1.002530 -0.115016 0.000000 
1.000000 1.000000 0.000000 
0.000000 1.000000 0.000000 
0.500000 0.009808 0.000000 
0.982788 0.421409 0.000000 
0.500000 1.000000 0.000000 
0.017212 0.421409 0.000000 
0.500000 0.430289 0.000000 

CELLS 8 32
3  0 4 8 
3  4 1 8 
3  1 5 8 
3  5 2 8 
3  2 6 8 
3  6 3 8 
3  3 7 8 
3  7 0 8 

CELL_TYPES 8
5
5
5
5
5
5
5
5

POINT_DATA 9

SCALARS u_h float 2
LOOKUP_TABLE default
-0.002530 -0.115016 
0.002530 -0.115016 
0.000000 0.000000 
0.000000 0.000000 
-0.000000 0.009808 
-0.017212 -0.078591 
0.000000 0.000000 
0.017212 -0.078591 
0.000000 -0.069711 

CELL_DATA 8

SCALARS epsilon float 4
LOOKUP_TABLE default
0.005047 -0.127610 0.000000 0.148426
0.005047 -0.127610 0.000000 -0.148426
-0.034965 0.069682 0.000000 -0.028620
-0.033996 0.145720 0.000000 0.009830
0.000000 0.129848 0.000000 -0.000000
0.000000 0.129848 0.000000 -0.000000
-0.033996 0.145720 0.000000 -0.009830
-0.034965 0.069682 0.000000 0.028620

SCALARS sigma float 4
LOOKUP_TABLE default
-0.429643 -2.690885 -1.225634 1.466288
-0.429643 -2.690885 -1.225634 -1.466288
-0.209983 1.608090 0.347169 -0.477868
0.537513 3.990046 1.117244 0.099838
1.298477 3.847432 1.298477 -0.000000
1.298477 3.847432 1.298477 -0.000000
0.537513 3.990046 1.117244 -0.099838
-0.209983 1.608090 0.347169 0.477868

