# vtk DataFile Version 2.0
Unstructured Grid Example
ASCII
DATASET UNSTRUCTURED_GRID

POINTS 1089 float
0.009681 -0.136757 0.000000 
0.990319 -0.136757 0.000000 
1.000000 1.000000 0.000000 
0.000000 1.000000 0.000000 
0.500000 -0.100000 0.000000 
0.977223 0.404881 0.000000 
0.500000 1.000000 0.000000 
0.022777 0.404881 0.000000 
0.500000 0.407026 0.000000 
0.261229 -0.116244 0.000000 
0.500000 0.139731 0.000000 
0.252563 0.132041 0.000000 
0.738771 -0.116244 0.000000 
0.747437 0.132041 0.000000 
0.989661 0.127388 0.000000 
0.740456 0.404080 0.000000 
0.971242 0.692240 0.000000 
0.739333 0.696030 0.000000 
0.750000 1.000000 0.000000 
0.500000 0.697097 0.000000 
0.250000 1.000000 0.000000 
0.260667 0.696030 0.000000 
0.028758 0.692240 0.000000 
0.259544 0.404080 0.000000 
0.010339 0.127388 0.000000 
0.135173 -0.132964 0.000000 
0.251314 0.004924 0.000000 
0.129781 -0.005187 0.000000 
0.500000 0.016729 0.000000 
0.375976 0.014779 0.000000 
0.379048 -0.100000 0.000000 
0.377576 0.268641 0.000000 
0.375909 0.137693 0.000000 
0.500000 0.270017 0.000000 
0.620952 -0.100000 0.000000 
0.624024 0.014779 0.000000 
0.870219 -0.005187 0.000000 
0.748686 0.004924 0.000000 
0.864827 -0.132964 0.000000 
0.624091 0.137693 0.000000 
0.622424 0.268641 0.000000 
0.992257 -0.007464 0.000000 
0.868963 0.126820 0.000000 
0.859059 0.402449 0.000000 
0.864247 0.262616 0.000000 
0.983694 0.264989 0.000000 
0.743975 0.265261 0.000000 
0.620678 0.406253 0.000000 
0.972356 0.547057 0.000000 
0.855681 0.546403 0.000000 
0.862735 0.846576 0.000000 
0.856135 0.694546 0.000000 
0.976831 0.841208 0.000000 
0.738487 0.547923 0.000000 
0.619757 0.549369 0.000000 
0.875000 1.000000 0.000000 
0.743555 0.847212 0.000000 
0.500000 0.847414 0.000000 
0.622182 0.847354 0.000000 
0.625000 1.000000 0.000000 
0.620245 0.696811 0.000000 
0.500000 0.549931 0.000000 
0.375000 1.000000 0.000000 
0.377818 0.847354 0.000000 
0.137265 0.846576 0.000000 
0.256445 0.847212 0.000000 
0.125000 1.000000 0.000000 
0.379755 0.696811 0.000000 
0.380243 0.549369 0.000000 
0.023169 0.841208 0.000000 
0.143865 0.694546 0.000000 
0.140941 0.402449 0.000000 
0.144319 0.546403 0.000000 
0.027644 0.547057 0.000000 
0.261513 0.547923 0.000000 
0.379322 0.406253 0.000000 
0.016306 0.264989 0.000000 
0.135753 0.262616 0.000000 
0.131037 0.126820 0.000000 
0.007743 -0.007464 0.000000 
0.256025 0.265261 0.000000 
0.072139 -0.135316 0.000000 
0.131626 -0.069791 0.000000 
0.070050 -0.071974 0.000000 
0.253053 -0.056318 0.000000 
0.192661 -0.065110 0.000000 
0.198567 -0.127860 0.000000 
0.190434 0.063368 0.000000 
0.190471 -0.001253 0.000000 
0.251469 0.067692 0.000000 
0.500000 -0.042390 0.000000 
0.438911 -0.042550 0.000000 
0.439417 -0.100000 0.000000 
0.437853 0.076812 0.000000 
0.438176 0.016308 0.000000 
0.500000 0.077354 0.000000 
0.319352 -0.100000 0.000000 
0.377530 -0.043316 0.000000 
0.315055 -0.046432 0.000000 
0.439184 0.337504 0.000000 
0.438729 0.269664 0.000000 
0.500000 0.337762 0.000000 
0.314030 0.135203 0.000000 
0.376659 0.202258 0.000000 
0.315242 0.200288 0.000000 
0.500000 0.203965 0.000000 
0.438285 0.203523 0.000000 
0.437947 0.139209 0.000000 
0.313336 0.011182 0.000000 
0.375561 0.075128 0.000000 
0.313263 0.072036 0.000000 
0.560583 -0.100000 0.000000 
0.561089 -0.042550 0.000000 
0.684945 -0.046432 0.000000 
0.622470 -0.043316 0.000000 
0.680648 -0.100000 0.000000 
0.561824 0.016308 0.000000 
0.562147 0.076812 0.000000 
0.929950 -0.071974 0.000000 
0.868374 -0.069791 0.000000 
0.927861 -0.135316 0.000000 
0.748531 0.067692 0.000000 
0.809529 -0.001253 0.000000 
0.809566 0.063368 0.000000 
0.801433 -0.127860 0.000000 
0.807339 -0.065110 0.000000 
0.746947 -0.056318 0.000000 
0.561271 0.269664 0.000000 
0.560816 0.337504 0.000000 
0.562053 0.139209 0.000000 
0.561715 0.203523 0.000000 
0.684758 0.200288 0.000000 
0.623341 0.202258 0.000000 
0.685970 0.135203 0.000000 
0.686664 0.011182 0.000000 
0.686737 0.072036 0.000000 
0.624439 0.075128 0.000000 
0.991678 -0.073052 0.000000 
0.931179 -0.007050 0.000000 
0.929395 0.126164 0.000000 
0.930937 0.059074 0.000000 
0.991560 0.059509 0.000000 
0.870256 0.060368 0.000000 
0.808376 0.128961 0.000000 
0.918120 0.402847 0.000000 
0.921005 0.332454 0.000000 
0.980361 0.334627 0.000000 
0.801971 0.332716 0.000000 
0.861568 0.332022 0.000000 
0.799881 0.403023 0.000000 
0.986909 0.195911 0.000000 
0.924046 0.262877 0.000000 
0.926960 0.194111 0.000000 
0.621496 0.336687 0.000000 
0.560404 0.406905 0.000000 
0.745824 0.197918 0.000000 
0.683356 0.267082 0.000000 
0.680718 0.405248 0.000000 
0.681955 0.335442 0.000000 
0.742118 0.334004 0.000000 
0.866824 0.194222 0.000000 
0.804253 0.263598 0.000000 
0.806484 0.195683 0.000000 
0.974440 0.475608 0.000000 
0.915685 0.474082 0.000000 
0.913170 0.619291 0.000000 
0.913948 0.546211 0.000000 
0.971191 0.619249 0.000000 
0.857024 0.473906 0.000000 
0.798246 0.474492 0.000000 
0.928124 0.922689 0.000000 
0.920465 0.845107 0.000000 
0.984171 0.918182 0.000000 
0.798069 0.695410 0.000000 
0.858533 0.770148 0.000000 
0.800214 0.770920 0.000000 
0.972915 0.766143 0.000000 
0.915897 0.768634 0.000000 
0.913674 0.693397 0.000000 
0.620063 0.477195 0.000000 
0.560087 0.477717 0.000000 
0.739191 0.475415 0.000000 
0.679791 0.476383 0.000000 
0.679360 0.622141 0.000000 
0.679307 0.548724 0.000000 
0.738496 0.621504 0.000000 
0.855290 0.619950 0.000000 
0.797133 0.620751 0.000000 
0.797259 0.547084 0.000000 
0.937500 1.000000 0.000000 
0.868565 0.923366 0.000000 
0.746651 0.923474 0.000000 
0.807852 0.923471 0.000000 
0.812500 1.000000 0.000000 
0.803569 0.847041 0.000000 
0.741043 0.771334 0.000000 
0.500000 0.923460 0.000000 
0.561794 0.923456 0.000000 
0.562500 1.000000 0.000000 
0.560590 0.771878 0.000000 
0.561138 0.847392 0.000000 
0.500000 0.771926 0.000000 
0.687500 1.000000 0.000000 
0.623537 0.923456 0.000000 
0.685178 0.923463 0.000000 
0.559943 0.549782 0.000000 
0.500000 0.477881 0.000000 
0.680009 0.696485 0.000000 
0.619810 0.622626 0.000000 
0.500000 0.623051 0.000000 
0.559975 0.622934 0.000000 
0.560193 0.697015 0.000000 
0.683030 0.847298 0.000000 
0.621053 0.771768 0.000000 
0.681257 0.771593 0.000000 
0.437500 1.000000 0.000000 
0.438206 0.923456 0.000000 
0.314822 0.923463 0.000000 
0.376463 0.923456 0.000000 
0.312500 1.000000 0.000000 
0.438862 0.847392 0.000000 
0.439410 0.771878 0.000000 
0.071876 0.922689 0.000000 
0.131435 0.923366 0.000000 
0.062500 1.000000 0.000000 
0.258957 0.771334 0.000000 
0.196431 0.847041 0.000000 
0.199786 0.770920 0.000000 
0.187500 1.000000 0.000000 
0.192148 0.923471 0.000000 
0.253349 0.923474 0.000000 
0.440057 0.549782 0.000000 
0.439913 0.477717 0.000000 
0.439807 0.697015 0.000000 
0.440025 0.622934 0.000000 
0.320640 0.622141 0.000000 
0.380190 0.622626 0.000000 
0.319991 0.696485 0.000000 
0.316970 0.847298 0.000000 
0.318743 0.771593 0.000000 
0.378947 0.771768 0.000000 
0.015829 0.918182 0.000000 
0.079535 0.845107 0.000000 
0.086326 0.693397 0.000000 
0.084103 0.768634 0.000000 
0.027085 0.766143 0.000000 
0.141467 0.770148 0.000000 
0.201931 0.695410 0.000000 
0.081880 0.402847 0.000000 
0.084315 0.474082 0.000000 
0.025560 0.475608 0.000000 
0.201754 0.474492 0.000000 
0.142976 0.473906 0.000000 
0.200119 0.403023 0.000000 
0.028809 0.619249 0.000000 
0.086052 0.546211 0.000000 
0.086830 0.619291 0.000000 
0.379937 0.477195 0.000000 
0.439596 0.406905 0.000000 
0.261504 0.621504 0.000000 
0.320693 0.548724 0.000000 
0.319282 0.405248 0.000000 
0.320209 0.476383 0.000000 
0.260809 0.475415 0.000000 
0.144710 0.619950 0.000000 
0.202741 0.547084 0.000000 
0.202867 0.620751 0.000000 
0.019639 0.334627 0.000000 
0.078995 0.332454 0.000000 
0.073040 0.194111 0.000000 
0.075954 0.262877 0.000000 
0.013091 0.195911 0.000000 
0.138432 0.332022 0.000000 
0.198029 0.332716 0.000000 
0.068821 -0.007050 0.000000 
0.008322 -0.073052 0.000000 
0.191624 0.128961 0.000000 
0.129744 0.060368 0.000000 
0.008440 0.059509 0.000000 
0.069063 0.059074 0.000000 
0.070605 0.126164 0.000000 
0.378504 0.336687 0.000000 
0.257882 0.334004 0.000000 
0.318045 0.335442 0.000000 
0.316644 0.267082 0.000000 
0.254176 0.197918 0.000000 
0.133176 0.194222 0.000000 
0.193516 0.195683 0.000000 
0.195747 0.263598 0.000000 
0.040852 -0.136025 0.000000 
0.071083 -0.103865 0.000000 
0.039995 -0.104526 0.000000 
0.133263 -0.101614 0.000000 
0.102184 -0.102962 0.000000 
0.103584 -0.134364 0.000000 
0.099905 -0.038877 0.000000 
0.100883 -0.071105 0.000000 
0.130456 -0.037623 0.000000 
0.255572 -0.086506 0.000000 
0.225540 -0.092543 0.000000 
0.230134 -0.123354 0.000000 
0.221475 -0.029953 0.000000 
0.222898 -0.061330 0.000000 
0.251834 -0.025871 0.000000 
0.166861 -0.130896 0.000000 
0.195058 -0.096716 0.000000 
0.164254 -0.099617 0.000000 
0.221355 0.097767 0.000000 
0.220877 0.065420 0.000000 
0.251930 0.099672 0.000000 
0.160150 -0.003511 0.000000 
0.190255 0.030950 0.000000 
0.159911 0.028973 0.000000 
0.251237 0.036109 0.000000 
0.220665 0.033373 0.000000 
0.220815 0.001597 0.000000 
0.162233 -0.067857 0.000000 
0.191211 -0.033269 0.000000 
0.160890 -0.035794 0.000000 
0.500000 -0.071414 0.000000 
0.469632 -0.071413 0.000000 
0.469692 -0.100000 0.000000 
0.469280 -0.013077 0.000000 
0.469470 -0.042421 0.000000 
0.500000 -0.013005 0.000000 
0.409189 -0.100000 0.000000 
0.439267 -0.071464 0.000000 
0.408900 -0.071572 0.000000 
0.468935 0.108167 0.000000 
0.468939 0.077209 0.000000 
0.500000 0.108313 0.000000 
0.407143 0.015732 0.000000 
0.437954 0.046333 0.000000 
0.406840 0.045677 0.000000 
0.500000 0.046837 0.000000 
0.468997 0.046703 0.000000 
0.469113 0.016620 0.000000 
0.290031 -0.100000 0.000000 
0.317207 -0.073334 0.000000 
0.285322 -0.077597 0.000000 
0.378512 -0.071775 0.000000 
0.348029 -0.072200 0.000000 
0.349062 -0.100000 0.000000 
0.345346 -0.015886 0.000000 
0.346513 -0.044308 0.000000 
0.376612 -0.014522 0.000000 
0.438512 -0.013302 0.000000 
0.407645 -0.013741 0.000000 
0.408287 -0.042815 0.000000 
0.469682 0.372189 0.000000 
[...]
POINT_DATA 1089

SCALARS u_h float 2
LOOKUP_TABLE default
0.009681 -0.136757 
-0.009681 -0.136757 
0.000000 0.000000 
0.000000 0.000000 
-0.000000 -0.100000 
-0.022777 -0.095119 
0.000000 0.000000 
0.022777 -0.095119 
-0.000000 -0.092974 
0.011229 -0.116244 
-0.000000 -0.110269 
0.002563 -0.117959 
-0.011229 -0.116244 
-0.002563 -0.117959 
-0.010339 -0.122612 
-0.009544 -0.095920 
-0.028758 -0.057760 
-0.010667 -0.053970 
0.000000 0.000000 
-0.000000 -0.052903 
0.000000 0.000000 
0.010667 -0.053970 
0.028758 -0.057760 
0.009544 -0.095920 
0.010339 -0.122612 
0.010173 -0.132964 
0.001314 -0.120076 
0.004781 -0.130187 
-0.000000 -0.108271 
0.000976 -0.110221 
0.004048 -0.100000 
0.002576 -0.106359 
0.000909 -0.112307 
-0.000000 -0.104983 
-0.004048 -0.100000 
-0.000976 -0.110221 
-0.004781 -0.130187 
-0.001314 -0.120076 
-0.010173 -0.132964 
-0.000909 -0.112307 
-0.002576 -0.106359 
-0.007743 -0.132464 
-0.006037 -0.123180 
-0.015941 -0.097551 
-0.010753 -0.112384 
-0.016306 -0.110011 
-0.006025 -0.109739 
-0.004322 -0.093747 
-0.027644 -0.077943 
-0.019319 -0.078597 
-0.012265 -0.028424 
-0.018865 -0.055454 
-0.023169 -0.033792 
-0.011513 -0.077077 
-0.005243 -0.075631 
0.000000 0.000000 
-0.006445 -0.027788 
-0.000000 -0.027586 
-0.002818 -0.027646 
0.000000 0.000000 
-0.004755 -0.053189 
-0.000000 -0.075069 
0.000000 0.000000 
0.002818 -0.027646 
0.012265 -0.028424 
0.006445 -0.027788 
0.000000 0.000000 
0.004755 -0.053189 
0.005243 -0.075631 
0.023169 -0.033792 
0.018865 -0.055454 
0.015941 -0.097551 
0.019319 -0.078597 
0.027644 -0.077943 
0.011513 -0.077077 
0.004322 -0.093747 
0.016306 -0.110011 
0.010753 -0.112384 
0.006037 -0.123180 
0.007743 -0.132464 
0.006025 -0.109739 
0.009639 -0.135316 
0.006626 -0.132291 
0.007550 -0.134474 
0.003053 -0.118818 
0.005161 -0.127610 
0.011067 -0.127860 
0.002934 -0.124132 
0.002971 -0.126253 
0.001469 -0.119808 
-0.000000 -0.104890 
0.001411 -0.105050 
0.001917 -0.100000 
0.000353 -0.110688 
0.000676 -0.108692 
-0.000000 -0.110146 
0.006852 -0.100000 
0.002530 -0.105816 
0.002555 -0.108932 
0.001684 -0.099996 
0.001229 -0.105336 
-0.000000 -0.099738 
0.001530 -0.114797 
0.001659 -0.110242 
0.002742 -0.112212 
-0.000000 -0.108535 
0.000785 -0.108977 
0.000447 -0.110791 
0.000836 -0.113818 
0.000561 -0.112372 
0.000763 -0.115464 
-0.001917 -0.100000 
-0.001411 -0.105050 
-0.002555 -0.108932 
-0.002530 -0.105816 
-0.006852 -0.100000 
-0.000676 -0.108692 
-0.000353 -0.110688 
-0.007550 -0.134474 
-0.006626 -0.132291 
-0.009639 -0.135316 
-0.001469 -0.119808 
-0.002971 -0.126253 
-0.002934 -0.124132 
-0.011067 -0.127860 
-0.005161 -0.127610 
-0.003053 -0.118818 
-0.001229 -0.105336 
-0.001684 -0.099996 
-0.000447 -0.110791 
-0.000785 -0.108977 
-0.002742 -0.112212 
-0.001659 -0.110242 
-0.001530 -0.114797 
-0.000836 -0.113818 
-0.000763 -0.115464 
-0.000561 -0.112372 
-0.008322 -0.135552 
-0.006321 -0.132050 
-0.008105 -0.123836 
-0.006563 -0.128426 
-0.008440 -0.127991 
-0.004744 -0.127132 
-0.004124 -0.121039 
-0.019380 -0.097153 
-0.016495 -0.105046 
-0.019639 -0.102873 
-0.010529 -0.104784 
-0.013432 -0.105478 
-0.012619 -0.096977 
-0.013091 -0.116589 
-0.013454 -0.112123 
-0.010540 -0.118389 
-0.003504 -0.100813 
-0.002096 -0.093095 
-0.004176 -0.114582 
-0.004144 -0.107918 
-0.006782 -0.094752 
-0.005545 -0.102058 
-0.007882 -0.103496 
-0.008176 -0.118278 
-0.008247 -0.111402 
-0.006016 -0.116817 
-0.025560 -0.086892 
-0.021815 -0.088418 
-0.024330 -0.068209 
-0.023552 -0.078789 
-0.028809 -0.068251 
-0.017976 -0.088594 
-0.014254 -0.088008 
-0.009376 -0.014811 
-0.017035 -0.029893 
-0.015829 -0.019318 
-0.014431 -0.054590 
-0.016467 -0.042352 
-0.012286 -0.041580 
-0.027085 -0.046357 
-0.021603 -0.043866 
-0.023826 -0.056603 
-0.004937 -0.085305 
-0.002413 -0.084783 
-0.010809 -0.087085 
-0.007709 -0.086117 
-0.008140 -0.065359 
-0.008193 -0.076276 
-0.011504 -0.065996 
-0.019710 -0.067550 
-0.015367 -0.066749 
-0.015241 -0.077916 
0.000000 0.000000 
-0.006435 -0.014134 
-0.003349 -0.014026 
-0.004648 -0.014029 
0.000000 0.000000 
-0.008931 -0.027959 
-0.008957 -0.041166 
-0.000000 -0.014040 
-0.000706 -0.014044 
0.000000 0.000000 
-0.001910 -0.040622 
-0.001362 -0.027608 
-0.000000 -0.040574 
0.000000 0.000000 
-0.001463 -0.014044 
-0.002322 -0.014037 
-0.002557 -0.075218 
-0.000000 -0.084619 
-0.007491 -0.053515 
-0.005190 -0.064874 
-0.000000 -0.064449 
-0.002525 -0.064566 
-0.002307 -0.052985 
-0.004470 -0.027702 
-0.003947 -0.040732 
-0.006243 -0.040907 
0.000000 0.000000 
0.000706 -0.014044 
0.002322 -0.014037 
0.001463 -0.014044 
0.000000 0.000000 
0.001362 -0.027608 
0.001910 -0.040622 
0.009376 -0.014811 
0.006435 -0.014134 
0.000000 0.000000 
0.008957 -0.041166 
0.008931 -0.027959 
0.012286 -0.041580 
0.000000 0.000000 
0.004648 -0.014029 
0.003349 -0.014026 
0.002557 -0.075218 
0.002413 -0.084783 
0.002307 -0.052985 
0.002525 -0.064566 
0.008140 -0.065359 
0.005190 -0.064874 
0.007491 -0.053515 
0.004470 -0.027702 
0.006243 -0.040907 
0.003947 -0.040732 
0.015829 -0.019318 
0.017035 -0.029893 
0.023826 -0.056603 
0.021603 -0.043866 
0.027085 -0.046357 
0.016467 -0.042352 
0.014431 -0.054590 
0.019380 -0.097153 
0.021815 -0.088418 
0.025560 -0.086892 
0.014254 -0.088008 
0.017976 -0.088594 
0.012619 -0.096977 
0.028809 -0.068251 
0.023552 -0.078789 
0.024330 -0.068209 
0.004937 -0.085305 
0.002096 -0.093095 
0.011504 -0.065996 
0.008193 -0.076276 
0.006782 -0.094752 
0.007709 -0.086117 
0.010809 -0.087085 
0.019710 -0.067550 
0.015241 -0.077916 
0.015367 -0.066749 
0.019639 -0.102873 
0.016495 -0.105046 
0.010540 -0.118389 
0.013454 -0.112123 
0.013091 -0.116589 
0.013432 -0.105478 
0.010529 -0.104784 
0.006321 -0.132050 
0.008322 -0.135552 
0.004124 -0.121039 
0.004744 -0.127132 
0.008440 -0.127991 
0.006563 -0.128426 
0.008105 -0.123836 
0.003504 -0.100813 
0.007882 -0.103496 
0.005545 -0.102058 
0.004144 -0.107918 
0.004176 -0.114582 
0.008176 -0.118278 
0.006016 -0.116817 
0.008247 -0.111402 
0.009602 -0.136025 
0.008583 -0.135115 
0.008745 -0.135776 
0.008263 -0.132864 
0.008434 -0.134212 
0.009834 -0.134364 
0.006155 -0.132627 
0.007133 -0.133605 
0.005456 -0.131373 
0.005572 -0.117756 
0.006790 -0.123793 
0.011384 -0.123354 
0.002725 -0.123703 
0.004148 -0.123830 
0.001834 -0.119621 
0.010611 -0.130896 
0.007558 -0.127966 
0.008004 -0.130867 
0.002605 -0.120983 
0.002127 -0.122080 
0.001930 -0.119078 
0.003900 -0.128511 
0.002755 -0.125300 
0.003661 -0.127277 
0.001237 -0.120141 
0.001915 -0.122877 
0.002065 -0.123403 
0.005983 -0.130357 
0.003711 -0.127019 
0.004640 -0.129544 
-0.000000 -0.102664 
0.000882 -0.102663 
0.000942 -0.100000 
0.000530 -0.106827 
0.000720 -0.104921 
-0.000000 -0.106755 
0.002939 -0.100000 
0.001767 -0.102714 
0.002650 -0.102822 
0.000185 -0.110583 
0.000189 -0.110291 
-0.000000 -0.110437 
0.000893 -0.109268 
0.000454 -0.109917 
0.000590 -0.110573 
-0.000000 -0.109413 
0.000247 -0.109547 
0.000363 -0.108380 
0.008781 -0.100000 
0.004707 -0.104584 
0.004072 -0.108847 
0.003512 -0.103025 
0.004279 -0.103450 
0.005312 -0.100000 
0.001596 -0.109636 
0.002763 -0.106808 
0.001612 -0.108272 
0.001012 -0.107052 
0.001395 -0.107491 
0.002037 -0.105315 
0.000932 -0.096561 
0.000829 -0.099794 
-0.000000 -0.096533 
0.001881 -0.105770 
0.001459 -0.102870 
0.002231 -0.103257 
-0.000000 -0.102563 
0.000719 -0.102637 
0.000606 -0.105072 
0.001980 -0.116329 
0.002098 -0.113728 
0.002654 -0.115060 
0.001251 -0.111513 
0.001639 -0.112530 
0.001185 -0.113440 
0.002735 -0.109331 
0.002165 -0.111153 
0.002107 -0.108518 
-0.000000 -0.109634 
0.000295 -0.109762 
0.000224 -0.110408 
0.000493 -0.107082 
0.000387 -0.108650 
-0.000000 -0.106980 
0.000671 -0.111423 
0.000595 -0.110119 
0.000909 -0.110704 
0.001534 -0.107860 
0.001204 -0.109511 
0.001000 -0.107377 
0.002286 -0.112803 
0.000928 -0.111693 
0.001405 -0.111878 
0.001322 -0.115205 
0.000884 -0.116645 
0.000358 -0.110981 
0.000666 -0.112603 
0.000515 -0.111648 
0.000476 -0.111368 
0.000644 -0.111586 
0.001421 -0.117160 
0.000815 -0.117376 
0.001015 -0.117524 
0.001071 -0.115388 
0.000836 -0.113853 
0.000642 -0.113034 
0.000637 -0.113734 
0.000660 -0.114969 
-0.000942 -0.100000 
-0.000882 -0.102663 
-0.002650 -0.102822 
-0.001767 -0.102714 
-0.002939 -0.100000 
-0.000720 -0.104921 
-0.000530 -0.106827 
-0.004072 -0.108847 
-0.004707 -0.104584 
-0.008781 -0.100000 
-0.001612 -0.108272 
-0.002763 -0.106808 
-0.001596 -0.109636 
-0.005312 -0.100000 
-0.004279 -0.103450 
-0.003512 -0.103025 
-0.000189 -0.110291 
-0.000185 -0.110583 
-0.000363 -0.108380 
-0.000247 -0.109547 
-0.000590 -0.110573 
-0.000454 -0.109917 
-0.000893 -0.109268 
-0.002037 -0.105315 
-0.001395 -0.107491 
-0.001012 -0.107052 
-0.008745 -0.135776 
-0.008583 -0.135115 
-0.009602 -0.136025 
-0.005456 -0.131373 
-0.007133 -0.133605 
-0.006155 -0.132627 
-0.009834 -0.134364 
-0.008434 -0.134212 
-0.008263 -0.132864 
-0.001930 -0.119078 
-0.002127 -0.122080 
-0.002605 -0.120983 
-0.002065 -0.123403 
-0.001915 -0.122877 
-0.001237 -0.120141 
-0.003661 -0.127277 
-0.002755 -0.125300 
-0.003900 -0.128511 
-0.011384 -0.123354 
-0.006790 -0.123793 
-0.005572 -0.117756 
-0.008004 -0.130867 
-0.007558 -0.127966 
-0.010611 -0.130896 
-0.001834 -0.119621 
-0.004148 -0.123830 
-0.002725 -0.123703 
-0.004640 -0.129544 
-0.003711 -0.127019 
-0.005983 -0.130357 
-0.000829 -0.099794 
-0.000932 -0.096561 
-0.000606 -0.105072 
-0.000719 -0.102637 
-0.002231 -0.103257 
-0.001459 -0.102870 
-0.001881 -0.105770 
-0.000224 -0.110408 
-0.000295 -0.109762 
-0.000909 -0.110704 
-0.000595 -0.110119 
-0.000671 -0.111423 
-0.000387 -0.108650 
-0.000493 -0.107082 
-0.002654 -0.115060 
-0.002098 -0.113728 
-0.001980 -0.116329 
-0.002107 -0.108518 
-0.002165 -0.111153 
-0.002735 -0.109331 
-0.001185 -0.113440 
-0.001639 -0.112530 
-0.001251 -0.111513 
-0.001000 -0.107377 
-0.001204 -0.109511 
-0.001534 -0.107860 
-0.002286 -0.112803 
-0.000884 -0.116645 
-0.001322 -0.115205 
-0.001405 -0.111878 
-0.000928 -0.111693 
-0.001421 -0.117160 
-0.000836 -0.113853 
-0.001071 -0.115388 
-0.001015 -0.117524 
-0.000815 -0.117376 
-0.000358 -0.110981 
-0.000644 -0.111586 
-0.000476 -0.111368 
-0.000515 -0.111648 
-0.000666 -0.112603 
-0.000660 -0.114969 
-0.000637 -0.113734 
-0.000642 -0.113034 
-0.008952 -0.136408 
-0.007927 -0.135065 
-0.007019 -0.132398 
-0.007318 -0.133921 
-0.007889 -0.134217 
-0.006761 -0.133434 
-0.005586 -0.131341 
-0.009190 -0.123487 
-0.008196 -0.126063 
-0.009258 -0.125394 
-0.006220 -0.125970 
-0.007195 -0.126243 
-0.007057 -0.123718 
-0.007926 -0.130366 
-0.007475 -0.128427 
-0.007072 -0.130551 
-0.003414 -0.122719 
-0.003284 -0.119569 
-0.004564 -0.128770 
-0.003825 -0.125837 
-0.005052 -0.122268 
-0.004312 -0.124173 
-0.005256 -0.125271 
-0.006259 -0.130370 
-0.005659 -0.127995 
-0.005432 -0.129789 
-0.021094 -0.096395 
-0.019611 -0.100394 
-0.021255 -0.099077 
-0.016338 -0.101591 
-0.017971 -0.101202 
-0.017656 -0.097509 
-0.017977 -0.106515 
-0.018059 -0.104218 
-0.016464 -0.107867 
-0.010144 -0.100489 
-0.011612 -0.101028 
-0.011045 -0.096483 
-0.012098 -0.109058 
-0.011954 -0.105236 
-0.010720 -0.108763 
-0.014256 -0.097352 
-0.013143 -0.101432 
-0.014723 -0.101642 
-0.011633 -0.119672 
-0.011787 -0.117766 
-0.010404 -0.120718 
-0.014861 -0.111340 
-0.013288 -0.114640 
-0.014663 -0.113368 
-0.010676 -0.115605 
-0.011961 -0.115358 
-0.012084 -0.112446 
-0.014950 -0.105439 
-0.013521 -0.109057 
-0.014978 -0.108687 
-0.001898 -0.096731 
-0.001039 -0.092949 
-0.003046 -0.103785 
-0.002572 -0.100340 
-0.003186 -0.093368 
-0.002894 -0.097037 
-0.003933 -0.097461 
-0.003324 -0.116457 
-0.003408 -0.113375 
-0.005042 -0.108819 
-0.004213 -0.111289 
-0.005086 -0.112340 
-0.003432 -0.110269 
-0.003326 -0.107085 
-0.008123 -0.095331 
-0.007432 -0.099220 
-0.008749 -0.099870 
-0.005030 -0.097983 
-0.006193 -0.098579 
-0.005517 -0.094216 
-0.006965 -0.106789 
-0.006674 -0.102772 
-0.005870 -0.105976 
-0.003917 -0.104434 
-0.004855 -0.105176 
-0.004491 -0.101394 
-0.009238 -0.121216 
-0.009433 -0.115457 
-0.009337 -0.118536 
-0.008114 -0.121240 
-0.007028 -0.120851 
-0.009168 -0.104184 
-0.007095 -0.110622 
-0.008143 -0.107564 
-0.009397 -0.108243 
-0.009470 -0.112013 
-0.004113 -0.117828 
-0.005987 -0.120108 
-0.005008 -0.119075 
-0.005048 -0.115757 
-0.006053 -0.113354 
-0.008239 -0.114985 
-0.007108 -0.114260 
-0.007065 -0.117682 
-0.024249 -0.091097 
-0.022478 -0.092227 
-0.024774 -0.083306 
-0.023712 -0.087866 
-0.026701 -0.082508 
-0.020669 -0.092895 
-0.018846 -0.093192 
-0.026662 -0.062913 
-0.026618 -0.068353 
-0.028958 -0.063111 
-0.021433 -0.078782 
-0.024079 -0.073622 
-0.021859 -0.073480 
-0.028358 -0.073193 
-0.026261 -0.073558 
-0.025635 -0.078539 
-0.013504 -0.092635 
-0.011832 -0.092173 
-0.017029 -0.093202 
-0.015242 -0.092996 
-0.016766 -0.083464 
-0.016089 -0.088366 
-0.018750 -0.083726 
-0.022786 -0.083718 
-0.020766 -0.083832 
-0.019893 -0.088634 
-0.006027 -0.007804 
-0.012045 -0.016155 
-0.009932 -0.010671 
-0.014431 -0.028954 
-0.013621 -0.022452 
-0.011297 -0.021659 
-0.020047 -0.026884 
-0.016617 -0.024049 
-0.020040 -0.031450 
-0.012468 -0.054255 
-0.013515 -0.048179 
-0.011629 -0.047888 
-0.017880 -0.049022 
-0.015595 -0.048548 
-0.016565 -0.054986 
-0.012539 -0.035079 
-0.014256 -0.041901 
-0.014598 -0.035470 
-0.028156 -0.052183 
-0.025611 -0.051261 
-0.026346 -0.057222 
-0.022569 -0.038416 
-0.024384 -0.045004 
-0.025461 -0.040247 
-0.021304 -0.055998 
-0.022963 -0.050383 
-0.020353 -0.049629 
-0.016972 -0.036087 
-0.018929 -0.042989 
-0.019661 -0.037037 
-0.002277 -0.089106 
-0.001140 -0.088973 
-0.004664 -0.089689 
-0.003446 -0.089349 
-0.003795 -0.080343 
-0.003651 -0.085002 
-0.005132 -0.080613 
-0.010236 -0.091654 
-0.008723 -0.091117 
-0.009580 -0.081770 
-0.009215 -0.086592 
-0.011241 -0.082222 
-0.007293 -0.090593 
-0.005943 -0.090110 
-0.009481 -0.059799 
-0.009764 -0.065660 
-0.011194 -0.060091 
-0.006677 -0.075928 
-0.008239 -0.070943 
-0.006709 -0.070637 
-0.011606 -0.071664 
-0.009868 -0.071288 
-0.009803 -0.076663 
-0.006285 -0.085682 
-0.008013 -0.081340 
-0.006534 -0.080949 
-0.024262 -0.062540 
-0.019462 -0.061632 
-0.021838 -0.062093 
-0.022008 -0.067918 
-0.019650 -0.073205 
-0.013045 -0.060420 
-0.013458 -0.072060 
-0.013371 -0.066361 
-0.015043 -0.060787 
-0.017186 -0.061192 
-0.012491 -0.087568 
-0.017245 -0.078292 
-0.014842 -0.083100 
-0.012997 -0.082674 
-0.013327 -0.077502 
-0.017486 -0.067151 
-0.015424 -0.072463 
-0.017495 -0.072853 
0.000000 0.000000 
-0.004635 -0.007265 
-0.003203 -0.007035 
-0.003803 -0.007093 
0.000000 0.000000 
-0.007674 -0.014328 
-0.009509 -0.021285 
-0.001684 -0.007043 
-0.001986 -0.007032 
0.000000 0.000000 
-0.005849 -0.020969 
-0.003956 -0.014023 
-0.004951 -0.020945 
0.000000 0.000000 
-0.002329 -0.007023 
-0.002727 -0.007020 
-0.010530 -0.041346 
-0.009920 -0.047653 
-0.010461 -0.028129 
-0.010750 -0.034827 
-0.007791 -0.034536 
-0.009181 -0.034658 
-0.007608 -0.027855 
-0.005458 -0.014056 
-0.006875 -0.021015 
-0.008073 -0.021104 
-0.000000 -0.007079 
-0.000176 -0.007080 
0.000000 0.000000 
-0.000517 -0.020883 
-0.000350 -0.014043 
-0.000000 -0.020878 
0.000000 0.000000 
-0.000356 -0.007080 
-0.000542 -0.007078 
-0.001056 -0.046850 
-0.000947 -0.040591 
-0.000000 -0.046828 
-0.002072 -0.027625 
-0.001653 -0.034189 
-0.002514 -0.034220 
-0.000000 -0.034155 
-0.000819 -0.034168 
-0.000675 -0.027595 
0.000000 0.000000 
-0.001169 -0.007062 
-0.001414 -0.007053 
-0.000737 -0.007074 
-0.000945 -0.007069 
0.000000 0.000000 
-0.002772 -0.020911 
-0.001876 -0.014041 
-0.002162 -0.020903 
-0.001044 -0.020889 
-0.001589 -0.020896 
-0.001075 -0.014045 
-0.001204 -0.084656 
-0.000000 -0.088951 
-0.003875 -0.075393 
-0.002506 -0.080147 
-0.000000 -0.079987 
-0.001248 -0.080028 
-0.001272 -0.075111 
-0.009014 -0.053725 
-0.007892 -0.059543 
-0.005021 -0.059137 
-0.006411 -0.059322 
-0.006077 -0.053337 
-0.006621 -0.065095 
-0.005263 -0.070378 
-0.000000 -0.058783 
-0.001211 -0.058813 
-0.001145 -0.052929 
-0.001274 -0.069923 
-0.001254 -0.064484 
-0.000000 -0.069884 
-0.003504 -0.053072 
-0.002439 -0.058883 
-0.003703 -0.058991 
-0.003888 -0.070170 
-0.003831 -0.064697 
-0.002564 -0.070018 
-0.002809 -0.014032 
-0.003613 -0.027671 
-0.003431 -0.020920 
-0.004152 -0.020930 
-0.005407 -0.027739 
-0.002130 -0.046893 
-0.004395 -0.047048 
-0.003237 -0.046959 
-0.002905 -0.040670 
-0.003417 -0.034260 
-0.008364 -0.047459 
-0.006544 -0.034443 
-0.007537 -0.041024 
-0.006939 -0.047296 
-0.005623 -0.047160 
-0.004379 -0.034309 
-0.005053 -0.040811 
-0.005414 -0.034370 
0.000000 0.000000 
0.000176 -0.007080 
0.000542 -0.007078 
0.000356 -0.007080 
0.000000 0.000000 
0.000350 -0.014043 
0.000517 -0.020883 
0.001414 -0.007053 
0.001169 -0.007062 
0.000000 0.000000 
0.002162 -0.020903 
0.001876 -0.014041 
0.002772 -0.020911 
0.000000 0.000000 
0.000945 -0.007069 
0.000737 -0.007074 
0.000947 -0.040591 
0.001056 -0.046850 
0.000675 -0.027595 
0.000819 -0.034168 
0.002514 -0.034220 
0.001653 -0.034189 
0.002072 -0.027625 
0.001075 -0.014045 
0.001589 -0.020896 
0.001044 -0.020889 
0.006027 -0.007804 
0.004635 -0.007265 
0.000000 0.000000 
0.009509 -0.021285 
0.007674 -0.014328 
0.011297 -0.021659 
0.000000 0.000000 
0.003803 -0.007093 
0.003203 -0.007035 
0.009920 -0.047653 
0.010530 -0.041346 
0.011629 -0.047888 
0.007608 -0.027855 
0.009181 -0.034658 
0.007791 -0.034536 
0.012539 -0.035079 
0.010750 -0.034827 
0.010461 -0.028129 
0.000000 0.000000 
0.001986 -0.007032 
0.001684 -0.007043 
0.002727 -0.007020 
0.002329 -0.007023 
0.000000 0.000000 
0.004951 -0.020945 
0.003956 -0.014023 
0.005849 -0.020969 
0.008073 -0.021104 
0.006875 -0.021015 
0.005458 -0.014056 
0.001204 -0.084656 
0.001140 -0.088973 
0.001272 -0.075111 
0.001248 -0.080028 
0.003795 -0.080343 
0.002506 -0.080147 
0.003875 -0.075393 
0.001145 -0.052929 
0.001211 -0.058813 
0.003703 -0.058991 
0.002439 -0.058883 
0.003504 -0.053072 
0.001254 -0.064484 
0.001274 -0.069923 
0.009481 -0.059799 
0.007892 -0.059543 
0.009014 -0.053725 
0.005263 -0.070378 
0.006621 -0.065095 
0.006709 -0.070637 
0.006077 -0.053337 
0.006411 -0.059322 
0.005021 -0.059137 
0.002564 -0.070018 
0.003831 -0.064697 
0.003888 -0.070170 
0.002809 -0.014032 
0.005407 -0.027739 
0.004152 -0.020930 
0.003431 -0.020920 
0.003613 -0.027671 
0.008364 -0.047459 
0.005623 -0.047160 
0.006939 -0.047296 
0.007537 -0.041024 
0.006544 -0.034443 
0.002130 -0.046893 
0.003417 -0.034260 
0.002905 -0.040670 
0.003237 -0.046959 
0.004395 -0.047048 
0.005414 -0.034370 
0.005053 -0.040811 
0.004379 -0.034309 
0.009932 -0.010671 
0.012045 -0.016155 
0.020040 -0.031450 
0.016617 -0.024049 
0.020047 -0.026884 
0.013621 -0.022452 
0.014431 -0.028954 
0.026346 -0.057222 
0.025611 -0.051261 
0.028156 -0.052183 
0.020353 -0.049629 
0.022963 -0.050383 
0.021304 -0.055998 
0.025461 -0.040247 
0.024384 -0.045004 
0.022569 -0.038416 
0.013515 -0.048179 
0.012468 -0.054255 
0.014598 -0.035470 
0.014256 -0.041901 
0.016565 -0.054986 
0.015595 -0.048548 
0.017880 -0.049022 
0.019661 -0.037037 
0.018929 -0.042989 
0.016972 -0.036087 
0.021094 -0.096395 
0.022478 -0.092227 
0.024249 -0.091097 
0.018846 -0.093192 
0.020669 -0.092895 
0.017656 -0.097509 
0.026701 -0.082508 
0.023712 -0.087866 
0.024774 -0.083306 
0.011832 -0.092173 
0.013504 -0.092635 
0.011045 -0.096483 
0.018750 -0.083726 
0.016089 -0.088366 
0.016766 -0.083464 
0.014256 -0.097352 
0.015242 -0.092996 
0.017029 -0.093202 
0.028958 -0.063111 
0.026618 -0.068353 
0.026662 -0.062913 
0.025635 -0.078539 
0.026261 -0.073558 
0.028358 -0.073193 
0.021859 -0.073480 
0.024079 -0.073622 
0.021433 -0.078782 
0.019893 -0.088634 
0.020766 -0.083832 
0.022786 -0.083718 
0.002277 -0.089106 
0.001039 -0.092949 
0.005132 -0.080613 
0.003651 -0.085002 
0.003186 -0.093368 
0.003446 -0.089349 
0.004664 -0.089689 
0.011194 -0.060091 
0.009764 -0.065660 
0.009803 -0.076663 
0.009868 -0.071288 
0.011606 -0.071664 
0.008239 -0.070943 
0.006677 -0.075928 
0.008123 -0.095331 
0.008723 -0.091117 
0.010236 -0.091654 
0.005943 -0.090110 